 Gaussian 09, Revision D.01,
 Gaussian 09:  ES64L-G09RevD.01 24-Apr-2013

 ----------------------------------------------------------------------
 # td=(NStates=1) iop(3/107=0140000000,3/108=0140000000) iop(3/107=0140
 000000,3/108=0140000000) CAM-B3LYP/6-31G(d,p)
 ----------------------------------------------------------------------

 --
 TD
 --
 Symbolic Z-matrix:
 Charge =  0 Multiplicity = 1

                         Standard orientation:
 ---------------------------------------------------------------------
 Center     Atomic      Atomic             Coordinates (Angstroms)
 Number     Number       Type             X           Y           Z
 ---------------------------------------------------------------------
      1         12           0       -5.635344    1.140782    0.211015
      2          6           0       -5.018735   -2.126393   -0.351502
      3          6           0       -3.402308    1.139170    2.748114
      4          6           0       -6.205708    4.516747    0.629555
      5          6           0       -8.032279    1.100459   -2.325271
      6          7           0       -4.285433   -0.256373    0.986449
      7          6           0       -4.225066   -1.575911    0.657808
      8          6           0       -3.299266   -2.370494    1.429739
      9          6           0       -2.978642   -1.382070    2.638143
     10          6           0       -3.526182   -0.036115    2.071059
     11          6           0       -3.598840   -1.713023    3.959848
     12          6           0       -1.879235   -2.634589    0.747220
     13          6           0       -0.957887   -3.657987    1.405639
     14          6           0        0.231171   -3.996153    0.544467
     15          8           0        0.422528   -3.516046   -0.506219
     16          8           0        1.085489   -4.741399    1.299380
     17          7           0       -4.817870    2.617753    1.388153
     18          6           0       -4.011935    2.456255    2.459407
     19          6           0       -3.733923    3.698531    3.258147
     20          6           0       -4.512222    4.631482    2.622760
     21          6           0       -5.135152    3.928538    1.508331
     22          6           0       -2.781282    3.729747    4.455056
     23          6           0       -4.627916    6.098610    2.938525
     24          8           0       -3.779263    6.749107    3.671270
     25          7           0       -6.847830    2.663060   -0.766163
     26          6           0       -6.939453    3.933382   -0.477566
     27          6           0       -7.905322    4.640314   -1.281444
     28          6           0       -8.476590    3.645519   -2.064216
     29          6           0       -7.741756    2.443019   -1.777777
     30          6           0       -8.242200    6.009713   -1.098713
     31          6           0       -9.442738    3.860557   -3.097027
     32          6           0       -8.810016    4.152328   -4.477656
     33          7           0       -6.355225   -0.162964   -1.076360
     34          6           0       -7.285967   -0.003102   -2.133563
     35          6           0       -7.454863   -1.297004   -2.780354
     36          6           0       -6.660428   -2.201186   -2.145197
     37          6           0       -5.932540   -1.406118   -1.161556
     38          6           0       -8.563087   -1.628380   -3.783823
     39          6           0       -6.189086   -3.567327   -2.048863
     40          8           0       -6.526634   -4.501508   -2.816362
     41          6           0       -5.023657   -3.619820   -0.891214
     42          6           0       -5.386208   -4.596075    0.038852
     43          8           0       -5.918585   -4.514814    1.134345
     44          8           0       -4.993177   -5.914264   -0.369516
     45          6           0       -5.469706   -6.957031    0.505489
     46          6           0        2.392880   -5.126907    0.677112
     47          6           0        3.395852   -4.133875    1.172770
     48          6           0        4.068633   -3.302973    0.301935
     49          6           0        3.767524   -3.077622   -1.154430
     50          6           0        5.112465   -2.398039    0.791762
     51          6           0        6.560727   -2.723552    0.207327
     52          6           0        7.596740   -1.698397    0.684223
     53          6           0        9.041964   -1.946370   -0.020460
     54          6           0        9.564674   -3.396142    0.240937
     55          6           0       10.026417   -0.883760    0.532927
     56          6           0       11.322989   -0.754291   -0.387767
     57          6           0       12.212201    0.412154    0.149469
     58          6           0       13.503849    0.506617   -0.643300
     59          6           0       14.238928   -0.835483   -0.455680
     60          6           0       14.400292    1.690003   -0.163190
     61          6           0       15.486262    2.109626   -1.078692
     62          6           0       16.005926    3.458372   -0.731788
     63          6           0       17.287639    3.929167   -1.327689
     64          6           0       17.208030    3.862941   -2.875845
     65          6           0       17.654741    5.360412   -0.810393
     66          1           0       -2.638643    1.228127    3.539331
     67          1           0       -6.432839    5.577203    0.957800
     68          1           0       -8.803602    1.030597   -3.092418
     69          1           0       -3.683632   -3.334080    1.817931
     70          1           0       -1.935316   -1.371381    2.620604
     71          1           0       -3.143318   -2.553062    4.515730
     72          1           0       -3.593627   -0.846234    4.785074
     73          1           0       -4.874116   -1.759452    3.591073
     74          1           0       -2.160009   -3.189112   -0.095610
     75          1           0       -1.300997   -1.661927    0.402970
     76          1           0       -0.594635   -3.254857    2.500210
     77          1           0       -1.486596   -4.583679    1.803407
     78          1           0       -1.643157    3.846679    4.204925
     79          1           0       -2.978296    4.931547    4.910100
     80          1           0       -3.056262    3.056536    5.241386
     81          1           0       -5.626463    6.477155    2.473642
     82          1           0      -10.208851    3.169306   -3.075488
     83          1           0      -10.096399    4.738088   -2.835393
     84          1           0       -9.613534    4.089786   -5.214384
     85          1           0       -8.362722    5.045498   -4.665307
     86          1           0       -7.979114    3.338539   -4.697911
     87          1           0       -8.269603   -1.163077   -4.770222
     88          1           0       -8.429272   -2.837912   -3.917233
     89          1           0       -9.558918   -1.538775   -3.206270
     90          1           0       -4.198983   -3.749816   -1.525317
     91          1           0        2.375092   -6.271952    0.773367
     92          1           0        2.150196   -5.003905   -0.392601
     93          1           0        3.588607   -4.234452    2.265944
     94          1           0        2.749617   -3.367268   -1.394731
     95          1           0        4.034079   -2.038032   -1.267540
     96          1           0        4.520581   -3.747536   -1.839377
     97          1           0        4.874831   -1.523408    0.613034
     98          1           0        5.053778   -2.627654    1.743275
     99          1           0        6.928210   -3.766288    0.243658
    100          1           0        6.474228   -2.830992   -0.974513
    101          1           0        7.273548   -0.757199    0.516910
    102          1           0        7.998289   -1.873145    1.903333
    103          1           0        8.908183   -1.996349   -1.018889
    104          1           0        8.924203   -4.154976   -0.186106
    105          1           0       10.531599   -3.573432   -0.301260
    106          1           0        9.541928   -3.569539    1.216119
    107          1           0        9.347857    0.026089    0.587883
    108          1           0       10.324608   -1.182893    1.723932
    109          1           0       12.000346   -1.665489   -0.214263
    110          1           0       11.122999   -0.772628   -1.557164
    111          1           0       11.584328    1.347501   -0.042056
    112          1           0       12.011599    0.088124    1.218000
    113          1           0       13.233049    0.701556   -1.694009
    114          1           0       14.385947   -1.361667    0.537486
    115          1           0       13.882093   -1.635229   -1.382932
    116          1           0       15.352965   -0.356410   -1.011817
    117          1           0       13.645388    2.331658   -0.137555
    118          1           0       14.774591    1.574776    0.999315
    119          1           0       16.148199    1.410338   -1.087608
    120          1           0       15.004535    2.089201   -2.133140
    121          1           0       15.165054    4.336651   -0.888873
    122          1           0       16.111776    3.609503    0.271208
    123          1           0       18.202223    3.262064   -1.069411
    124          1           0       16.414212    4.598440   -3.166344
    125          1           0       18.249275    4.144331   -3.299705
    126          1           0       17.316414    2.897887   -3.314160
    127          1           0       17.892498    5.380984    0.148183
    128          1           0       18.635457    5.472063   -1.341209
    129          1           0       17.090860    6.254361   -1.045886
    130          1           0       -5.070532   -7.814114   -0.101485
    131          1           0       -6.630031   -6.933985    0.436936
    132          1           0       -5.186986   -6.667954    1.639301
    133          8           0       -7.700889    6.910434   -0.377076
    134          1           0       -8.992153    6.418634   -1.777085
 ---------------------------------------------------------------------

 SCF Done:  E(RCAM-B3LYP) =  -3043.36016608     A.U. after   16 cycles

 Excitation energies and oscillator strengths:

 Excited State   1:      Singlet-A      2.0711 eV  598.63 nm  f=0.1324  <S**2>=0.000
     243 -> 245       -0.15429
     243 -> 246       -0.29120
     244 -> 245        0.59859
     244 -> 246       -0.14090
 This state for optimization and/or second-order correction.
 Total Energy, E(TD-HF/TD-KS) =  -3043.28405329
 Copying the excited state density for this state as the 1-particle RhoCI density.

 The electronic state is 1-A.
 Alpha  occ. eigenvalues --  -46.82775 -19.20945 -19.20532 -19.18535 -19.18493
 Alpha  occ. eigenvalues --  -19.17801 -19.17671 -19.16168 -14.38834 -14.38028
 Alpha  occ. eigenvalues --  -14.37430 -14.37289 -10.34939 -10.34683 -10.33307
 Alpha  occ. eigenvalues --  -10.32465 -10.29624 -10.27833 -10.27779 -10.27750
 Alpha  occ. eigenvalues --  -10.27488 -10.27450 -10.27010 -10.26621 -10.26615
 Alpha  occ. eigenvalues --  -10.26517 -10.26213 -10.26105 -10.25981 -10.25422
 Alpha  occ. eigenvalues --  -10.25205 -10.25193 -10.25151 -10.24898 -10.24836
 Alpha  occ. eigenvalues --  -10.24485 -10.24255 -10.24243 -10.24200 -10.24150
 Alpha  occ. eigenvalues --  -10.24022 -10.23662 -10.23455 -10.23439 -10.23338
 Alpha  occ. eigenvalues --  -10.23226 -10.22932 -10.22896 -10.22616 -10.22582
 Alpha  occ. eigenvalues --  -10.22476 -10.22430 -10.22372 -10.22327 -10.22266
 Alpha  occ. eigenvalues --  -10.22197 -10.21918 -10.21142 -10.21051 -10.20362
 Alpha  occ. eigenvalues --  -10.20152 -10.19964 -10.19525 -10.19126 -10.19057
 Alpha  occ. eigenvalues --  -10.19010  -3.11300  -1.86233  -1.85751  -1.85734
 Alpha  occ. eigenvalues --   -1.13420  -1.11529  -1.06094  -1.05596  -1.03307
 Alpha  occ. eigenvalues --   -1.03116  -1.03098  -1.01832  -1.01214  -1.01000
 Alpha  occ. eigenvalues --   -1.00227  -0.88743  -0.86947  -0.86414  -0.86028
 Alpha  occ. eigenvalues --   -0.85553  -0.85031  -0.84081  -0.83906  -0.83542
 Alpha  occ. eigenvalues --   -0.83214  -0.83070  -0.81331  -0.80489  -0.79723
 Alpha  occ. eigenvalues --   -0.79389  -0.78640  -0.77544  -0.76634  -0.76176
 Alpha  occ. eigenvalues --   -0.74815  -0.74672  -0.73692  -0.72378  -0.72187
 Alpha  occ. eigenvalues --   -0.71482  -0.71087  -0.70342  -0.69943  -0.69377
 Alpha  occ. eigenvalues --   -0.68941  -0.68600  -0.67903  -0.67296  -0.66783
 Alpha  occ. eigenvalues --   -0.66086  -0.65130  -0.64717  -0.63261  -0.62231
 Alpha  occ. eigenvalues --   -0.61431  -0.60848  -0.60362  -0.59204  -0.58807
 Alpha  occ. eigenvalues --   -0.58363  -0.58291  -0.57871  -0.57436  -0.57112
 Alpha  occ. eigenvalues --   -0.56381  -0.56191  -0.56051  -0.55445  -0.55128
 Alpha  occ. eigenvalues --   -0.54711  -0.53621  -0.52889  -0.52315  -0.51996
 Alpha  occ. eigenvalues --   -0.51883  -0.51240  -0.50902  -0.50723  -0.50684
 Alpha  occ. eigenvalues --   -0.50156  -0.49684  -0.49423  -0.49415  -0.49364
 Alpha  occ. eigenvalues --   -0.49043  -0.48856  -0.48421  -0.48223  -0.47615
 Alpha  occ. eigenvalues --   -0.47547  -0.47527  -0.47294  -0.47044  -0.46600
 Alpha  occ. eigenvalues --   -0.46531  -0.46373  -0.46242  -0.46042  -0.45713
 Alpha  occ. eigenvalues --   -0.45302  -0.45129  -0.45041  -0.44844  -0.44639
 Alpha  occ. eigenvalues --   -0.44499  -0.44355  -0.44181  -0.43940  -0.43708
 Alpha  occ. eigenvalues --   -0.43681  -0.43669  -0.43427  -0.43254  -0.42784
 Alpha  occ. eigenvalues --   -0.42555  -0.42341  -0.42147  -0.41733  -0.41660
 Alpha  occ. eigenvalues --   -0.41561  -0.41525  -0.41346  -0.41188  -0.40815
 Alpha  occ. eigenvalues --   -0.40550  -0.40280  -0.40188  -0.40005  -0.39884
 Alpha  occ. eigenvalues --   -0.39650  -0.39525  -0.39323  -0.39103  -0.39019
 Alpha  occ. eigenvalues --   -0.38949  -0.38307  -0.38264  -0.38086  -0.38048
 Alpha  occ. eigenvalues --   -0.37787  -0.37746  -0.37173  -0.37020  -0.36850
 Alpha  occ. eigenvalues --   -0.36649  -0.36401  -0.36014  -0.35862  -0.35529
 Alpha  occ. eigenvalues --   -0.35477  -0.35026  -0.34962  -0.34803  -0.34747
 Alpha  occ. eigenvalues --   -0.34136  -0.34011  -0.33793  -0.33374  -0.33177
 Alpha  occ. eigenvalues --   -0.32590  -0.32354  -0.31778  -0.31585  -0.31480
 Alpha  occ. eigenvalues --   -0.31315  -0.30985  -0.30926  -0.30298  -0.29907
 Alpha  occ. eigenvalues --   -0.29882  -0.29215  -0.28872  -0.28419  -0.28250
 Alpha  occ. eigenvalues --   -0.26999  -0.26876  -0.22966  -0.21967
 Alpha virt. eigenvalues --   -0.08560  -0.07209  -0.02713  -0.01861  -0.00070
 Alpha virt. eigenvalues --    0.01736   0.02117   0.02386   0.03907   0.04301
 Alpha virt. eigenvalues --    0.04611   0.05271   0.07581   0.08120   0.08891

 Mulliken charges:
               1
     1  Mg   0.842689
     2  C    0.015228
     3  C   -0.212056
     4  C   -0.179425
     5  C   -0.180256
     6  N   -0.647230
     7  C    0.371703
     8  C   -0.192454
     9  C   -0.120167
    10  C    0.335179
    11  C   -0.277975
    12  C   -0.175710
    13  C   -0.279710
    14  C    0.619352
    15  O   -0.435129
    16  O   -0.487955
    17  N   -0.644073
    18  C    0.263063
    19  C    0.079284
    20  C   -0.015157
    21  C    0.271839
    22  C   -0.395635
    23  C    0.253014
    24  O   -0.436978
    25  N   -0.645383
    26  C    0.297664
    27  C    0.040063
    28  C    0.022093
    29  C    0.249044
    30  C    0.210144
    31  C   -0.261826
    32  C   -0.305684
    33  N   -0.737962
    34  C    0.312065
    35  C   -0.045049
    36  C    0.131096
    37  C    0.292148
    38  C   -0.383721
    39  C    0.314233
    40  O   -0.454881
    41  C   -0.300606
    42  C    0.650665
    43  O   -0.478603
    44  O   -0.490966
    45  C   -0.070789
    46  C   -0.031187
    47  C   -0.117147
    48  C    0.098524
    49  C   -0.352718
    50  C   -0.185767
    51  C   -0.198577
    52  C   -0.149884
    53  C   -0.066359
    54  C   -0.317267
    55  C   -0.162309
    56  C   -0.190926
    57  C   -0.163446
    58  C   -0.058453
    59  C   -0.274645
    60  C   -0.155981
    61  C   -0.156044
    62  C   -0.138798
    63  C   -0.068462
    64  C   -0.300161
    65  C   -0.321576
    66  H    0.083333
    67  H    0.126062
    68  H    0.100453
    69  H    0.129080
    70  H    0.110860
    71  H    0.117013
    72  H    0.100009
    73  H    0.079239
    74  H    0.120719
    75  H    0.116581
    76  H    0.111134
    77  H    0.132144
    78  H    0.137443
    79  H    0.124635
    80  H    0.137214
    81  H    0.102980
    82  H    0.117865
    83  H    0.104902
    84  H    0.109862
    85  H    0.135125
    86  H    0.094439
    87  H    0.138960
    88  H    0.135324
    89  H    0.140189
    90  H    0.186224
    91  H    0.119998
    92  H    0.122237
    93  H    0.093319
    94  H    0.147491
    95  H    0.114799
    96  H    0.096676
    97  H    0.107124
    98  H    0.105595
    99  H    0.103130
   100  H    0.072667
   101  H    0.103307
   102  H    0.052166
   103  H    0.096326
   104  H    0.092395
   105  H    0.099016
   106  H    0.110672
   107  H    0.090018
   108  H    0.062792
   109  H    0.100005
   110  H    0.073159
   111  H    0.074562
   112  H    0.095198
   113  H    0.097251
   114  H    0.120797
   115  H    0.069781
   116  H    0.039498
   117  H    0.100719
   118  H    0.060812
   119  H    0.107937
   120  H    0.079275
   121  H    0.054133
   122  H    0.098852
   123  H    0.069737
   124  H    0.104103
   125  H    0.073125
   126  H    0.111760
   127  H    0.115619
   128  H    0.092071
   129  H    0.105220
   130  H    0.126865
   131  H    0.117447
   132  H    0.120506
   133  O   -0.459768
   134  H    0.065815
 Sum of Mulliken charges =   0.00000

 Dipole moment (field-independent basis, Debye):
    X=              1.6753    Y=             -4.5604    Z=             -1.0629  Tot=              4.9733
 Quadrupole moment (field-independent basis, Debye-Ang):
   XX=           -363.5008   YY=           -458.1652   ZZ=           -392.6946
   XY=              3.5722   XZ=             20.4235   YZ=            -29.0258

 Normal termination of Gaussian 09 at Tue Oct  8 03:23:07 2019.
