 Gaussian 09, Revision D.01,
 Gaussian 09:  ES64L-G09RevD.01 24-Apr-2013

 ----------------------------------------------------------------------
 # td=(NStates=1) iop(3/107=0140000000,3/108=0140000000) iop(3/107=0140
 000000,3/108=0140000000) CAM-B3LYP/6-31G(d,p)
 ----------------------------------------------------------------------

 --
 TD
 --
 Symbolic Z-matrix:
 Charge =  0 Multiplicity = 1

                         Standard orientation:
 ---------------------------------------------------------------------
 Center     Atomic      Atomic             Coordinates (Angstroms)
 Number     Number       Type             X           Y           Z
 ---------------------------------------------------------------------
      1         12           0       -5.694493    1.307471    0.252469
      2          6           0       -5.124416   -2.178611   -0.343322
      3          6           0       -3.391115    1.166911    2.832494
      4          6           0       -6.168106    4.603303    0.639416
      5          6           0       -7.906944    1.247742   -2.448983
      6          7           0       -4.387974   -0.208873    1.087141
      7          6           0       -4.323687   -1.549989    0.771289
      8          6           0       -3.257435   -2.251157    1.581657
      9          6           0       -3.002068   -1.294391    2.682740
     10          6           0       -3.600269    0.027893    2.139219
     11          6           0       -3.703862   -1.717051    3.995154
     12          6           0       -2.010366   -2.639739    0.662135
     13          6           0       -1.055202   -3.583939    1.445874
     14          6           0        0.201886   -3.987132    0.584910
     15          8           0        0.435147   -3.435017   -0.401608
     16          8           0        1.061355   -4.733851    1.256043
     17          7           0       -4.955566    2.628228    1.501003
     18          6           0       -4.087082    2.363833    2.586212
     19          6           0       -3.772945    3.603987    3.217810
     20          6           0       -4.529939    4.636067    2.576035
     21          6           0       -5.283316    3.944846    1.510283
     22          6           0       -2.865433    3.677170    4.375620
     23          6           0       -4.595499    6.025151    2.964808
     24          8           0       -3.902320    6.605490    3.787812
     25          7           0       -6.820131    2.688564   -0.738640
     26          6           0       -6.857003    3.941096   -0.380874
     27          6           0       -7.777739    4.692243   -1.307301
     28          6           0       -8.365782    3.679151   -2.121235
     29          6           0       -7.665842    2.474572   -1.743293
     30          6           0       -8.176253    6.091122   -1.274175
     31          6           0       -9.276428    3.886191   -3.262846
     32          6           0       -8.623261    3.960156   -4.678266
     33          7           0       -6.429893   -0.125323   -1.121293
     34          6           0       -7.348793   -0.028233   -2.127199
     35          6           0       -7.618757   -1.351939   -2.711668
     36          6           0       -6.745261   -2.221581   -2.099043
     37          6           0       -6.063839   -1.416901   -1.128851
     38          6           0       -8.436078   -1.652458   -3.919886
     39          6           0       -6.184605   -3.551679   -2.069410
     40          8           0       -6.628824   -4.509216   -2.703279
     41          6           0       -5.128417   -3.568085   -0.848160
     42          6           0       -5.482246   -4.711049    0.196069
     43          8           0       -5.868310   -4.415535    1.224726
     44          8           0       -4.953929   -5.857600   -0.270769
     45          6           0       -5.326265   -7.023830    0.513567
     46          6           0        2.315587   -5.072374    0.538364
     47          6           0        3.457619   -4.125897    0.885348
     48          6           0        4.023165   -3.365421    0.083267
     49          6           0        3.714923   -3.198157   -1.388032
     50          6           0        5.155871   -2.471125    0.632734
     51          6           0        6.581049   -2.814904    0.078200
     52          6           0        7.668256   -1.803359    0.717177
     53          6           0        8.988657   -1.962317   -0.019574
     54          6           0        9.665061   -3.372914    0.212536
     55          6           0        9.868577   -0.716851    0.536666
     56          6           0       11.273267   -0.746694   -0.231541
     57          6           0       12.243349    0.420210    0.132602
     58          6           0       13.545760    0.476219   -0.654326
     59          6           0       14.466348   -0.690718   -0.433217
     60          6           0       14.193105    1.829322   -0.385104
     61          6           0       15.466545    2.134322   -1.113033
     62          6           0       16.133301    3.402262   -0.625122
     63          6           0       17.445428    3.828249   -1.276215
     64          6           0       17.325377    3.835250   -2.733072
     65          6           0       17.980400    5.043756   -0.675982
     66          1           0       -2.816639    1.195004    3.769368
     67          1           0       -6.543872    5.817669    0.793883
     68          1           0       -8.849096    1.133908   -3.160920
     69          1           0       -3.605749   -3.243610    2.035315
     70          1           0       -1.947331   -1.435831    2.964477
     71          1           0       -3.238373   -2.731332    4.411233
     72          1           0       -3.433354   -1.098172    4.822491
     73          1           0       -4.605699   -1.834250    3.801740
     74          1           0       -2.250422   -3.155417   -0.198584
     75          1           0       -1.449372   -1.780544    0.081759
     76          1           0       -0.549126   -3.158347    2.491317
     77          1           0       -1.826776   -4.534748    1.595736
     78          1           0       -1.850838    3.536056    4.120864
     79          1           0       -2.965423    4.726855    4.824005
     80          1           0       -3.312908    3.005530    5.129440
     81          1           0       -5.543348    6.554071    2.456937
     82          1           0       -9.896518    2.836654   -3.200228
     83          1           0       -9.852888    4.829132   -2.999784
     84          1           0       -9.378029    4.054923   -5.461313
     85          1           0       -8.043140    4.733619   -4.789685
     86          1           0       -8.034693    3.049784   -4.993108
     87          1           0       -8.123260   -0.986532   -4.865167
     88          1           0       -8.341722   -2.630100   -4.358103
     89          1           0       -9.587761   -1.554082   -3.689775
     90          1           0       -4.101765   -3.993299   -1.324396
     91          1           0        2.739940   -5.928592    1.015703
     92          1           0        2.166050   -5.130103   -0.530601
     93          1           0        3.587560   -4.114216    2.068849
     94          1           0        2.563702   -3.371324   -1.442652
     95          1           0        3.985434   -2.129840   -1.690137
     96          1           0        4.241846   -3.978237   -1.891259
     97          1           0        4.880749   -1.521563    0.332552
     98          1           0        5.141121   -2.568572    1.778632
     99          1           0        6.896077   -3.702349    0.112003
    100          1           0        6.636280   -2.734563   -0.979459
    101          1           0        7.168657   -0.880321    0.725020
    102          1           0        7.733845   -1.970757    1.834600
    103          1           0        8.836615   -1.867376   -1.006725
    104          1           0        9.010626   -4.120497   -0.339494
    105          1           0       10.490850   -3.227683   -0.376939
    106          1           0        9.781717   -3.522415    1.243845
    107          1           0        9.277959    0.285543    0.583426
    108          1           0       10.127654   -1.070904    1.509326
    109          1           0       11.779697   -1.819222   -0.065361
    110          1           0       11.126914   -0.858711   -1.347278
    111          1           0       11.812955    1.286310    0.056440
    112          1           0       12.282542    0.100388    1.287494
    113          1           0       13.386876    0.561408   -1.543294
    114          1           0       14.745475   -0.839355    0.633990
    115          1           0       13.898827   -1.460839   -0.874493
    116          1           0       15.301393   -0.588199   -0.804369
    117          1           0       13.372619    2.628612   -0.487351
    118          1           0       14.663831    2.032471    0.705792
    119          1           0       16.341690    1.384755   -0.888027
    120          1           0       15.386697    2.135817   -2.260709
    121          1           0       15.471567    4.273246   -0.789264
    122          1           0       16.141076    3.431939    0.446810
    123          1           0       18.296475    3.154011   -1.036310
    124          1           0       16.699978    5.005043   -3.178020
    125          1           0       18.448387    4.054814   -3.227227
    126          1           0       16.829452    3.046540   -3.319653
    127          1           0       17.851288    5.143838    0.446266
    128          1           0       18.994204    5.332921   -0.990257
    129          1           0       17.394303    5.815012   -1.024015
    130          1           0       -4.697295   -7.842403    0.212968
    131          1           0       -6.311873   -7.307643    0.534736
    132          1           0       -4.990301   -6.720121    1.605201
    133          8           0       -7.844197    6.814100   -0.405568
    134          1           0       -9.003528    6.416214   -1.879008
 ---------------------------------------------------------------------

 SCF Done:  E(RCAM-B3LYP) =  -3043.38868510     A.U. after   16 cycles

 Excitation energies and oscillator strengths:

 Excited State   1:      Singlet-A      1.9851 eV  624.58 nm  f=0.1644  <S**2>=0.000
     243 -> 246       -0.29062
     244 -> 245        0.63787
 This state for optimization and/or second-order correction.
 Total Energy, E(TD-HF/TD-KS) =  -3043.31573491
 Copying the excited state density for this state as the 1-particle RhoCI density.

 The electronic state is 1-A.
 Alpha  occ. eigenvalues --  -46.81751 -19.23506 -19.22327 -19.18748 -19.17304
 Alpha  occ. eigenvalues --  -19.17157 -19.17062 -19.16440 -14.39532 -14.37039
 Alpha  occ. eigenvalues --  -14.36782 -14.36693 -10.35489 -10.34594 -10.31508
 Alpha  occ. eigenvalues --  -10.29917 -10.29805 -10.28755 -10.27965 -10.27213
 Alpha  occ. eigenvalues --  -10.26901 -10.26541 -10.26391 -10.26343 -10.26338
 Alpha  occ. eigenvalues --  -10.26052 -10.25943 -10.25728 -10.25632 -10.25342
 Alpha  occ. eigenvalues --  -10.25328 -10.25108 -10.24893 -10.24239 -10.24228
 Alpha  occ. eigenvalues --  -10.24130 -10.23768 -10.23757 -10.23705 -10.23331
 Alpha  occ. eigenvalues --  -10.23263 -10.22699 -10.22633 -10.22585 -10.22097
 Alpha  occ. eigenvalues --  -10.21992 -10.21787 -10.21713 -10.21624 -10.21518
 Alpha  occ. eigenvalues --  -10.21292 -10.21290 -10.21250 -10.21228 -10.21178
 Alpha  occ. eigenvalues --  -10.21013 -10.20914 -10.20558 -10.20378 -10.20161
 Alpha  occ. eigenvalues --  -10.20110 -10.20062 -10.19326 -10.19286 -10.19215
 Alpha  occ. eigenvalues --  -10.17534  -3.10347  -1.85284  -1.84829  -1.84748
 Alpha  occ. eigenvalues --   -1.16196  -1.15345  -1.09564  -1.08766  -1.06654
 Alpha  occ. eigenvalues --   -1.06092  -1.05564  -1.01889  -1.00860  -1.00119
 Alpha  occ. eigenvalues --   -0.98329  -0.87757  -0.86549  -0.86412  -0.85478
 Alpha  occ. eigenvalues --   -0.85423  -0.85172  -0.84549  -0.83922  -0.83316
 Alpha  occ. eigenvalues --   -0.82555  -0.82305  -0.80807  -0.79796  -0.79238
 Alpha  occ. eigenvalues --   -0.78770  -0.78127  -0.77550  -0.77036  -0.76528
 Alpha  occ. eigenvalues --   -0.75518  -0.74639  -0.73640  -0.72723  -0.72037
 Alpha  occ. eigenvalues --   -0.71794  -0.71419  -0.70855  -0.70253  -0.69542
 Alpha  occ. eigenvalues --   -0.69019  -0.68671  -0.67349  -0.66935  -0.66493
 Alpha  occ. eigenvalues --   -0.65685  -0.64989  -0.63968  -0.63714  -0.61798
 Alpha  occ. eigenvalues --   -0.61214  -0.60674  -0.60600  -0.60072  -0.59395
 Alpha  occ. eigenvalues --   -0.59388  -0.58665  -0.58184  -0.57856  -0.57433
 Alpha  occ. eigenvalues --   -0.55749  -0.55678  -0.55292  -0.54844  -0.54371
 Alpha  occ. eigenvalues --   -0.53455  -0.53144  -0.52770  -0.52301  -0.52105
 Alpha  occ. eigenvalues --   -0.51676  -0.51563  -0.51252  -0.51221  -0.50897
 Alpha  occ. eigenvalues --   -0.50301  -0.50083  -0.49622  -0.49332  -0.49105
 Alpha  occ. eigenvalues --   -0.48860  -0.48779  -0.48532  -0.48047  -0.48009
 Alpha  occ. eigenvalues --   -0.47923  -0.47648  -0.47352  -0.47191  -0.47181
 Alpha  occ. eigenvalues --   -0.46869  -0.46819  -0.46305  -0.45992  -0.45886
 Alpha  occ. eigenvalues --   -0.45845  -0.45586  -0.45289  -0.45168  -0.45009
 Alpha  occ. eigenvalues --   -0.44668  -0.44485  -0.44258  -0.44081  -0.43835
 Alpha  occ. eigenvalues --   -0.43684  -0.43449  -0.43161  -0.43016  -0.42958
 Alpha  occ. eigenvalues --   -0.42822  -0.42486  -0.42344  -0.42147  -0.41814
 Alpha  occ. eigenvalues --   -0.41694  -0.41632  -0.41429  -0.41113  -0.40722
 Alpha  occ. eigenvalues --   -0.40706  -0.40468  -0.40367  -0.39995  -0.39927
 Alpha  occ. eigenvalues --   -0.39742  -0.39726  -0.39627  -0.39324  -0.39259
 Alpha  occ. eigenvalues --   -0.39043  -0.38943  -0.38918  -0.38685  -0.38578
 Alpha  occ. eigenvalues --   -0.38072  -0.37894  -0.37654  -0.37526  -0.37345
 Alpha  occ. eigenvalues --   -0.37174  -0.36895  -0.36671  -0.35899  -0.35666
 Alpha  occ. eigenvalues --   -0.35520  -0.35314  -0.34931  -0.34781  -0.34570
 Alpha  occ. eigenvalues --   -0.34538  -0.34468  -0.34257  -0.33871  -0.33269
 Alpha  occ. eigenvalues --   -0.32786  -0.32581  -0.32097  -0.31782  -0.31755
 Alpha  occ. eigenvalues --   -0.31493  -0.30964  -0.30786  -0.29556  -0.29126
 Alpha  occ. eigenvalues --   -0.28651  -0.28269  -0.28030  -0.27821  -0.27583
 Alpha  occ. eigenvalues --   -0.27357  -0.26815  -0.22496  -0.21314
 Alpha virt. eigenvalues --   -0.08442  -0.06469  -0.01872  -0.00262   0.00799
 Alpha virt. eigenvalues --    0.03024   0.03905   0.04098   0.04580   0.05138
 Alpha virt. eigenvalues --    0.05859   0.06416   0.07878   0.07943   0.09178

 Mulliken charges:
               1
     1  Mg   0.842382
     2  C    0.086855
     3  C   -0.167875
     4  C   -0.186339
     5  C   -0.187725
     6  N   -0.628376
     7  C    0.292743
     8  C   -0.144671
     9  C   -0.148563
    10  C    0.367636
    11  C   -0.293226
    12  C   -0.174357
    13  C   -0.260694
    14  C    0.586324
    15  O   -0.416658
    16  O   -0.457643
    17  N   -0.747557
    18  C    0.288524
    19  C    0.032570
    20  C   -0.013949
    21  C    0.332049
    22  C   -0.399686
    23  C    0.235724
    24  O   -0.426857
    25  N   -0.703922
    26  C    0.330960
    27  C   -0.057029
    28  C    0.025832
    29  C    0.309380
    30  C    0.239273
    31  C   -0.232538
    32  C   -0.307520
    33  N   -0.697702
    34  C    0.274734
    35  C    0.002865
    36  C    0.086634
    37  C    0.270077
    38  C   -0.388527
    39  C    0.350061
    40  O   -0.459025
    41  C   -0.370476
    42  C    0.624029
    43  O   -0.392753
    44  O   -0.447134
    45  C   -0.103156
    46  C   -0.005304
    47  C   -0.149848
    48  C    0.146395
    49  C   -0.379932
    50  C   -0.224937
    51  C   -0.181385
    52  C   -0.169051
    53  C   -0.078571
    54  C   -0.308074
    55  C   -0.175881
    56  C   -0.212710
    57  C   -0.143020
    58  C   -0.026371
    59  C   -0.290637
    60  C   -0.175133
    61  C   -0.178175
    62  C   -0.170966
    63  C   -0.033981
    64  C   -0.261300
    65  C   -0.314130
    66  H    0.095840
    67  H    0.165656
    68  H    0.094849
    69  H    0.110071
    70  H    0.099533
    71  H    0.083142
    72  H    0.113799
    73  H    0.131013
    74  H    0.125700
    75  H    0.113056
    76  H    0.115053
    77  H    0.102410
    78  H    0.137786
    79  H    0.149260
    80  H    0.121294
    81  H    0.049561
    82  H    0.087678
    83  H    0.106487
    84  H    0.111797
    85  H    0.129900
    86  H    0.109560
    87  H    0.110962
    88  H    0.155209
    89  H    0.112305
    90  H    0.141146
    91  H    0.123665
    92  H    0.122274
    93  H    0.073499
    94  H    0.142168
    95  H    0.106639
    96  H    0.128274
    97  H    0.104797
    98  H    0.082987
    99  H    0.100404
   100  H    0.084836
   101  H    0.093008
   102  H    0.076094
   103  H    0.094674
   104  H    0.093769
   105  H    0.116335
   106  H    0.114747
   107  H    0.088655
   108  H    0.103543
   109  H    0.080261
   110  H    0.071393
   111  H    0.092625
   112  H    0.072404
   113  H    0.092231
   114  H    0.091256
   115  H    0.098881
   116  H    0.104407
   117  H    0.077795
   118  H    0.062368
   119  H    0.083233
   120  H    0.076605
   121  H    0.083434
   122  H    0.089486
   123  H    0.090374
   124  H    0.019436
   125  H    0.070384
   126  H    0.121394
   127  H    0.095728
   128  H    0.098793
   129  H    0.108887
   130  H    0.134056
   131  H    0.149319
   132  H    0.112421
   133  O   -0.394957
   134  H    0.062670
 Sum of Mulliken charges =   0.00000

 Dipole moment (field-independent basis, Debye):
    X=              1.5677    Y=             -6.2350    Z=             -1.3686  Tot=              6.5732
 Quadrupole moment (field-independent basis, Debye-Ang):
   XX=           -375.6493   YY=           -432.5351   ZZ=           -393.1644
   XY=              5.8353   XZ=             18.2550   YZ=            -35.3202

 Normal termination of Gaussian 09 at Fri Oct  4 17:09:39 2019.
