 Gaussian 09, Revision D.01,
 Gaussian 09:  ES64L-G09RevD.01 24-Apr-2013

 ----------------------------------------------------------------------
 # td=(NStates=1) iop(3/107=0140000000,3/108=0140000000) iop(3/107=0140
 000000,3/108=0140000000) CAM-B3LYP/6-31G(d,p)
 ----------------------------------------------------------------------

 --
 TD
 --
 Symbolic Z-matrix:
 Charge =  0 Multiplicity = 1

                         Standard orientation:
 ---------------------------------------------------------------------
 Center     Atomic      Atomic             Coordinates (Angstroms)
 Number     Number       Type             X           Y           Z
 ---------------------------------------------------------------------
      1         12           0       -5.538471    1.241576    0.183291
      2          6           0       -5.033930   -2.138747   -0.311800
      3          6           0       -3.454776    1.203867    2.863100
      4          6           0       -6.152886    4.555997    0.548076
      5          6           0       -8.037534    1.079950   -2.358508
      6          7           0       -4.352801   -0.270774    1.002696
      7          6           0       -4.256983   -1.577485    0.707639
      8          6           0       -3.204954   -2.342542    1.635556
      9          6           0       -2.957968   -1.309261    2.678721
     10          6           0       -3.609555   -0.040731    2.166342
     11          6           0       -3.525749   -1.823377    4.086778
     12          6           0       -1.963097   -2.713891    0.676273
     13          6           0       -0.988358   -3.493443    1.453928
     14          6           0        0.196120   -3.914889    0.638312
     15          8           0        0.527939   -3.364981   -0.434060
     16          8           0        1.031904   -4.700385    1.251734
     17          7           0       -4.837206    2.624360    1.361979
     18          6           0       -3.926814    2.414624    2.454286
     19          6           0       -3.752641    3.649838    3.161210
     20          6           0       -4.423606    4.578144    2.555194
     21          6           0       -5.125251    3.972010    1.401076
     22          6           0       -2.836773    3.896937    4.366579
     23          6           0       -4.721216    6.006465    2.966694
     24          8           0       -4.056479    6.547365    3.801213
     25          7           0       -6.789881    2.604194   -0.773797
     26          6           0       -6.850343    3.906348   -0.503440
     27          6           0       -7.949196    4.585668   -1.222721
     28          6           0       -8.308994    3.639975   -2.062422
     29          6           0       -7.663056    2.331636   -1.738910
     30          6           0       -8.348581    5.947042   -1.175535
     31          6           0       -9.385574    3.854689   -3.120649
     32          6           0       -8.829189    4.135830   -4.400756
     33          7           0       -6.347710   -0.138620   -1.179725
     34          6           0       -7.297636   -0.002307   -2.114286
     35          6           0       -7.568435   -1.293123   -2.693981
     36          6           0       -6.605217   -2.144770   -2.136491
     37          6           0       -5.998269   -1.476983   -1.138542
     38          6           0       -8.541395   -1.559095   -3.870132
     39          6           0       -6.289211   -3.580667   -2.031009
     40          8           0       -6.600466   -4.458409   -2.733247
     41          6           0       -4.991458   -3.619184   -0.822951
     42          6           0       -5.354531   -4.679942    0.090330
     43          8           0       -5.745520   -4.515504    1.296251
     44          8           0       -5.057705   -5.909366   -0.397145
     45          6           0       -5.590502   -7.010659    0.298404
     46          6           0        2.392608   -5.008875    0.633891
     47          6           0        3.364817   -4.025526    1.003423
     48          6           0        4.033940   -3.252385    0.177085
     49          6           0        3.703879   -3.018116   -1.249416
     50          6           0        5.265090   -2.397494    0.675722
     51          6           0        6.500083   -2.552131    0.082730
     52          6           0        7.633646   -1.735989    0.607491
     53          6           0        9.110164   -1.990404   -0.123826
     54          6           0        9.369571   -3.518923    0.089494
     55          6           0       10.083500   -0.933601    0.487620
     56          6           0       11.433075   -0.938014   -0.222074
     57          6           0       12.301674    0.283233    0.188412
     58          6           0       13.634500    0.407395   -0.617508
     59          6           0       14.614678   -0.790222   -0.308593
     60          6           0       14.263820    1.842545   -0.176169
     61          6           0       15.521911    2.035259   -0.944740
     62          6           0       16.030603    3.590460   -0.605652
     63          6           0       17.234218    3.953687   -1.476882
     64          6           0       16.975408    4.018686   -2.924432
     65          6           0       17.848722    5.197623   -0.887849
     66          1           0       -2.871373    1.125170    3.719191
     67          1           0       -6.440632    5.617832    1.143287
     68          1           0       -8.752508    1.077777   -3.123710
     69          1           0       -3.736649   -3.395539    1.812870
     70          1           0       -1.834111   -1.271883    2.818084
     71          1           0       -2.941709   -2.743393    4.210808
     72          1           0       -3.261925   -0.949912    4.794643
     73          1           0       -4.584205   -1.927548    3.816459
     74          1           0       -2.114033   -3.312667   -0.255434
     75          1           0       -1.483926   -1.804252    0.532744
     76          1           0       -0.836107   -3.080481    2.446746
     77          1           0       -1.443293   -4.457140    1.852055
     78          1           0       -1.754675    3.691611    4.106524
     79          1           0       -3.047449    4.833866    4.629976
     80          1           0       -2.998111    3.207705    5.255475
     81          1           0       -5.600157    6.577076    2.443369
     82          1           0      -10.134922    2.941684   -3.146257
     83          1           0      -10.127901    4.492253   -2.845856
     84          1           0       -9.494172    4.328287   -5.204411
     85          1           0       -8.235964    5.159310   -4.316698
     86          1           0       -7.980013    3.327761   -4.739040
     87          1           0       -8.462042   -0.896985   -4.768310
     88          1           0       -8.446752   -2.603949   -4.161483
     89          1           0       -9.544837   -1.423059   -3.514648
     90          1           0       -4.098032   -3.803919   -1.398857
     91          1           0        2.608070   -5.949226    1.075291
     92          1           0        2.155780   -5.093419   -0.438641
     93          1           0        3.527407   -4.158790    2.162369
     94          1           0        2.663609   -3.275932   -1.523643
     95          1           0        3.752700   -2.024179   -1.706676
     96          1           0        4.260484   -3.475673   -1.967545
     97          1           0        4.877639   -1.338250    0.377161
     98          1           0        5.399306   -2.621175    1.665614
     99          1           0        6.934063   -3.627536    0.246135
    100          1           0        6.559355   -2.476506   -1.125432
    101          1           0        7.386649   -0.796753    0.392502
    102          1           0        7.583036   -2.025313    1.600088
    103          1           0        8.932622   -2.122263   -1.176513
    104          1           0        8.644880   -4.253951   -0.127961
    105          1           0       10.387894   -3.751960   -0.252082
    106          1           0        9.697917   -3.442823    1.246253
    107          1           0        9.815071    0.133199    0.594859
    108          1           0       10.551180   -1.363395    1.508366
    109          1           0       11.962276   -1.989607   -0.071586
    110          1           0       11.236921   -0.854763   -1.403190
    111          1           0       11.762459    1.147576    0.145434
    112          1           0       12.451916    0.151600    1.131989
    113          1           0       13.407383    0.478668   -1.650322
    114          1           0       14.524316   -0.702363    0.808341
    115          1           0       14.173929   -1.688506   -0.674327
    116          1           0       15.609611   -0.575590   -0.767457
    117          1           0       13.391536    2.546973   -0.148480
    118          1           0       14.291372    1.800363    0.998935
    119          1           0       16.000772    0.992816   -0.794935
    120          1           0       15.247555    1.807544   -1.944330
    121          1           0       15.144834    4.310012   -0.742965
    122          1           0       16.206118    3.637774    0.411371
    123          1           0       18.132226    3.185236   -1.395178
    124          1           0       16.390267    4.693860   -3.114509
    125          1           0       17.897984    4.401841   -3.383541
    126          1           0       16.724590    3.100463   -3.216284
    127          1           0       18.033483    5.171328    0.170778
    128          1           0       18.731989    5.596393   -1.318252
    129          1           0       17.143154    6.224819   -0.942771
    130          1           0       -5.649525   -8.021415   -0.332530
    131          1           0       -6.624628   -6.759365    0.707618
    132          1           0       -5.037951   -7.305297    1.275469
    133          8           0       -7.912519    6.817601   -0.327767
    134          1           0       -9.217248    6.409596   -1.870916
 ---------------------------------------------------------------------

 SCF Done:  E(RCAM-B3LYP) =  -3043.38879325     A.U. after   16 cycles

 Excitation energies and oscillator strengths:

 Excited State   1:      Singlet-A      1.9920 eV  622.42 nm  f=0.1744  <S**2>=0.000
     243 -> 246       -0.26150
     244 -> 245        0.64154
 This state for optimization and/or second-order correction.
 Total Energy, E(TD-HF/TD-KS) =  -3043.31558983
 Copying the excited state density for this state as the 1-particle RhoCI density.

 The electronic state is 1-A.
 Alpha  occ. eigenvalues --  -46.81086 -19.23248 -19.21331 -19.19375 -19.18022
 Alpha  occ. eigenvalues --  -19.16790 -19.16401 -19.15244 -14.39501 -14.37603
 Alpha  occ. eigenvalues --  -14.36857 -14.35646 -10.35227 -10.34054 -10.32780
 Alpha  occ. eigenvalues --  -10.31569 -10.31434 -10.28617 -10.28279 -10.27450
 Alpha  occ. eigenvalues --  -10.27314 -10.26882 -10.26690 -10.26609 -10.26344
 Alpha  occ. eigenvalues --  -10.25349 -10.25127 -10.25045 -10.24866 -10.24820
 Alpha  occ. eigenvalues --  -10.24786 -10.24745 -10.24281 -10.24168 -10.23931
 Alpha  occ. eigenvalues --  -10.23771 -10.23533 -10.23478 -10.23144 -10.23027
 Alpha  occ. eigenvalues --  -10.22990 -10.22872 -10.22861 -10.22829 -10.22746
 Alpha  occ. eigenvalues --  -10.22701 -10.22672 -10.22257 -10.22222 -10.22049
 Alpha  occ. eigenvalues --  -10.22043 -10.21828 -10.21719 -10.21381 -10.21315
 Alpha  occ. eigenvalues --  -10.21227 -10.21208 -10.21175 -10.21156 -10.21067
 Alpha  occ. eigenvalues --  -10.20751 -10.20223 -10.19724 -10.19139 -10.18758
 Alpha  occ. eigenvalues --  -10.16801  -3.09775  -1.84709  -1.84259  -1.84182
 Alpha  occ. eigenvalues --   -1.13258  -1.12572  -1.11292  -1.08826  -1.02948
 Alpha  occ. eigenvalues --   -1.02001  -1.01805  -1.01556  -1.00489  -0.99711
 Alpha  occ. eigenvalues --   -0.98290  -0.87853  -0.87381  -0.86519  -0.86171
 Alpha  occ. eigenvalues --   -0.85194  -0.84656  -0.84498  -0.84090  -0.83849
 Alpha  occ. eigenvalues --   -0.83516  -0.82494  -0.82063  -0.81448  -0.80566
 Alpha  occ. eigenvalues --   -0.79380  -0.78974  -0.77611  -0.77217  -0.77040
 Alpha  occ. eigenvalues --   -0.75389  -0.74606  -0.73672  -0.72916  -0.72256
 Alpha  occ. eigenvalues --   -0.72013  -0.71860  -0.71119  -0.70078  -0.69453
 Alpha  occ. eigenvalues --   -0.69418  -0.68986  -0.67655  -0.66438  -0.65963
 Alpha  occ. eigenvalues --   -0.65455  -0.64598  -0.64149  -0.62096  -0.61943
 Alpha  occ. eigenvalues --   -0.61323  -0.60961  -0.59725  -0.59640  -0.58994
 Alpha  occ. eigenvalues --   -0.58939  -0.58497  -0.58135  -0.57790  -0.57318
 Alpha  occ. eigenvalues --   -0.56839  -0.56346  -0.55659  -0.55109  -0.54906
 Alpha  occ. eigenvalues --   -0.54282  -0.53877  -0.53118  -0.52922  -0.52604
 Alpha  occ. eigenvalues --   -0.52091  -0.51374  -0.51267  -0.51095  -0.50582
 Alpha  occ. eigenvalues --   -0.50284  -0.50077  -0.49744  -0.49518  -0.49311
 Alpha  occ. eigenvalues --   -0.49179  -0.48745  -0.48598  -0.48232  -0.48110
 Alpha  occ. eigenvalues --   -0.48058  -0.47792  -0.47581  -0.47455  -0.47304
 Alpha  occ. eigenvalues --   -0.46802  -0.46769  -0.46522  -0.46101  -0.45884
 Alpha  occ. eigenvalues --   -0.45608  -0.45429  -0.45304  -0.45122  -0.45032
 Alpha  occ. eigenvalues --   -0.44771  -0.44571  -0.44404  -0.44190  -0.43934
 Alpha  occ. eigenvalues --   -0.43731  -0.43677  -0.43416  -0.43230  -0.43104
 Alpha  occ. eigenvalues --   -0.42882  -0.42721  -0.42501  -0.42364  -0.42093
 Alpha  occ. eigenvalues --   -0.41973  -0.41797  -0.41501  -0.41141  -0.41014
 Alpha  occ. eigenvalues --   -0.40969  -0.40832  -0.40587  -0.40446  -0.40126
 Alpha  occ. eigenvalues --   -0.39896  -0.39829  -0.39673  -0.39458  -0.39138
 Alpha  occ. eigenvalues --   -0.38750  -0.38610  -0.38542  -0.38185  -0.38067
 Alpha  occ. eigenvalues --   -0.37888  -0.37842  -0.37278  -0.37205  -0.36967
 Alpha  occ. eigenvalues --   -0.36605  -0.36521  -0.35704  -0.35628  -0.35456
 Alpha  occ. eigenvalues --   -0.35447  -0.34909  -0.34790  -0.34536  -0.34151
 Alpha  occ. eigenvalues --   -0.33900  -0.33342  -0.32764  -0.32694  -0.32465
 Alpha  occ. eigenvalues --   -0.32441  -0.32305  -0.32080  -0.31961  -0.31770
 Alpha  occ. eigenvalues --   -0.31401  -0.30214  -0.30089  -0.29623  -0.29221
 Alpha  occ. eigenvalues --   -0.28926  -0.28651  -0.28203  -0.27994  -0.27980
 Alpha  occ. eigenvalues --   -0.27812  -0.27325  -0.22955  -0.21066
 Alpha virt. eigenvalues --   -0.08215  -0.06540  -0.01916  -0.01009   0.00452
 Alpha virt. eigenvalues --    0.01642   0.02555   0.03662   0.03976   0.04476
 Alpha virt. eigenvalues --    0.04539   0.05955   0.08090   0.08393   0.09505

 Mulliken charges:
               1
     1  Mg   0.835227
     2  C    0.055766
     3  C   -0.174847
     4  C   -0.154776
     5  C   -0.134673
     6  N   -0.622179
     7  C    0.301132
     8  C   -0.152133
     9  C   -0.192879
    10  C    0.326086
    11  C   -0.281011
    12  C   -0.153992
    13  C   -0.275988
    14  C    0.597458
    15  O   -0.502140
    16  O   -0.468551
    17  N   -0.716013
    18  C    0.294005
    19  C    0.048240
    20  C   -0.031309
    21  C    0.272414
    22  C   -0.366973
    23  C    0.248011
    24  O   -0.388812
    25  N   -0.662149
    26  C    0.246213
    27  C    0.092146
    28  C   -0.040232
    29  C    0.304010
    30  C    0.197989
    31  C   -0.225362
    32  C   -0.293452
    33  N   -0.730726
    34  C    0.347274
    35  C   -0.015381
    36  C   -0.004599
    37  C    0.298613
    38  C   -0.387063
    39  C    0.354290
    40  O   -0.386324
    41  C   -0.349063
    42  C    0.628839
    43  O   -0.511815
    44  O   -0.425672
    45  C   -0.086157
    46  C   -0.000711
    47  C   -0.126432
    48  C    0.160053
    49  C   -0.412056
    50  C   -0.193296
    51  C   -0.182474
    52  C   -0.145462
    53  C   -0.060457
    54  C   -0.330698
    55  C   -0.166597
    56  C   -0.184897
    57  C   -0.172697
    58  C   -0.091876
    59  C   -0.306977
    60  C   -0.166984
    61  C   -0.195495
    62  C   -0.164346
    63  C   -0.050218
    64  C   -0.272025
    65  C   -0.312574
    66  H    0.082105
    67  H    0.128896
    68  H    0.097067
    69  H    0.129494
    70  H    0.107363
    71  H    0.119674
    72  H    0.101994
    73  H    0.139235
    74  H    0.117884
    75  H    0.129003
    76  H    0.132467
    77  H    0.114098
    78  H    0.122292
    79  H    0.158374
    80  H    0.104667
    81  H    0.089652
    82  H    0.080860
    83  H    0.118736
    84  H    0.118238
    85  H    0.093370
    86  H    0.091209
    87  H    0.127582
    88  H    0.143510
    89  H    0.131718
    90  H    0.166139
    91  H    0.126492
    92  H    0.131946
    93  H    0.081457
    94  H    0.150357
    95  H    0.115563
    96  H    0.129099
    97  H    0.092405
    98  H    0.094380
    99  H    0.066982
   100  H    0.057106
   101  H    0.094089
   102  H    0.093198
   103  H    0.100666
   104  H    0.129431
   105  H    0.101369
   106  H    0.072207
   107  H    0.105421
   108  H    0.081721
   109  H    0.078197
   110  H    0.061200
   111  H    0.092331
   112  H    0.098983
   113  H    0.088551
   114  H    0.106231
   115  H    0.112174
   116  H    0.101653
   117  H    0.081330
   118  H    0.060970
   119  H    0.084974
   120  H    0.103088
   121  H    0.092235
   122  H    0.111113
   123  H    0.070386
   124  H    0.108529
   125  H    0.088422
   126  H    0.108526
   127  H    0.106132
   128  H    0.102287
   129  H    0.048705
   130  H    0.115102
   131  H    0.129114
   132  H    0.111475
   133  O   -0.444070
   134  H    0.075622
 Sum of Mulliken charges =   0.00000

 Dipole moment (field-independent basis, Debye):
    X=              1.9003    Y=             -4.3393    Z=             -1.0063  Tot=              4.8429
 Quadrupole moment (field-independent basis, Debye-Ang):
   XX=           -369.9655   YY=           -435.2322   ZZ=           -391.4157
   XY=              6.9783   XZ=             22.8953   YZ=            -25.5413

 Normal termination of Gaussian 09 at Mon Oct  7 21:04:53 2019.
