 Gaussian 09, Revision D.01,
 Gaussian 09:  ES64L-G09RevD.01 24-Apr-2013

 ----------------------------------------------------------------------
 # td=(NStates=1) iop(3/107=0140000000,3/108=0140000000) iop(3/107=0140
 000000,3/108=0140000000) CAM-B3LYP/6-31G(d,p)
 ----------------------------------------------------------------------

 --
 TD
 --
 Symbolic Z-matrix:
 Charge =  0 Multiplicity = 1

                         Standard orientation:
 ---------------------------------------------------------------------
 Center     Atomic      Atomic             Coordinates (Angstroms)
 Number     Number       Type             X           Y           Z
 ---------------------------------------------------------------------
      1         12           0       -5.669666    1.186961    0.176499
      2          6           0       -5.081564   -2.133820   -0.383790
      3          6           0       -3.409366    1.192011    2.828676
      4          6           0       -6.222156    4.540548    0.726485
      5          6           0       -8.038424    1.181418   -2.301913
      6          7           0       -4.425372   -0.270403    1.078071
      7          6           0       -4.243918   -1.618203    0.603587
      8          6           0       -3.234285   -2.259663    1.370757
      9          6           0       -2.926706   -1.349361    2.654914
     10          6           0       -3.643604    0.007408    2.179513
     11          6           0       -3.514066   -1.947149    3.877544
     12          6           0       -1.856853   -2.587457    0.683164
     13          6           0       -1.026811   -3.447750    1.499187
     14          6           0        0.259402   -3.846272    0.722505
     15          8           0        0.537153   -3.555646   -0.447368
     16          8           0        1.102828   -4.711515    1.493767
     17          7           0       -4.950819    2.596248    1.504636
     18          6           0       -3.975614    2.386612    2.517984
     19          6           0       -3.814035    3.614937    3.246782
     20          6           0       -4.569705    4.510678    2.633745
     21          6           0       -5.284404    3.937474    1.536871
     22          6           0       -2.866131    3.774112    4.352140
     23          6           0       -4.751648    5.965971    2.937287
     24          8           0       -4.041621    6.547820    3.836567
     25          7           0       -6.916303    2.637523   -0.660418
     26          6           0       -6.926400    3.954014   -0.347211
     27          6           0       -7.927803    4.627831   -1.212439
     28          6           0       -8.471399    3.629578   -2.021706
     29          6           0       -7.772103    2.456828   -1.679865
     30          6           0       -8.234486    6.069810   -1.241206
     31          6           0       -9.408759    3.860234   -3.215599
     32          6           0       -8.570064    3.772466   -4.560997
     33          7           0       -6.448296   -0.158900   -1.085202
     34          6           0       -7.373401    0.023319   -2.026828
     35          6           0       -7.554767   -1.307243   -2.793918
     36          6           0       -6.654897   -2.126210   -2.190014
     37          6           0       -5.905883   -1.404239   -1.237703
     38          6           0       -8.521660   -1.580016   -3.859071
     39          6           0       -6.171027   -3.503118   -2.025487
     40          8           0       -6.440680   -4.499624   -2.715862
     41          6           0       -4.959793   -3.543276   -0.997860
     42          6           0       -5.209011   -4.559639    0.084012
     43          8           0       -5.569508   -4.408258    1.206179
     44          8           0       -4.982597   -5.856946   -0.532492
     45          6           0       -5.229649   -7.046525    0.261997
     46          6           0        2.296843   -5.086937    0.878276
     47          6           0        3.448097   -4.232815    1.113097
     48          6           0        4.056889   -3.294539    0.301232
     49          6           0        3.777119   -3.266833   -1.316924
     50          6           0        5.187047   -2.437189    0.827770
     51          6           0        6.509817   -2.858692    0.202513
     52          6           0        7.612046   -1.789269    0.621000
     53          6           0        8.991175   -1.905014   -0.074924
     54          6           0        9.557477   -3.388510    0.172225
     55          6           0        9.910840   -0.824674    0.402713
     56          6           0       11.280800   -0.789369   -0.376188
     57          6           0       12.257954    0.296808    0.172787
     58          6           0       13.437461    0.449549   -0.634602
     59          6           0       14.448277   -0.643523   -0.478655
     60          6           0       14.105717    1.831431   -0.262629
     61          6           0       15.457321    2.133473   -0.959048
     62          6           0       15.952724    3.612504   -0.740510
     63          6           0       17.285906    4.000812   -1.377839
     64          6           0       17.218168    4.040035   -2.860298
     65          6           0       17.829878    5.172017   -0.763151
     66          1           0       -2.841402    1.138225    3.804283
     67          1           0       -6.382889    5.536506    0.861032
     68          1           0       -8.790562    1.345587   -3.001878
     69          1           0       -3.573630   -3.139400    1.832549
     70          1           0       -1.812329   -1.110275    2.909751
     71          1           0       -3.049749   -2.777505    4.206747
     72          1           0       -3.300906   -1.027494    4.731846
     73          1           0       -4.657491   -2.118188    3.846138
     74          1           0       -2.088906   -2.960033   -0.349318
     75          1           0       -1.522614   -1.696432    0.571411
     76          1           0       -0.536703   -3.067601    2.429955
     77          1           0       -1.542897   -4.436739    1.664275
     78          1           0       -2.047414    3.150855    4.024954
     79          1           0       -2.592308    4.876403    4.584666
     80          1           0       -3.345416    3.249295    5.267315
     81          1           0       -5.740459    6.649011    2.465916
     82          1           0      -10.241482    3.093172   -3.148859
     83          1           0       -9.745011    4.975431   -3.052039
     84          1           0       -9.035184    3.957553   -5.526153
     85          1           0       -7.858904    4.663679   -4.765397
     86          1           0       -8.127649    2.735221   -4.651683
     87          1           0       -8.485288   -1.293924   -5.214910
     88          1           0       -8.906002   -2.703451   -3.935787
     89          1           0       -9.505455   -1.087402   -3.692411
     90          1           0       -4.123263   -3.589983   -1.673479
     91          1           0        2.522760   -6.062359    1.287186
     92          1           0        2.354034   -5.335381   -0.048366
     93          1           0        3.725527   -4.097502    2.069952
     94          1           0        2.732190   -3.570239   -1.622945
     95          1           0        3.913378   -2.294039   -1.654851
     96          1           0        4.740510   -3.756121   -1.789304
     97          1           0        4.917690   -1.438971    0.549187
     98          1           0        5.075696   -2.413408    1.863322
     99          1           0        6.960575   -3.918974    0.346166
    100          1           0        6.395607   -2.677203   -0.913749
    101          1           0        7.356881   -0.801622    0.654816
    102          1           0        7.990478   -2.086363    1.676408
    103          1           0        8.751544   -1.883622   -1.264509
    104          1           0        8.696140   -4.109503   -0.034258
    105          1           0       10.567345   -3.506272   -0.485466
    106          1           0        9.726241   -3.661249    1.215519
    107          1           0        9.556164    0.124930    0.386168
    108          1           0       10.221690   -1.042090    1.551276
    109          1           0       11.651993   -1.649919   -0.140160
    110          1           0       11.119704   -0.691675   -1.382284
    111          1           0       11.609615    1.319010    0.423096
    112          1           0       12.518086    0.080207    1.322546
    113          1           0       13.171261    0.724583   -1.761176
    114          1           0       14.829046   -0.666206    0.590043
    115          1           0       14.075482   -1.485184   -0.711683
    116          1           0       15.447251   -0.413114   -0.856395
    117          1           0       13.386191    2.679800   -0.475319
    118          1           0       14.467659    1.898633    0.801538
    119          1           0       16.354586    1.480930   -0.875384
    120          1           0       15.175819    2.084978   -2.015686
    121          1           0       14.991310    4.148014   -1.222888
    122          1           0       15.857900    3.774637    0.309740
    123          1           0       17.987996    3.060709   -0.980836
    124          1           0       16.440024    4.947252   -3.156779
    125          1           0       18.105778    4.339623   -3.370248
    126          1           0       16.828885    3.233279   -3.505400
    127          1           0       18.089318    5.118174    0.192541
    128          1           0       18.777709    5.568536   -1.362929
    129          1           0       17.160750    5.905930   -0.835582
    130          1           0       -5.303871   -7.801187   -0.568460
    131          1           0       -6.068369   -7.050637    0.806286
    132          1           0       -4.454239   -7.036428    0.921571
    133          8           0       -7.817106    6.856174   -0.451379
    134          1           0       -8.840052    6.159259   -2.024844
 ---------------------------------------------------------------------

 SCF Done:  E(RCAM-B3LYP) =  -3043.40106242     A.U. after   16 cycles

 Excitation energies and oscillator strengths:

 Excited State   1:      Singlet-A      2.0485 eV  605.26 nm  f=0.1873  <S**2>=0.000
     243 -> 246        0.27843
     244 -> 245        0.63206
 This state for optimization and/or second-order correction.
 Total Energy, E(TD-HF/TD-KS) =  -3043.32578294
 Copying the excited state density for this state as the 1-particle RhoCI density.

 The electronic state is 1-A.
 Alpha  occ. eigenvalues --  -46.81281 -19.22188 -19.20759 -19.19567 -19.18494
 Alpha  occ. eigenvalues --  -19.17543 -19.17455 -19.17228 -14.39313 -14.37282
 Alpha  occ. eigenvalues --  -14.36737 -14.36574 -10.36275 -10.36157 -10.32234
 Alpha  occ. eigenvalues --  -10.32097 -10.29391 -10.28033 -10.28027 -10.27041
 Alpha  occ. eigenvalues --  -10.26415 -10.26378 -10.26331 -10.26143 -10.26072
 Alpha  occ. eigenvalues --  -10.25997 -10.25957 -10.25732 -10.25607 -10.25589
 Alpha  occ. eigenvalues --  -10.25439 -10.25282 -10.24672 -10.24483 -10.24143
 Alpha  occ. eigenvalues --  -10.24025 -10.23589 -10.23491 -10.23450 -10.23343
 Alpha  occ. eigenvalues --  -10.23285 -10.23203 -10.23121 -10.23115 -10.22918
 Alpha  occ. eigenvalues --  -10.22795 -10.22653 -10.22499 -10.22497 -10.22453
 Alpha  occ. eigenvalues --  -10.22224 -10.22208 -10.22049 -10.22015 -10.21446
 Alpha  occ. eigenvalues --  -10.21228 -10.21120 -10.20981 -10.20914 -10.20849
 Alpha  occ. eigenvalues --  -10.20732 -10.20227 -10.19341 -10.18883 -10.18725
 Alpha  occ. eigenvalues --  -10.18340  -3.09863  -1.84814  -1.84317  -1.84279
 Alpha  occ. eigenvalues --   -1.12632  -1.11780  -1.08580  -1.06056  -1.04556
 Alpha  occ. eigenvalues --   -1.04541  -1.03109  -1.01508  -1.00274  -0.99006
 Alpha  occ. eigenvalues --   -0.97873  -0.89713  -0.87344  -0.85949  -0.85833
 Alpha  occ. eigenvalues --   -0.85285  -0.84840  -0.84668  -0.84188  -0.83503
 Alpha  occ. eigenvalues --   -0.83439  -0.83371  -0.82247  -0.80821  -0.80132
 Alpha  occ. eigenvalues --   -0.79047  -0.78540  -0.77813  -0.77395  -0.76779
 Alpha  occ. eigenvalues --   -0.75314  -0.75078  -0.73799  -0.73590  -0.72227
 Alpha  occ. eigenvalues --   -0.72186  -0.71240  -0.70732  -0.70372  -0.69881
 Alpha  occ. eigenvalues --   -0.69581  -0.68707  -0.67937  -0.67395  -0.67273
 Alpha  occ. eigenvalues --   -0.65888  -0.65575  -0.64636  -0.62609  -0.62498
 Alpha  occ. eigenvalues --   -0.61918  -0.61452  -0.60611  -0.60479  -0.59704
 Alpha  occ. eigenvalues --   -0.58351  -0.58143  -0.58115  -0.57200  -0.56969
 Alpha  occ. eigenvalues --   -0.56661  -0.55888  -0.55670  -0.55412  -0.55061
 Alpha  occ. eigenvalues --   -0.54299  -0.53867  -0.53338  -0.52670  -0.52048
 Alpha  occ. eigenvalues --   -0.51822  -0.51304  -0.51197  -0.51138  -0.50656
 Alpha  occ. eigenvalues --   -0.50614  -0.50420  -0.50100  -0.49735  -0.49662
 Alpha  occ. eigenvalues --   -0.49538  -0.48913  -0.48493  -0.48362  -0.48093
 Alpha  occ. eigenvalues --   -0.47884  -0.47687  -0.47616  -0.47442  -0.47167
 Alpha  occ. eigenvalues --   -0.46980  -0.46945  -0.46761  -0.46481  -0.45875
 Alpha  occ. eigenvalues --   -0.45477  -0.45422  -0.45313  -0.45292  -0.44837
 Alpha  occ. eigenvalues --   -0.44682  -0.44527  -0.44206  -0.43880  -0.43575
 Alpha  occ. eigenvalues --   -0.43463  -0.43292  -0.43047  -0.42984  -0.42856
 Alpha  occ. eigenvalues --   -0.42753  -0.42485  -0.42322  -0.42020  -0.41934
 Alpha  occ. eigenvalues --   -0.41769  -0.41747  -0.41483  -0.41330  -0.41100
 Alpha  occ. eigenvalues --   -0.40806  -0.40438  -0.40293  -0.40152  -0.40052
 Alpha  occ. eigenvalues --   -0.39896  -0.39794  -0.39760  -0.39493  -0.39368
 Alpha  occ. eigenvalues --   -0.39176  -0.39022  -0.38755  -0.38700  -0.38619
 Alpha  occ. eigenvalues --   -0.38472  -0.38155  -0.37737  -0.37681  -0.37376
 Alpha  occ. eigenvalues --   -0.36947  -0.36585  -0.36404  -0.35573  -0.35360
 Alpha  occ. eigenvalues --   -0.35330  -0.34957  -0.34926  -0.34494  -0.34230
 Alpha  occ. eigenvalues --   -0.34055  -0.33994  -0.33568  -0.33192  -0.32574
 Alpha  occ. eigenvalues --   -0.32388  -0.32258  -0.32141  -0.31967  -0.31919
 Alpha  occ. eigenvalues --   -0.31836  -0.31524  -0.31079  -0.30584  -0.30445
 Alpha  occ. eigenvalues --   -0.29114  -0.28445  -0.28206  -0.27977  -0.27857
 Alpha  occ. eigenvalues --   -0.27368  -0.26451  -0.23506  -0.21720
 Alpha virt. eigenvalues --   -0.08543  -0.07092  -0.02641  -0.00947   0.00067
 Alpha virt. eigenvalues --    0.01794   0.02127   0.03669   0.03874   0.03979
 Alpha virt. eigenvalues --    0.04506   0.05449   0.06488   0.07823   0.08979

 Mulliken charges:
               1
     1  Mg   0.819241
     2  C    0.049711
     3  C   -0.190460
     4  C   -0.135858
     5  C   -0.132269
     6  N   -0.642476
     7  C    0.321171
     8  C   -0.211361
     9  C   -0.147439
    10  C    0.340327
    11  C   -0.286874
    12  C   -0.137446
    13  C   -0.259607
    14  C    0.585307
    15  O   -0.455161
    16  O   -0.480451
    17  N   -0.727533
    18  C    0.312643
    19  C    0.072695
    20  C   -0.016711
    21  C    0.337712
    22  C   -0.382184
    23  C    0.219568
    24  O   -0.436895
    25  N   -0.690549
    26  C    0.286704
    27  C   -0.074846
    28  C    0.022613
    29  C    0.293646
    30  C    0.309270
    31  C   -0.243059
    32  C   -0.312360
    33  N   -0.701439
    34  C    0.311908
    35  C    0.023189
    36  C    0.102777
    37  C    0.216833
    38  C   -0.394321
    39  C    0.332461
    40  O   -0.451899
    41  C   -0.292501
    42  C    0.628914
    43  O   -0.431600
    44  O   -0.498668
    45  C   -0.079573
    46  C    0.040263
    47  C   -0.136875
    48  C    0.090705
    49  C   -0.380531
    50  C   -0.217302
    51  C   -0.171232
    52  C   -0.166421
    53  C   -0.050036
    54  C   -0.314009
    55  C   -0.170483
    56  C   -0.171658
    57  C   -0.160245
    58  C   -0.037634
    59  C   -0.298079
    60  C   -0.182232
    61  C   -0.196771
    62  C   -0.166907
    63  C   -0.020064
    64  C   -0.305660
    65  C   -0.292342
    66  H    0.093611
    67  H    0.102183
    68  H    0.078234
    69  H    0.128964
    70  H    0.094379
    71  H    0.129918
    72  H    0.062214
    73  H    0.125259
    74  H    0.115521
    75  H    0.127910
    76  H    0.144935
    77  H    0.145066
    78  H    0.121063
    79  H    0.161816
    80  H    0.119031
    81  H    0.087176
    82  H    0.118872
    83  H    0.103124
    84  H    0.113869
    85  H    0.108597
    86  H    0.113128
    87  H    0.083651
    88  H    0.138659
    89  H    0.127855
    90  H    0.183415
    91  H    0.097567
    92  H    0.120928
    93  H    0.063175
    94  H    0.144190
    95  H    0.115412
    96  H    0.103366
    97  H    0.110886
    98  H    0.106595
    99  H    0.100834
   100  H    0.095807
   101  H    0.095156
   102  H    0.075349
   103  H    0.055284
   104  H    0.090501
   105  H    0.089933
   106  H    0.105958
   107  H    0.098825
   108  H    0.065301
   109  H    0.113400
   110  H    0.099223
   111  H    0.056400
   112  H    0.071928
   113  H    0.069969
   114  H    0.090412
   115  H    0.108558
   116  H    0.109162
   117  H    0.086683
   118  H    0.081129
   119  H    0.087196
   120  H    0.089849
   121  H    0.061513
   122  H    0.089815
   123  H    0.048319
   124  H    0.065714
   125  H    0.108638
   126  H    0.112100
   127  H    0.113619
   128  H    0.072281
   129  H    0.113953
   130  H    0.132804
   131  H    0.134894
   132  H    0.124019
   133  O   -0.424088
   134  H    0.053354
 Sum of Mulliken charges =   0.00000

 Dipole moment (field-independent basis, Debye):
    X=              0.6668    Y=             -3.9631    Z=             -1.1078  Tot=              4.1687
 Quadrupole moment (field-independent basis, Debye-Ang):
   XX=           -372.8077   YY=           -444.1742   ZZ=           -394.2355
   XY=              9.9814   XZ=             25.1175   YZ=            -38.2476

 Normal termination of Gaussian 09 at Tue Oct  8 19:09:58 2019.
