 Gaussian 09, Revision D.01,
 Gaussian 09:  ES64L-G09RevD.01 24-Apr-2013

 ----------------------------------------------------------------------
 # td=(NStates=1) iop(3/107=0140000000,3/108=0140000000) iop(3/107=0140
 000000,3/108=0140000000) CAM-B3LYP/6-31G(d,p)
 ----------------------------------------------------------------------

 --
 TD
 --
 Symbolic Z-matrix:
 Charge =  0 Multiplicity = 1

                         Standard orientation:
 ---------------------------------------------------------------------
 Center     Atomic      Atomic             Coordinates (Angstroms)
 Number     Number       Type             X           Y           Z
 ---------------------------------------------------------------------
      1         12           0       -5.545683    1.275765    0.166600
      2          6           0       -5.028480   -2.194118   -0.283814
      3          6           0       -3.399471    1.130521    2.776538
      4          6           0       -6.157305    4.552798    0.621788
      5          6           0       -7.969187    1.156928   -2.397920
      6          7           0       -4.298696   -0.225516    1.043068
      7          6           0       -4.293582   -1.630396    0.696510
      8          6           0       -3.209881   -2.308646    1.467524
      9          6           0       -3.030659   -1.374052    2.716523
     10          6           0       -3.644077   -0.119206    2.197885
     11          6           0       -3.570792   -1.828135    4.005032
     12          6           0       -1.993504   -2.535743    0.659119
     13          6           0       -0.987191   -3.493640    1.358499
     14          6           0        0.162319   -3.867910    0.539312
     15          8           0        0.341644   -3.626385   -0.629987
     16          8           0        1.034828   -4.646692    1.260890
     17          7           0       -4.862563    2.641411    1.546881
     18          6           0       -3.987177    2.355087    2.559049
     19          6           0       -3.681445    3.575203    3.213677
     20          6           0       -4.519747    4.593875    2.577427
     21          6           0       -5.206484    3.958853    1.546828
     22          6           0       -2.720349    3.783432    4.364961
     23          6           0       -4.513439    6.045549    2.879218
     24          8           0       -3.816641    6.546842    3.756481
     25          7           0       -6.851142    2.622737   -0.640265
     26          6           0       -6.874978    3.953334   -0.368380
     27          6           0       -7.833033    4.611621   -1.228565
     28          6           0       -8.330716    3.692460   -2.080515
     29          6           0       -7.810843    2.382500   -1.728750
     30          6           0       -8.161548    6.042668   -1.173214
     31          6           0       -9.375311    3.793865   -3.148397
     32          6           0       -8.750960    4.127867   -4.499810
     33          7           0       -6.376402   -0.107173   -1.145074
     34          6           0       -7.342277   -0.069373   -2.112351
     35          6           0       -7.601855   -1.262306   -2.868750
     36          6           0       -6.710710   -2.228552   -2.083708
     37          6           0       -5.976061   -1.361453   -1.130111
     38          6           0       -8.489578   -1.496799   -3.983137
     39          6           0       -6.152802   -3.546333   -1.963720
     40          8           0       -6.667780   -4.608300   -2.478236
     41          6           0       -5.049972   -3.607576   -0.886244
     42          6           0       -5.229022   -4.687309    0.201313
     43          8           0       -5.592352   -4.472767    1.336808
     44          8           0       -5.086339   -5.919207   -0.478574
     45          6           0       -5.324618   -6.987171    0.472122
     46          6           0        2.280033   -4.909960    0.566193
     47          6           0        3.419862   -4.055124    0.962897
     48          6           0        4.057906   -3.175293    0.076724
     49          6           0        3.726856   -3.094245   -1.380685
     50          6           0        5.088651   -2.356832    0.638283
     51          6           0        6.497743   -2.660729    0.055052
     52          6           0        7.549522   -1.796570    0.638320
     53          6           0        8.992571   -1.965487   -0.039963
     54          6           0        9.462976   -3.394424    0.216027
     55          6           0        9.855771   -0.900067    0.558762
     56          6           0       11.263666   -0.983641   -0.174352
     57          6           0       12.120580    0.332026    0.123042
     58          6           0       13.453251    0.413231   -0.597811
     59          6           0       14.400702   -0.823067   -0.209869
     60          6           0       14.199508    1.719011   -0.289824
     61          6           0       15.469006    2.173424   -1.046890
     62          6           0       16.077605    3.485803   -0.711878
     63          6           0       17.339277    3.842538   -1.320757
     64          6           0       17.326555    3.874136   -2.874782
     65          6           0       17.847616    5.216435   -0.828514
     66          1           0       -2.752065    0.940094    3.809634
     67          1           0       -6.447832    5.653659    0.781183
     68          1           0       -8.709880    1.163874   -3.269169
     69          1           0       -3.663324   -3.400500    1.740569
     70          1           0       -1.972609   -1.296291    2.899010
     71          1           0       -3.057713   -2.927290    4.176557
     72          1           0       -3.464401   -1.128871    4.741096
     73          1           0       -4.703265   -1.858213    3.757103
     74          1           0       -2.246216   -3.120786   -0.372076
     75          1           0       -1.395816   -1.415263    0.488974
     76          1           0       -0.626938   -2.979765    2.388047
     77          1           0       -1.425910   -4.503888    1.669727
     78          1           0       -1.680298    3.570995    4.031412
     79          1           0       -2.901732    4.984811    4.472317
     80          1           0       -3.060528    3.187980    5.311674
     81          1           0       -5.316266    6.680107    2.234263
     82          1           0      -10.040505    2.824662   -3.227270
     83          1           0      -10.096471    4.587020   -2.804425
     84          1           0       -9.634903    4.225765   -5.267143
     85          1           0       -8.457735    5.196204   -4.476701
     86          1           0       -7.899842    3.365345   -4.737187
     87          1           0       -8.180692   -0.632339   -4.786552
     88          1           0       -8.461474   -2.482033   -4.280578
     89          1           0       -9.420259   -1.305645   -3.496021
     90          1           0       -4.128941   -3.709697   -1.406814
     91          1           0        2.610574   -5.955232    0.933833
     92          1           0        2.267497   -4.762745   -0.397145
     93          1           0        3.576103   -4.142725    2.043771
     94          1           0        2.721573   -3.436447   -1.373285
     95          1           0        3.945493   -2.008765   -1.727600
     96          1           0        4.353526   -3.707912   -2.157591
     97          1           0        4.845108   -1.305858    0.332917
     98          1           0        5.048556   -2.369565    1.825897
     99          1           0        6.711202   -3.700448    0.118858
    100          1           0        6.311673   -2.635343   -1.056869
    101          1           0        7.136432   -0.744447    0.443260
    102          1           0        7.746101   -2.102053    1.677023
    103          1           0        8.895276   -1.745727   -1.166912
    104          1           0        8.716197   -4.108783   -0.020958
    105          1           0       10.408794   -3.356396   -0.370631
    106          1           0        9.539764   -3.602010    1.403300
    107          1           0        9.412167    0.078197    0.619671
    108          1           0        9.950041   -1.244058    1.723664
    109          1           0       11.680226   -1.990958    0.058820
    110          1           0       10.926362   -1.029159   -1.231845
    111          1           0       11.431193    1.180893   -0.196470
    112          1           0       11.970775    0.488776    1.224438
    113          1           0       13.167270    0.364826   -1.574768
    114          1           0       14.671025   -0.753917    0.995423
    115          1           0       13.778830   -1.775860   -0.428095
    116          1           0       15.171719   -0.706479   -0.778902
    117          1           0       13.501536    2.492518   -0.638678
    118          1           0       14.350591    1.732209    0.811366
    119          1           0       16.370992    1.475469   -0.836949
    120          1           0       15.473656    2.329866   -2.132905
    121          1           0       15.338074    4.150982   -0.952592
    122          1           0       16.214993    3.459256    0.298976
    123          1           0       18.126710    3.084999   -1.188502
    124          1           0       16.676782    4.708759   -3.243017
    125          1           0       18.291077    4.331133   -3.290754
    126          1           0       17.126801    2.889769   -3.197536
    127          1           0       17.876638    5.133821    0.267490
    128          1           0       18.962417    5.361379   -0.969958
    129          1           0       17.208407    6.210628   -1.027723
    130          1           0       -4.898526   -7.767116   -0.157177
    131          1           0       -6.400711   -7.139661    0.540194
    132          1           0       -4.722807   -6.877078    1.440957
    133          8           0       -7.786865    6.845463   -0.311775
    134          1           0       -8.876155    6.500274   -1.952457
 ---------------------------------------------------------------------

 SCF Done:  E(RCAM-B3LYP) =  -3043.50610184     A.U. after   16 cycles

 Excitation energies and oscillator strengths:

 Excited State   1:      Singlet-A      1.9268 eV  643.47 nm  f=0.2281  <S**2>=0.000
     243 -> 246       -0.18125
     244 -> 245        0.67549
 This state for optimization and/or second-order correction.
 Total Energy, E(TD-HF/TD-KS) =  -3043.43529348
 Copying the excited state density for this state as the 1-particle RhoCI density.

 The electronic state is 1-A.
 Alpha  occ. eigenvalues --  -46.81984 -19.22912 -19.21867 -19.19573 -19.17835
 Alpha  occ. eigenvalues --  -19.17721 -19.17565 -19.15285 -14.39393 -14.37439
 Alpha  occ. eigenvalues --  -14.37213 -14.36145 -10.36421 -10.35019 -10.31546
 Alpha  occ. eigenvalues --  -10.31441 -10.30760 -10.27774 -10.27287 -10.26974
 Alpha  occ. eigenvalues --  -10.26955 -10.26848 -10.26653 -10.26608 -10.26495
 Alpha  occ. eigenvalues --  -10.26402 -10.26264 -10.26247 -10.25867 -10.25718
 Alpha  occ. eigenvalues --  -10.25634 -10.25463 -10.25146 -10.24867 -10.24846
 Alpha  occ. eigenvalues --  -10.24706 -10.24501 -10.24145 -10.24055 -10.23906
 Alpha  occ. eigenvalues --  -10.23765 -10.23722 -10.23456 -10.23278 -10.23275
 Alpha  occ. eigenvalues --  -10.23188 -10.23056 -10.22500 -10.22371 -10.21947
 Alpha  occ. eigenvalues --  -10.21857 -10.21695 -10.21579 -10.21473 -10.21394
 Alpha  occ. eigenvalues --  -10.21282 -10.21231 -10.21212 -10.21205 -10.21203
 Alpha  occ. eigenvalues --  -10.21169 -10.20788 -10.20728 -10.20693 -10.19992
 Alpha  occ. eigenvalues --  -10.17977  -3.10439  -1.85391  -1.84914  -1.84829
 Alpha  occ. eigenvalues --   -1.13152  -1.12750  -1.06713  -1.06641  -1.06127
 Alpha  occ. eigenvalues --   -1.04769  -1.02151  -1.00876  -1.00248  -0.99515
 Alpha  occ. eigenvalues --   -0.98280  -0.88230  -0.86821  -0.86424  -0.86181
 Alpha  occ. eigenvalues --   -0.86096  -0.85014  -0.84920  -0.84312  -0.83578
 Alpha  occ. eigenvalues --   -0.83391  -0.82555  -0.81706  -0.80865  -0.79820
 Alpha  occ. eigenvalues --   -0.79172  -0.78452  -0.78063  -0.77007  -0.76860
 Alpha  occ. eigenvalues --   -0.75367  -0.75019  -0.74431  -0.72599  -0.72296
 Alpha  occ. eigenvalues --   -0.71544  -0.70799  -0.70367  -0.70206  -0.69813
 Alpha  occ. eigenvalues --   -0.69247  -0.68452  -0.66818  -0.66097  -0.65859
 Alpha  occ. eigenvalues --   -0.65367  -0.64362  -0.64276  -0.62451  -0.62061
 Alpha  occ. eigenvalues --   -0.60957  -0.60529  -0.60352  -0.59225  -0.59086
 Alpha  occ. eigenvalues --   -0.58636  -0.58448  -0.57892  -0.57582  -0.57134
 Alpha  occ. eigenvalues --   -0.56207  -0.55888  -0.55237  -0.55100  -0.54687
 Alpha  occ. eigenvalues --   -0.54404  -0.53458  -0.52635  -0.52451  -0.52043
 Alpha  occ. eigenvalues --   -0.51754  -0.51735  -0.51554  -0.51538  -0.50818
 Alpha  occ. eigenvalues --   -0.50486  -0.50319  -0.50000  -0.49778  -0.49489
 Alpha  occ. eigenvalues --   -0.48873  -0.48627  -0.48558  -0.48230  -0.47935
 Alpha  occ. eigenvalues --   -0.47892  -0.47715  -0.47625  -0.47209  -0.46998
 Alpha  occ. eigenvalues --   -0.46803  -0.46667  -0.46419  -0.46068  -0.45702
 Alpha  occ. eigenvalues --   -0.45461  -0.45368  -0.45193  -0.44984  -0.44821
 Alpha  occ. eigenvalues --   -0.44509  -0.44483  -0.44179  -0.43915  -0.43847
 Alpha  occ. eigenvalues --   -0.43404  -0.43147  -0.43102  -0.42794  -0.42603
 Alpha  occ. eigenvalues --   -0.42526  -0.42360  -0.42023  -0.41853  -0.41771
 Alpha  occ. eigenvalues --   -0.41673  -0.41388  -0.41224  -0.41066  -0.40889
 Alpha  occ. eigenvalues --   -0.40559  -0.40395  -0.40244  -0.40191  -0.39934
 Alpha  occ. eigenvalues --   -0.39793  -0.39634  -0.39328  -0.39213  -0.39205
 Alpha  occ. eigenvalues --   -0.39014  -0.38778  -0.38640  -0.38253  -0.38199
 Alpha  occ. eigenvalues --   -0.38143  -0.38018  -0.37672  -0.37468  -0.37332
 Alpha  occ. eigenvalues --   -0.36999  -0.36915  -0.36644  -0.36366  -0.36008
 Alpha  occ. eigenvalues --   -0.35921  -0.35251  -0.35082  -0.34538  -0.34496
 Alpha  occ. eigenvalues --   -0.34458  -0.33984  -0.33777  -0.33717  -0.33506
 Alpha  occ. eigenvalues --   -0.33449  -0.32364  -0.32262  -0.32094  -0.31890
 Alpha  occ. eigenvalues --   -0.31529  -0.31146  -0.31139  -0.30496  -0.30391
 Alpha  occ. eigenvalues --   -0.29004  -0.28393  -0.27617  -0.27200  -0.27105
 Alpha  occ. eigenvalues --   -0.26611  -0.25814  -0.23545  -0.21848
 Alpha virt. eigenvalues --   -0.09717  -0.06642  -0.01827  -0.00885  -0.00044
 Alpha virt. eigenvalues --    0.01716   0.02199   0.02908   0.03354   0.04076
 Alpha virt. eigenvalues --    0.04452   0.05576   0.06850   0.07758   0.09039

 Mulliken charges:
               1
     1  Mg   0.819343
     2  C    0.050197
     3  C   -0.205719
     4  C   -0.195493
     5  C   -0.181714
     6  N   -0.618704
     7  C    0.281014
     8  C   -0.151546
     9  C   -0.154354
    10  C    0.366101
    11  C   -0.277366
    12  C   -0.142636
    13  C   -0.266659
    14  C    0.622344
    15  O   -0.466907
    16  O   -0.477730
    17  N   -0.743523
    18  C    0.356432
    19  C    0.024774
    20  C   -0.048095
    21  C    0.341250
    22  C   -0.399516
    23  C    0.252578
    24  O   -0.418375
    25  N   -0.716330
    26  C    0.361245
    27  C   -0.002371
    28  C    0.041530
    29  C    0.255946
    30  C    0.237873
    31  C   -0.256235
    32  C   -0.300871
    33  N   -0.699527
    34  C    0.277400
    35  C    0.050558
    36  C   -0.001144
    37  C    0.296566
    38  C   -0.364505
    39  C    0.314297
    40  O   -0.498162
    41  C   -0.284439
    42  C    0.631707
    43  O   -0.445281
    44  O   -0.448862
    45  C   -0.096220
    46  C    0.016622
    47  C   -0.137358
    48  C    0.128981
    49  C   -0.369160
    50  C   -0.224643
    51  C   -0.179491
    52  C   -0.156931
    53  C   -0.075330
    54  C   -0.295648
    55  C   -0.148714
    56  C   -0.199868
    57  C   -0.180092
    58  C   -0.058426
    59  C   -0.291593
    60  C   -0.158744
    61  C   -0.203060
    62  C   -0.134611
    63  C   -0.058313
    64  C   -0.315225
    65  C   -0.315022
    66  H    0.071443
    67  H    0.144550
    68  H    0.091709
    69  H    0.108159
    70  H    0.108481
    71  H    0.096553
    72  H    0.123820
    73  H    0.112149
    74  H    0.108030
    75  H    0.089590
    76  H    0.123316
    77  H    0.139498
    78  H    0.125943
    79  H    0.164329
    80  H    0.114068
    81  H    0.078871
    82  H    0.104536
    83  H    0.111172
    84  H    0.101416
    85  H    0.121695
    86  H    0.113578
    87  H    0.115993
    88  H    0.162661
    89  H    0.148064
    90  H    0.170767
    91  H    0.099880
    92  H    0.118670
    93  H    0.082750
    94  H    0.152043
    95  H    0.103573
    96  H    0.112387
    97  H    0.091062
    98  H    0.080831
    99  H    0.098432
   100  H    0.084255
   101  H    0.077657
   102  H    0.093213
   103  H    0.073689
   104  H    0.114948
   105  H    0.105822
   106  H    0.079188
   107  H    0.096637
   108  H    0.057443
   109  H    0.106564
   110  H    0.088439
   111  H    0.078429
   112  H    0.090881
   113  H    0.095501
   114  H    0.073785
   115  H    0.089580
   116  H    0.122391
   117  H    0.085603
   118  H    0.091068
   119  H    0.063646
   120  H    0.090066
   121  H    0.092592
   122  H    0.092489
   123  H    0.086975
   124  H    0.092717
   125  H    0.090260
   126  H    0.109399
   127  H    0.096681
   128  H    0.096646
   129  H    0.091194
   130  H    0.129832
   131  H    0.143013
   132  H    0.124478
   133  O   -0.422709
   134  H    0.065359
 Sum of Mulliken charges =   0.00000

 Dipole moment (field-independent basis, Debye):
    X=              0.9318    Y=             -3.1342    Z=             -1.8494  Tot=              3.7565
 Quadrupole moment (field-independent basis, Debye-Ang):
   XX=           -379.1097   YY=           -443.3269   ZZ=           -396.1167
   XY=              0.1062   XZ=             24.2848   YZ=            -40.1676

 Normal termination of Gaussian 09 at Wed Oct  9 03:53:03 2019.
