 Gaussian 09, Revision D.01,
 Gaussian 09:  ES64L-G09RevD.01 24-Apr-2013

 ----------------------------------------------------------------------
 # td=(NStates=1) iop(3/107=0140000000,3/108=0140000000) iop(3/107=0140
 000000,3/108=0140000000) CAM-B3LYP/6-31G(d,p)
 ----------------------------------------------------------------------

 --
 TD
 --
 Symbolic Z-matrix:
 Charge =  0 Multiplicity = 1

                         Standard orientation:
 ---------------------------------------------------------------------
 Center     Atomic      Atomic             Coordinates (Angstroms)
 Number     Number       Type             X           Y           Z
 ---------------------------------------------------------------------
      1         12           0       -5.670963    1.198786    0.176350
      2          6           0       -5.093575   -2.173066   -0.358227
      3          6           0       -3.422256    1.137967    2.920535
      4          6           0       -6.259915    4.560329    0.632591
      5          6           0       -7.997608    1.209907   -2.336917
      6          7           0       -4.456275   -0.344827    1.136759
      7          6           0       -4.245682   -1.555002    0.597010
      8          6           0       -3.234477   -2.317088    1.506104
      9          6           0       -2.941764   -1.277220    2.675551
     10          6           0       -3.692019   -0.074310    2.182850
     11          6           0       -3.421549   -1.649742    3.990806
     12          6           0       -1.919313   -2.640562    0.643297
     13          6           0       -0.914224   -3.548134    1.288935
     14          6           0        0.259196   -3.849188    0.460999
     15          8           0        0.540335   -3.398739   -0.592584
     16          8           0        1.024965   -4.705598    1.128276
     17          7           0       -4.949396    2.678533    1.500040
     18          6           0       -4.013120    2.355955    2.525595
     19          6           0       -3.709688    3.621950    3.195249
     20          6           0       -4.592804    4.527835    2.537449
     21          6           0       -5.280528    3.989954    1.535372
     22          6           0       -2.704082    3.789285    4.297072
     23          6           0       -4.554078    6.068275    2.771604
     24          8           0       -3.828379    6.536841    3.617657
     25          7           0       -6.788301    2.620457   -0.687764
     26          6           0       -6.912550    3.924458   -0.403411
     27          6           0       -7.879631    4.664542   -1.221652
     28          6           0       -8.475672    3.645860   -2.043985
     29          6           0       -7.755805    2.329459   -1.666644
     30          6           0       -8.249261    6.104407   -1.157575
     31          6           0       -9.609335    3.753392   -3.048731
     32          6           0       -9.079155    4.059528   -4.519633
     33          7           0       -6.460823   -0.062420   -1.084038
     34          6           0       -7.466475    0.022108   -1.995502
     35          6           0       -7.657072   -1.261420   -2.615644
     36          6           0       -6.782133   -2.168694   -2.136540
     37          6           0       -6.090054   -1.417893   -1.132401
     38          6           0       -8.540812   -1.597156   -3.849480
     39          6           0       -6.353718   -3.538655   -1.971008
     40          8           0       -6.816969   -4.536759   -2.541909
     41          6           0       -5.122188   -3.578828   -0.856425
     42          6           0       -5.330203   -4.686832    0.123313
     43          8           0       -5.741384   -4.552920    1.297806
     44          8           0       -5.001773   -5.887113   -0.293267
     45          6           0       -5.311809   -7.001009    0.600868
     46          6           0        2.335690   -5.039710    0.642277
     47          6           0        3.469110   -4.066500    0.942007
     48          6           0        4.075231   -3.192267    0.086457
     49          6           0        3.787845   -3.146657   -1.388053
     50          6           0        5.134645   -2.489681    0.615965
     51          6           0        6.516392   -2.746131   -0.103232
     52          6           0        7.625890   -1.937399    0.484069
     53          6           0        9.086724   -2.095509   -0.084763
     54          6           0        9.697037   -3.507913    0.407581
     55          6           0        9.949260   -0.942410    0.473673
     56          6           0       11.430974   -0.934445   -0.264185
     57          6           0       12.254188    0.340436    0.186535
     58          6           0       13.563626    0.505653   -0.583458
     59          6           0       14.432273   -0.704498   -0.401359
     60          6           0       14.253065    1.821321   -0.112641
     61          6           0       15.575778    2.169474   -0.880097
     62          6           0       16.137713    3.543346   -0.602529
     63          6           0       17.469998    3.917382   -1.373194
     64          6           0       17.294461    3.925680   -2.882349
     65          6           0       17.983105    5.304245   -0.807661
     66          1           0       -2.853332    1.118434    3.719639
     67          1           0       -6.433001    5.523536    0.863954
     68          1           0       -8.831404    1.007361   -3.073073
     69          1           0       -3.820088   -3.273062    2.079456
     70          1           0       -1.721583   -1.027520    2.788258
     71          1           0       -2.979242   -2.598009    4.368389
     72          1           0       -3.118863   -0.677716    4.690614
     73          1           0       -4.593502   -1.848919    3.976717
     74          1           0       -2.234016   -3.036011   -0.428024
     75          1           0       -1.409696   -1.593714    0.359841
     76          1           0       -0.583430   -3.218203    2.452168
     77          1           0       -1.389103   -4.647720    1.538617
     78          1           0       -1.574710    3.570542    3.924356
     79          1           0       -2.763667    4.829076    4.547952
     80          1           0       -3.027419    3.141226    5.101010
     81          1           0       -5.206495    6.696720    2.404965
     82          1           0      -10.219958    2.784614   -2.950030
     83          1           0      -10.298445    4.440656   -2.743606
     84          1           0      -10.028497    4.111548   -5.068713
     85          1           0       -8.575402    5.102985   -4.678694
     86          1           0       -8.467139    3.342086   -5.022278
     87          1           0       -8.315461   -1.000663   -4.529980
     88          1           0       -8.281257   -2.594891   -4.304493
     89          1           0       -9.626676   -1.538118   -3.480140
     90          1           0       -4.307924   -3.911501   -1.445217
     91          1           0        2.456920   -6.091677    0.766596
     92          1           0        2.399249   -5.078817   -0.445401
     93          1           0        3.724845   -4.104959    1.908671
     94          1           0        2.746494   -3.456498   -1.601101
     95          1           0        3.836850   -2.147349   -1.787140
     96          1           0        4.518233   -3.776736   -1.993457
     97          1           0        5.037250   -1.404566    0.132176
     98          1           0        5.173533   -2.419430    1.669277
     99          1           0        6.701279   -3.814110    0.174792
    100          1           0        6.312300   -2.754708   -1.132949
    101          1           0        7.493779   -0.951799    0.526669
    102          1           0        7.583148   -2.031782    1.509665
    103          1           0        8.974148   -2.008450   -1.135288
    104          1           0        8.939399   -4.141081   -0.083889
    105          1           0       10.493525   -3.696902   -0.327486
    106          1           0        9.906339   -3.715356    1.492611
    107          1           0        9.608092    0.105160    0.202248
    108          1           0       10.047070   -0.943833    1.543946
    109          1           0       11.938534   -1.864605    0.143569
    110          1           0       11.176262   -0.830133   -1.300925
    111          1           0       11.653618    1.445648    0.001469
    112          1           0       12.397356    0.155415    1.353404
    113          1           0       13.318106    0.706977   -1.667374
    114          1           0       14.718077   -0.846562    0.579181
    115          1           0       14.098405   -1.522020   -0.829034
    116          1           0       15.403315   -0.504712   -0.992979
    117          1           0       13.636806    2.529170   -0.287582
    118          1           0       14.592071    1.546689    1.086569
    119          1           0       16.429849    1.446153   -0.761853
    120          1           0       15.378916    2.090213   -1.964453
    121          1           0       15.588526    4.439030   -0.805257
    122          1           0       16.281651    3.656724    0.509648
    123          1           0       18.215114    3.239550   -1.078141
    124          1           0       16.380227    4.595053   -3.279835
    125          1           0       18.150860    4.431001   -3.233291
    126          1           0       17.224644    2.860702   -3.354476
    127          1           0       18.232973    5.281894    0.309868
    128          1           0       19.019482    5.396013   -1.438820
    129          1           0       17.419414    6.096535   -1.088491
    130          1           0       -4.997409   -7.961610    0.018420
    131          1           0       -6.299796   -6.987994    0.878607
    132          1           0       -4.742093   -6.717556    1.375482
    133          8           0       -7.833571    6.933191   -0.387926
    134          1           0       -8.935604    6.380723   -1.839773
 ---------------------------------------------------------------------

 SCF Done:  E(RCAM-B3LYP) =  -3043.43521303     A.U. after   16 cycles

 Excitation energies and oscillator strengths:

 Excited State   1:      Singlet-A      2.0084 eV  617.34 nm  f=0.2033  <S**2>=0.000
     243 -> 246        0.24160
     244 -> 245        0.64600
 This state for optimization and/or second-order correction.
 Total Energy, E(TD-HF/TD-KS) =  -3043.36140739
 Copying the excited state density for this state as the 1-particle RhoCI density.

 The electronic state is 1-A.
 Alpha  occ. eigenvalues --  -46.80807 -19.22537 -19.21269 -19.17681 -19.17442
 Alpha  occ. eigenvalues --  -19.16671 -19.16231 -19.15733 -14.39383 -14.37214
 Alpha  occ. eigenvalues --  -14.36741 -14.35240 -10.34823 -10.33970 -10.32621
 Alpha  occ. eigenvalues --  -10.29983 -10.28643 -10.27784 -10.27493 -10.26811
 Alpha  occ. eigenvalues --  -10.26697 -10.26559 -10.26380 -10.26250 -10.26154
 Alpha  occ. eigenvalues --  -10.25954 -10.25566 -10.25507 -10.25496 -10.25330
 Alpha  occ. eigenvalues --  -10.25181 -10.25100 -10.24841 -10.24728 -10.24594
 Alpha  occ. eigenvalues --  -10.24424 -10.23814 -10.23785 -10.23642 -10.23420
 Alpha  occ. eigenvalues --  -10.23415 -10.23034 -10.22879 -10.22636 -10.22311
 Alpha  occ. eigenvalues --  -10.22276 -10.22100 -10.21900 -10.21767 -10.21705
 Alpha  occ. eigenvalues --  -10.21495 -10.21329 -10.21328 -10.21248 -10.21244
 Alpha  occ. eigenvalues --  -10.21168 -10.21067 -10.20988 -10.20912 -10.20875
 Alpha  occ. eigenvalues --  -10.20870 -10.20727 -10.20255 -10.19839 -10.18733
 Alpha  occ. eigenvalues --  -10.18314  -3.09490  -1.84424  -1.83975  -1.83890
 Alpha  occ. eigenvalues --   -1.14126  -1.14071  -1.07828  -1.06629  -1.06138
 Alpha  occ. eigenvalues --   -1.05518  -1.02209  -1.01299  -1.00223  -0.98982
 Alpha  occ. eigenvalues --   -0.97864  -0.88747  -0.87432  -0.85318  -0.85053
 Alpha  occ. eigenvalues --   -0.84745  -0.84278  -0.83906  -0.83698  -0.83407
 Alpha  occ. eigenvalues --   -0.82757  -0.82181  -0.80904  -0.80398  -0.79470
 Alpha  occ. eigenvalues --   -0.78623  -0.78471  -0.77730  -0.77398  -0.76550
 Alpha  occ. eigenvalues --   -0.74963  -0.74580  -0.74091  -0.73244  -0.72294
 Alpha  occ. eigenvalues --   -0.71830  -0.71119  -0.70236  -0.70186  -0.69768
 Alpha  occ. eigenvalues --   -0.69225  -0.68688  -0.67628  -0.67413  -0.65981
 Alpha  occ. eigenvalues --   -0.65526  -0.64854  -0.64231  -0.62941  -0.62153
 Alpha  occ. eigenvalues --   -0.61609  -0.60638  -0.60291  -0.59471  -0.59361
 Alpha  occ. eigenvalues --   -0.58724  -0.58617  -0.58199  -0.57153  -0.57027
 Alpha  occ. eigenvalues --   -0.56443  -0.56059  -0.55514  -0.55164  -0.54871
 Alpha  occ. eigenvalues --   -0.54254  -0.53493  -0.52908  -0.52426  -0.52224
 Alpha  occ. eigenvalues --   -0.52039  -0.51770  -0.51038  -0.50862  -0.50697
 Alpha  occ. eigenvalues --   -0.50522  -0.50195  -0.49486  -0.49281  -0.49099
 Alpha  occ. eigenvalues --   -0.48903  -0.48734  -0.48415  -0.47947  -0.47748
 Alpha  occ. eigenvalues --   -0.47218  -0.47087  -0.46907  -0.46884  -0.46535
 Alpha  occ. eigenvalues --   -0.46435  -0.46358  -0.46124  -0.45995  -0.45704
 Alpha  occ. eigenvalues --   -0.45331  -0.45208  -0.45069  -0.44843  -0.44733
 Alpha  occ. eigenvalues --   -0.44469  -0.44388  -0.44250  -0.44066  -0.43938
 Alpha  occ. eigenvalues --   -0.43432  -0.43301  -0.43164  -0.42965  -0.42837
 Alpha  occ. eigenvalues --   -0.42639  -0.42518  -0.42154  -0.42103  -0.41960
 Alpha  occ. eigenvalues --   -0.41789  -0.41510  -0.41420  -0.41390  -0.41011
 Alpha  occ. eigenvalues --   -0.40813  -0.40561  -0.40276  -0.40201  -0.40105
 Alpha  occ. eigenvalues --   -0.40085  -0.40033  -0.39687  -0.39575  -0.39042
 Alpha  occ. eigenvalues --   -0.38766  -0.38438  -0.38297  -0.38178  -0.37956
 Alpha  occ. eigenvalues --   -0.37814  -0.37590  -0.37501  -0.37032  -0.36856
 Alpha  occ. eigenvalues --   -0.36587  -0.36164  -0.36018  -0.35842  -0.35647
 Alpha  occ. eigenvalues --   -0.35449  -0.35322  -0.34615  -0.34601  -0.34374
 Alpha  occ. eigenvalues --   -0.34329  -0.33901  -0.33527  -0.33356  -0.32651
 Alpha  occ. eigenvalues --   -0.32488  -0.32296  -0.32094  -0.31580  -0.31354
 Alpha  occ. eigenvalues --   -0.30901  -0.30523  -0.30018  -0.29791  -0.29336
 Alpha  occ. eigenvalues --   -0.29157  -0.28528  -0.28416  -0.28185  -0.26722
 Alpha  occ. eigenvalues --   -0.26123  -0.26073  -0.22901  -0.21315
 Alpha virt. eigenvalues --   -0.08652  -0.06037  -0.02339   0.00033   0.00705
 Alpha virt. eigenvalues --    0.02750   0.02939   0.03837   0.04023   0.04188
 Alpha virt. eigenvalues --    0.04850   0.05658   0.08020   0.08101   0.09413

 Mulliken charges:
               1
     1  Mg   0.830338
     2  C    0.116348
     3  C   -0.113909
     4  C   -0.141384
     5  C   -0.163118
     6  N   -0.607862
     7  C    0.268004
     8  C   -0.173008
     9  C   -0.128123
    10  C    0.349923
    11  C   -0.286034
    12  C   -0.164493
    13  C   -0.256247
    14  C    0.619870
    15  O   -0.452836
    16  O   -0.461197
    17  N   -0.743729
    18  C    0.298312
    19  C    0.036056
    20  C   -0.132013
    21  C    0.376499
    22  C   -0.383308
    23  C    0.273287
    24  O   -0.411077
    25  N   -0.700862
    26  C    0.327523
    27  C   -0.025656
    28  C   -0.001759
    29  C    0.297591
    30  C    0.276304
    31  C   -0.243595
    32  C   -0.321170
    33  N   -0.741195
    34  C    0.326558
    35  C   -0.089965
    36  C    0.132987
    37  C    0.207956
    38  C   -0.359462
    39  C    0.343414
    40  O   -0.459778
    41  C   -0.324254
    42  C    0.621680
    43  O   -0.518108
    44  O   -0.443653
    45  C   -0.071377
    46  C   -0.006003
    47  C   -0.152125
    48  C    0.195134
    49  C   -0.398330
    50  C   -0.239197
    51  C   -0.186112
    52  C   -0.161247
    53  C   -0.063711
    54  C   -0.321653
    55  C   -0.189003
    56  C   -0.190003
    57  C   -0.144938
    58  C   -0.063268
    59  C   -0.300849
    60  C   -0.119159
    61  C   -0.187925
    62  C   -0.158998
    63  C   -0.063560
    64  C   -0.298007
    65  C   -0.314139
    66  H    0.075119
    67  H    0.097003
    68  H    0.097147
    69  H    0.117917
    70  H    0.083089
    71  H    0.112678
    72  H    0.083299
    73  H    0.114217
    74  H    0.104262
    75  H    0.109420
    76  H    0.118407
    77  H    0.119210
    78  H    0.107216
    79  H    0.166703
    80  H    0.124846
    81  H    0.087546
    82  H    0.107745
    83  H    0.127365
    84  H    0.114945
    85  H    0.110155
    86  H    0.129431
    87  H    0.136799
    88  H    0.137343
    89  H    0.116274
    90  H    0.164326
    91  H    0.113441
    92  H    0.106476
    93  H    0.073729
    94  H    0.152222
    95  H    0.114572
    96  H    0.113634
    97  H    0.077439
    98  H    0.101462
    99  H    0.092115
   100  H    0.100681
   101  H    0.091964
   102  H    0.089533
   103  H    0.089483
   104  H    0.102703
   105  H    0.104465
   106  H    0.111362
   107  H    0.080357
   108  H    0.092215
   109  H    0.104380
   110  H    0.098010
   111  H    0.044696
   112  H    0.071757
   113  H    0.073788
   114  H    0.107295
   115  H    0.114183
   116  H    0.079476
   117  H    0.095262
   118  H    0.049963
   119  H    0.089565
   120  H    0.085582
   121  H    0.085149
   122  H    0.073468
   123  H    0.094838
   124  H    0.081108
   125  H    0.107810
   126  H    0.097174
   127  H    0.102049
   128  H    0.068051
   129  H    0.119416
   130  H    0.121905
   131  H    0.149042
   132  H    0.140775
   133  O   -0.413131
   134  H    0.067689
 Sum of Mulliken charges =   0.00000

 Dipole moment (field-independent basis, Debye):
    X=              1.1237    Y=             -4.0790    Z=             -2.2351  Tot=              4.7850
 Quadrupole moment (field-independent basis, Debye-Ang):
   XX=           -367.4231   YY=           -431.5293   ZZ=           -390.0110
   XY=             -6.3396   XZ=             23.4641   YZ=            -34.1029

 Normal termination of Gaussian 09 at Mon Oct  7 19:03:18 2019.
