 Gaussian 09, Revision D.01,
 Gaussian 09:  ES64L-G09RevD.01 24-Apr-2013

 ----------------------------------------------------------------------
 # td=(NStates=1) iop(3/107=0140000000,3/108=0140000000) iop(3/107=0140
 000000,3/108=0140000000) CAM-B3LYP/6-31G(d,p)
 ----------------------------------------------------------------------

 --
 TD
 --
 Symbolic Z-matrix:
 Charge =  0 Multiplicity = 1

                         Standard orientation:
 ---------------------------------------------------------------------
 Center     Atomic      Atomic             Coordinates (Angstroms)
 Number     Number       Type             X           Y           Z
 ---------------------------------------------------------------------
      1         12           0       -5.590714    1.188504    0.185348
      2          6           0       -5.051848   -2.157389   -0.320745
      3          6           0       -3.369093    1.213164    2.788052
      4          6           0       -6.144444    4.518159    0.637620
      5          6           0       -7.934035    1.132320   -2.414441
      6          7           0       -4.315255   -0.220902    1.016996
      7          6           0       -4.246816   -1.605262    0.672878
      8          6           0       -3.268889   -2.299074    1.434261
      9          6           0       -2.897864   -1.237268    2.599787
     10          6           0       -3.574654   -0.034867    2.210530
     11          6           0       -3.438768   -1.728055    3.985130
     12          6           0       -2.031457   -2.702768    0.662886
     13          6           0       -1.066873   -3.596857    1.357377
     14          6           0        0.212463   -3.867177    0.598607
     15          8           0        0.376810   -3.524332   -0.540958
     16          8           0        1.071014   -4.708758    1.241600
     17          7           0       -4.969152    2.609302    1.591107
     18          6           0       -4.006311    2.454146    2.451548
     19          6           0       -3.576681    3.783425    3.104580
     20          6           0       -4.526892    4.725342    2.478671
     21          6           0       -5.219633    3.965549    1.429744
     22          6           0       -2.684303    3.971178    4.234487
     23          6           0       -4.529583    6.067281    2.805992
     24          8           0       -4.056991    6.642424    3.797688
     25          7           0       -6.924978    2.662670   -0.738402
     26          6           0       -7.043979    3.929868   -0.363683
     27          6           0       -8.067105    4.561742   -1.142390
     28          6           0       -8.489354    3.623236   -2.017268
     29          6           0       -7.826769    2.398495   -1.762496
     30          6           0       -8.415565    6.010171   -1.238504
     31          6           0       -9.622110    3.642484   -3.094513
     32          6           0       -9.150085    3.963572   -4.465990
     33          7           0       -6.316869   -0.162940   -1.064311
     34          6           0       -7.296296   -0.022409   -2.108469
     35          6           0       -7.553882   -1.303700   -2.776909
     36          6           0       -6.687668   -2.193026   -2.075077
     37          6           0       -5.944777   -1.434103   -1.105086
     38          6           0       -8.508936   -1.703249   -3.729688
     39          6           0       -6.233076   -3.582670   -1.968979
     40          8           0       -6.524614   -4.664279   -2.509735
     41          6           0       -5.032840   -3.609707   -0.880536
     42          6           0       -5.301169   -4.707647    0.178700
     43          8           0       -5.828918   -4.381221    1.266386
     44          8           0       -4.897604   -5.837674   -0.267481
     45          6           0       -5.365159   -7.037071    0.517613
     46          6           0        2.337195   -5.045943    0.569557
     47          6           0        3.471778   -4.117566    1.103696
     48          6           0        4.009679   -3.287969    0.188989
     49          6           0        3.635658   -2.984708   -1.181281
     50          6           0        5.086346   -2.398924    0.733629
     51          6           0        6.460607   -2.755223    0.064614
     52          6           0        7.633575   -1.855002    0.658968
     53          6           0        9.060003   -1.980280    0.022236
     54          6           0        9.480049   -3.432101    0.211899
     55          6           0        9.995097   -0.853787    0.484562
     56          6           0       11.311985   -0.858661   -0.371546
     57          6           0       12.239781    0.322112    0.036608
     58          6           0       13.683266    0.384405   -0.662529
     59          6           0       14.569744   -0.766692   -0.339019
     60          6           0       14.323321    1.772063   -0.174420
     61          6           0       15.622505    2.274647   -1.048486
     62          6           0       16.128721    3.482630   -0.652393
     63          6           0       17.349148    3.846330   -1.420544
     64          6           0       17.345870    3.884536   -2.860581
     65          6           0       17.902401    5.266601   -0.759836
     66          1           0       -2.690802    1.384825    3.719586
     67          1           0       -6.392350    5.598560    0.831399
     68          1           0       -8.731553    1.068980   -3.156255
     69          1           0       -3.840686   -3.144053    1.684564
     70          1           0       -1.655252   -1.161112    2.654919
     71          1           0       -3.147944   -2.808897    4.347362
     72          1           0       -3.502273   -0.943813    4.688830
     73          1           0       -4.504604   -1.976894    3.997376
     74          1           0       -2.343192   -3.233543   -0.112706
     75          1           0       -1.520111   -1.729677    0.539113
     76          1           0       -0.759456   -3.394036    2.411618
     77          1           0       -1.392867   -4.660491    1.621501
     78          1           0       -1.555806    3.711414    3.865331
     79          1           0       -2.467941    4.954538    4.540506
     80          1           0       -2.866664    3.421705    5.160513
     81          1           0       -5.141287    6.881365    2.297662
     82          1           0      -10.217400    2.703492   -3.029795
     83          1           0      -10.249783    4.536378   -2.973959
     84          1           0       -9.960751    4.554606   -5.025201
     85          1           0       -8.523995    4.849580   -4.304898
     86          1           0       -8.600912    3.019206   -5.054492
     87          1           0       -8.563529   -1.026225   -4.762702
     88          1           0       -8.704571   -2.816034   -3.863356
     89          1           0       -9.428159   -1.431009   -3.312868
     90          1           0       -4.033207   -3.868980   -1.480312
     91          1           0        2.450342   -6.038512    0.873528
     92          1           0        2.497939   -4.815727   -0.557896
     93          1           0        3.822184   -4.428850    2.002002
     94          1           0        2.684851   -3.215980   -1.293520
     95          1           0        3.595984   -1.931739   -1.238484
     96          1           0        4.164924   -3.350968   -2.070122
     97          1           0        4.810600   -1.243462    0.643533
     98          1           0        5.093554   -2.540587    1.729105
     99          1           0        6.561110   -3.848009   -0.013934
    100          1           0        6.431879   -2.426688   -1.010243
    101          1           0        7.266690   -0.910438    0.545123
    102          1           0        7.609670   -1.995571    1.765551
    103          1           0        8.958331   -2.002833   -1.149458
    104          1           0        8.813352   -4.226285   -0.187368
    105          1           0       10.536088   -3.658301   -0.347307
    106          1           0        9.605897   -3.671371    1.161413
    107          1           0        9.392948    0.216125    0.209538
    108          1           0       10.348617   -0.889951    1.548066
    109          1           0       11.912018   -1.705165   -0.265933
    110          1           0       11.069691   -0.737873   -1.456623
    111          1           0       11.838007    1.273008   -0.091557
    112          1           0       12.750260    0.335206    1.037187
    113          1           0       13.405923    0.653203   -1.685407
    114          1           0       14.883627   -1.091414    0.752195
    115          1           0       14.330614   -1.709329   -0.757853
    116          1           0       15.716471   -0.492271   -0.791130
    117          1           0       13.844627    2.619810   -0.161065
    118          1           0       14.804910    1.839245    0.781833
    119          1           0       16.564305    1.561077   -0.916141
    120          1           0       15.289652    2.100472   -2.034771
    121          1           0       15.497459    4.469488   -1.009287
    122          1           0       16.161195    3.639440    0.489859
    123          1           0       18.103155    3.136244   -0.888952
    124          1           0       16.629324    4.472032   -3.199893
    125          1           0       18.312265    4.110699   -3.178428
    126          1           0       17.228101    2.975357   -3.396137
    127          1           0       18.052444    5.202983    0.315423
    128          1           0       18.734047    5.463339   -1.352841
    129          1           0       17.192702    6.022630   -0.934820
    130          1           0       -4.631758   -7.862093    0.006077
    131          1           0       -6.621084   -7.236076    0.254558
    132          1           0       -5.098013   -6.836757    1.624586
    133          8           0       -7.957805    6.882561   -0.532451
    134          1           0       -9.016262    6.331468   -2.263299
 ---------------------------------------------------------------------

 SCF Done:  E(RCAM-B3LYP) =  -3043.40417287     A.U. after   15 cycles

 Excitation energies and oscillator strengths:

 Excited State   1:      Singlet-A      2.1247 eV  583.52 nm  f=0.1389  <S**2>=0.000
     243 -> 245       -0.11251
     243 -> 246       -0.29980
     244 -> 245        0.61459
 This state for optimization and/or second-order correction.
 Total Energy, E(TD-HF/TD-KS) =  -3043.32608975
 Copying the excited state density for this state as the 1-particle RhoCI density.

 The electronic state is 1-A.
 Alpha  occ. eigenvalues --  -46.81949 -19.24849 -19.21587 -19.17476 -19.16885
 Alpha  occ. eigenvalues --  -19.16836 -19.16494 -19.15479 -14.38551 -14.37706
 Alpha  occ. eigenvalues --  -14.36968 -14.36626 -10.35463 -10.34408 -10.32346
 Alpha  occ. eigenvalues --  -10.31796 -10.31449 -10.28991 -10.27936 -10.27856
 Alpha  occ. eigenvalues --  -10.27281 -10.26871 -10.26710 -10.26614 -10.26591
 Alpha  occ. eigenvalues --  -10.26482 -10.26163 -10.26011 -10.25963 -10.25423
 Alpha  occ. eigenvalues --  -10.25240 -10.24970 -10.24193 -10.24125 -10.24042
 Alpha  occ. eigenvalues --  -10.24013 -10.23429 -10.23400 -10.23280 -10.23209
 Alpha  occ. eigenvalues --  -10.23164 -10.23151 -10.23094 -10.22839 -10.22839
 Alpha  occ. eigenvalues --  -10.22792 -10.22734 -10.22559 -10.22522 -10.22368
 Alpha  occ. eigenvalues --  -10.22323 -10.22168 -10.21799 -10.21462 -10.20980
 Alpha  occ. eigenvalues --  -10.20933 -10.20859 -10.20674 -10.20534 -10.20058
 Alpha  occ. eigenvalues --  -10.19954 -10.19825 -10.19239 -10.19219 -10.18882
 Alpha  occ. eigenvalues --  -10.18233  -3.10430  -1.85377  -1.84890  -1.84844
 Alpha  occ. eigenvalues --   -1.15332  -1.12373  -1.07159  -1.05247  -1.04600
 Alpha  occ. eigenvalues --   -1.04157  -1.03821  -1.00960  -1.00151  -0.99621
 Alpha  occ. eigenvalues --   -0.98063  -0.87858  -0.86817  -0.86365  -0.86251
 Alpha  occ. eigenvalues --   -0.85590  -0.84990  -0.84229  -0.84107  -0.83528
 Alpha  occ. eigenvalues --   -0.83250  -0.82817  -0.81650  -0.80559  -0.79502
 Alpha  occ. eigenvalues --   -0.79044  -0.78464  -0.78058  -0.77212  -0.76935
 Alpha  occ. eigenvalues --   -0.75953  -0.75772  -0.75174  -0.73453  -0.72515
 Alpha  occ. eigenvalues --   -0.72438  -0.71755  -0.70693  -0.70212  -0.69609
 Alpha  occ. eigenvalues --   -0.69329  -0.68726  -0.67324  -0.66613  -0.66472
 Alpha  occ. eigenvalues --   -0.64768  -0.64414  -0.63718  -0.62465  -0.62287
 Alpha  occ. eigenvalues --   -0.61557  -0.61214  -0.60340  -0.59149  -0.58744
 Alpha  occ. eigenvalues --   -0.58504  -0.57740  -0.57563  -0.57248  -0.57049
 Alpha  occ. eigenvalues --   -0.56706  -0.56527  -0.55571  -0.55146  -0.54620
 Alpha  occ. eigenvalues --   -0.53996  -0.53356  -0.52857  -0.52669  -0.52367
 Alpha  occ. eigenvalues --   -0.51838  -0.51772  -0.51271  -0.50905  -0.50528
 Alpha  occ. eigenvalues --   -0.50470  -0.50212  -0.49619  -0.49544  -0.48965
 Alpha  occ. eigenvalues --   -0.48711  -0.48335  -0.48057  -0.48000  -0.47690
 Alpha  occ. eigenvalues --   -0.47516  -0.47429  -0.47201  -0.47034  -0.46861
 Alpha  occ. eigenvalues --   -0.46717  -0.46369  -0.46128  -0.46001  -0.45770
 Alpha  occ. eigenvalues --   -0.45616  -0.45479  -0.45430  -0.45188  -0.44670
 Alpha  occ. eigenvalues --   -0.44452  -0.44402  -0.44314  -0.44116  -0.44027
 Alpha  occ. eigenvalues --   -0.43763  -0.43375  -0.43279  -0.42972  -0.42877
 Alpha  occ. eigenvalues --   -0.42619  -0.42505  -0.42472  -0.42369  -0.42111
 Alpha  occ. eigenvalues --   -0.41675  -0.41536  -0.41454  -0.41144  -0.40954
 Alpha  occ. eigenvalues --   -0.40886  -0.40674  -0.40569  -0.40383  -0.40108
 Alpha  occ. eigenvalues --   -0.40076  -0.39755  -0.39566  -0.39418  -0.39334
 Alpha  occ. eigenvalues --   -0.39086  -0.38941  -0.38492  -0.38423  -0.38094
 Alpha  occ. eigenvalues --   -0.38031  -0.37808  -0.37683  -0.37577  -0.37351
 Alpha  occ. eigenvalues --   -0.36874  -0.36548  -0.36099  -0.36032  -0.35611
 Alpha  occ. eigenvalues --   -0.35367  -0.35346  -0.34873  -0.34822  -0.34678
 Alpha  occ. eigenvalues --   -0.34226  -0.33983  -0.33899  -0.33541  -0.33079
 Alpha  occ. eigenvalues --   -0.32771  -0.32193  -0.31693  -0.31495  -0.30926
 Alpha  occ. eigenvalues --   -0.30268  -0.30256  -0.30150  -0.29361  -0.28749
 Alpha  occ. eigenvalues --   -0.28688  -0.28159  -0.27888  -0.27588  -0.27397
 Alpha  occ. eigenvalues --   -0.27331  -0.25975  -0.23036  -0.22037
 Alpha virt. eigenvalues --   -0.08295  -0.06782  -0.02100  -0.00784   0.00352
 Alpha virt. eigenvalues --    0.02834   0.03120   0.03333   0.04120   0.04359
 Alpha virt. eigenvalues --    0.04672   0.05566   0.07072   0.08288   0.08928

 Mulliken charges:
               1
     1  Mg   0.830392
     2  C    0.094791
     3  C   -0.201036
     4  C   -0.179267
     5  C   -0.157303
     6  N   -0.662896
     7  C    0.315778
     8  C   -0.164052
     9  C   -0.164014
    10  C    0.374398
    11  C   -0.328427
    12  C   -0.123865
    13  C   -0.294842
    14  C    0.607405
    15  O   -0.459365
    16  O   -0.482893
    17  N   -0.678653
    18  C    0.331940
    19  C    0.053447
    20  C    0.030101
    21  C    0.321297
    22  C   -0.401180
    23  C    0.179326
    24  O   -0.438802
    25  N   -0.680858
    26  C    0.298630
    27  C   -0.040292
    28  C    0.033740
    29  C    0.266297
    30  C    0.247451
    31  C   -0.232491
    32  C   -0.300170
    33  N   -0.756892
    34  C    0.270167
    35  C    0.103946
    36  C    0.020555
    37  C    0.312707
    38  C   -0.424561
    39  C    0.350833
    40  O   -0.485328
    41  C   -0.325761
    42  C    0.629436
    43  O   -0.505241
    44  O   -0.406514
    45  C   -0.093885
    46  C   -0.007416
    47  C   -0.119225
    48  C    0.109965
    49  C   -0.380254
    50  C   -0.218073
    51  C   -0.192763
    52  C   -0.169640
    53  C   -0.045493
    54  C   -0.306680
    55  C   -0.155703
    56  C   -0.180543
    57  C   -0.180380
    58  C   -0.069695
    59  C   -0.304846
    60  C   -0.202114
    61  C   -0.167620
    62  C   -0.134911
    63  C   -0.066956
    64  C   -0.305961
    65  C   -0.327507
    66  H    0.086973
    67  H    0.134256
    68  H    0.086975
    69  H    0.129966
    70  H    0.096900
    71  H    0.103284
    72  H    0.118629
    73  H    0.129392
    74  H    0.117069
    75  H    0.119872
    76  H    0.129062
    77  H    0.130587
    78  H    0.099731
    79  H    0.169967
    80  H    0.141543
    81  H    0.072403
    82  H    0.107587
    83  H    0.107510
    84  H    0.102566
    85  H    0.116678
    86  H    0.087519
    87  H    0.112945
    88  H    0.157019
    89  H    0.152033
    90  H    0.143003
    91  H    0.107705
    92  H    0.124126
    93  H    0.090152
    94  H    0.153797
    95  H    0.121067
    96  H    0.126110
    97  H    0.075993
    98  H    0.103801
    99  H    0.096692
   100  H    0.092439
   101  H    0.097500
   102  H    0.082836
   103  H    0.071623
   104  H    0.103635
   105  H    0.065456
   106  H    0.114486
   107  H    0.067455
   108  H    0.100406
   109  H    0.107604
   110  H    0.089149
   111  H    0.092865
   112  H    0.086083
   113  H    0.093683
   114  H    0.098923
   115  H    0.114280
   116  H    0.074314
   117  H    0.103395
   118  H    0.088720
   119  H    0.061500
   120  H    0.100087
   121  H    0.038389
   122  H    0.083464
   123  H    0.065471
   124  H    0.114371
   125  H    0.112069
   126  H    0.107884
   127  H    0.101856
   128  H    0.100621
   129  H    0.102541
   130  H    0.131213
   131  H    0.136672
   132  H    0.153626
   133  O   -0.405715
   134  H    0.039955
 Sum of Mulliken charges =   0.00000

 Dipole moment (field-independent basis, Debye):
    X=              1.8882    Y=             -6.5409    Z=             -1.1149  Tot=              6.8986
 Quadrupole moment (field-independent basis, Debye-Ang):
   XX=           -380.4357   YY=           -434.4899   ZZ=           -393.6224
   XY=             21.2527   XZ=             18.5480   YZ=            -34.7634

 Normal termination of Gaussian 09 at Wed Oct  9 09:15:08 2019.
