 Gaussian 09, Revision D.01,
 Gaussian 09:  ES64L-G09RevD.01 24-Apr-2013

 ----------------------------------------------------------------------
 # td=(NStates=1) iop(3/107=0140000000,3/108=0140000000) iop(3/107=0140
 000000,3/108=0140000000) CAM-B3LYP/6-31G(d,p)
 ----------------------------------------------------------------------

 --
 TD
 --
 Symbolic Z-matrix:
 Charge =  0 Multiplicity = 1

                         Standard orientation:
 ---------------------------------------------------------------------
 Center     Atomic      Atomic             Coordinates (Angstroms)
 Number     Number       Type             X           Y           Z
 ---------------------------------------------------------------------
      1         12           0       -5.551672    1.215618    0.181793
      2          6           0       -5.104807   -2.122329   -0.356926
      3          6           0       -3.296738    1.168674    2.783133
      4          6           0       -6.074995    4.678940    0.619517
      5          6           0       -8.018824    1.214527   -2.367201
      6          7           0       -4.262609   -0.214054    0.980519
      7          6           0       -4.306622   -1.602663    0.624594
      8          6           0       -3.219086   -2.308232    1.520254
      9          6           0       -2.896753   -1.377612    2.610418
     10          6           0       -3.551446   -0.061280    2.149862
     11          6           0       -3.614649   -1.845421    3.963316
     12          6           0       -2.005959   -2.710872    0.736569
     13          6           0       -0.986164   -3.556261    1.464774
     14          6           0        0.117628   -3.926280    0.509226
     15          8           0        0.455495   -3.515502   -0.572144
     16          8           0        0.951781   -4.697087    1.234143
     17          7           0       -4.884794    2.640726    1.461383
     18          6           0       -3.967907    2.352340    2.480095
     19          6           0       -3.660632    3.661949    3.165128
     20          6           0       -4.376627    4.582975    2.533681
     21          6           0       -5.093332    3.937911    1.397852
     22          6           0       -2.600551    3.841657    4.315361
     23          6           0       -4.506238    5.990525    2.862545
     24          8           0       -3.844128    6.556703    3.824403
     25          7           0       -6.846970    2.610774   -0.680980
     26          6           0       -6.859257    4.005287   -0.354641
     27          6           0       -7.785691    4.689958   -1.206795
     28          6           0       -8.387534    3.650423   -1.991371
     29          6           0       -7.696729    2.441450   -1.686842
     30          6           0       -8.234458    6.075047   -1.140633
     31          6           0       -9.315928    3.893620   -3.113479
     32          6           0       -8.741660    4.190034   -4.482956
     33          7           0       -6.412945   -0.181321   -1.118570
     34          6           0       -7.389414   -0.050388   -2.028608
     35          6           0       -7.611793   -1.331079   -2.685139
     36          6           0       -6.725609   -2.167429   -2.058855
     37          6           0       -6.071241   -1.413831   -1.153638
     38          6           0       -8.728005   -1.515681   -3.790300
     39          6           0       -6.201385   -3.563779   -2.033873
     40          8           0       -6.669126   -4.562234   -2.636670
     41          6           0       -5.245346   -3.539480   -0.870016
     42          6           0       -5.467978   -4.676591    0.098639
     43          8           0       -5.749069   -4.450619    1.323187
     44          8           0       -5.151016   -5.901743   -0.374916
     45          6           0       -5.456999   -6.934622    0.565117
     46          6           0        2.268596   -5.092721    0.625106
     47          6           0        3.311844   -4.034027    0.936157
     48          6           0        4.033139   -3.243738    0.070252
     49          6           0        3.748765   -3.075238   -1.364674
     50          6           0        5.128333   -2.379313    0.679908
     51          6           0        6.542946   -2.659782    0.045278
     52          6           0        7.639269   -1.731012    0.690895
     53          6           0        8.927588   -2.023991   -0.054965
     54          6           0        9.561336   -3.420149    0.140500
     55          6           0        9.990637   -0.938113    0.468686
     56          6           0       11.349170   -0.817642   -0.322253
     57          6           0       12.199067    0.377463    0.090685
     58          6           0       13.516066    0.440263   -0.622727
     59          6           0       14.406833   -0.909169   -0.550198
     60          6           0       14.264063    1.682550   -0.129105
     61          6           0       15.561847    2.019429   -0.967171
     62          6           0       16.083740    3.331089   -0.537675
     63          6           0       17.294817    3.886922   -1.341660
     64          6           0       17.095781    4.021458   -2.856720
     65          6           0       17.812076    5.183228   -0.719494
     66          1           0       -2.657164    1.167514    3.732722
     67          1           0       -6.172409    5.849593    0.768308
     68          1           0       -8.608935    1.205432   -3.239500
     69          1           0       -3.726581   -3.300472    1.889555
     70          1           0       -1.810381   -1.237349    2.813392
     71          1           0       -3.193315   -2.793470    4.207340
     72          1           0       -3.602831   -1.088859    4.868452
     73          1           0       -4.612681   -2.251038    3.744829
     74          1           0       -2.292492   -3.487019   -0.058502
     75          1           0       -1.559703   -1.784542    0.216425
     76          1           0       -0.841473   -3.137034    2.555702
     77          1           0       -1.526061   -4.461351    1.731977
     78          1           0       -1.674868    3.459126    3.961993
     79          1           0       -2.645610    4.932898    4.595610
     80          1           0       -2.695411    3.171925    5.089245
     81          1           0       -5.376192    6.742494    2.446615
     82          1           0       -9.857344    2.898359   -3.253545
     83          1           0      -10.023721    4.561828   -2.832092
     84          1           0       -9.338019    4.207098   -5.473465
     85          1           0       -8.100427    5.165581   -4.498885
     86          1           0       -7.911139    3.448908   -4.878654
     87          1           0       -8.478256   -0.689529   -4.498004
     88          1           0       -8.601940   -2.573729   -4.111025
     89          1           0       -9.707943   -1.341837   -3.305023
     90          1           0       -4.385355   -3.944655   -1.290860
     91          1           0        2.347626   -6.109546    0.920630
     92          1           0        2.160130   -5.007771   -0.462960
     93          1           0        3.460061   -3.999128    2.061339
     94          1           0        2.805123   -3.342888   -1.689895
     95          1           0        4.258113   -2.003556   -1.614412
     96          1           0        4.377586   -3.744213   -1.974631
     97          1           0        4.669595   -1.260271    0.409576
     98          1           0        5.046233   -2.651718    1.797139
     99          1           0        6.561302   -3.729104    0.120434
    100          1           0        6.490551   -2.662866   -1.148499
    101          1           0        7.475160   -0.804815    0.732480
    102          1           0        7.730440   -1.959945    1.746887
    103          1           0        8.750920   -1.771096   -1.152851
    104          1           0        8.817670   -4.171106    0.012401
    105          1           0       10.345771   -3.591335   -0.484202
    106          1           0        9.911732   -3.405715    1.354442
    107          1           0        9.600276    0.072387    0.303690
    108          1           0       10.558165   -1.251495    1.523608
    109          1           0       11.937356   -1.778699   -0.222745
    110          1           0       11.233016   -0.760287   -1.364464
    111          1           0       11.603496    1.222051    0.082581
    112          1           0       12.312241    0.264055    1.219986
    113          1           0       13.131346    0.516489   -1.780395
    114          1           0       14.497506   -1.147048    0.486559
    115          1           0       14.043629   -1.745592   -1.182162
    116          1           0       15.354412   -0.504779   -0.959840
    117          1           0       13.703434    2.465279   -0.217976
    118          1           0       14.499087    1.686224    0.995464
    119          1           0       16.207014    1.356578   -0.693125
    120          1           0       15.351639    2.150695   -2.172297
    121          1           0       15.257028    4.026549   -0.708123
    122          1           0       16.429611    3.313146    0.528542
    123          1           0       18.154082    3.069073   -1.027718
    124          1           0       16.181020    4.644539   -3.030938
    125          1           0       18.046040    4.498521   -3.377484
    126          1           0       16.949840    3.024874   -3.421598
    127          1           0       17.840677    4.867536    0.458141
    128          1           0       18.917395    5.675114   -1.149341
    129          1           0       17.067192    5.977987   -0.809883
    130          1           0       -5.480767   -7.791808   -0.096904
    131          1           0       -6.434987   -6.816302    1.128803
    132          1           0       -4.618887   -7.052137    1.266423
    133          8           0       -7.694064    6.917882   -0.371082
    134          1           0       -8.995434    6.418785   -1.840421
 ---------------------------------------------------------------------

 SCF Done:  E(RCAM-B3LYP) =  -3043.49665374     A.U. after   16 cycles

 Excitation energies and oscillator strengths:

 Excited State   1:      Singlet-A      1.9841 eV  624.88 nm  f=0.2014  <S**2>=0.000
     243 -> 246        0.22631
     244 -> 245        0.66279
 This state for optimization and/or second-order correction.
 Total Energy, E(TD-HF/TD-KS) =  -3043.42373848
 Copying the excited state density for this state as the 1-particle RhoCI density.

 The electronic state is 1-A.
 Alpha  occ. eigenvalues --  -46.81954 -19.24489 -19.20888 -19.17532 -19.17425
 Alpha  occ. eigenvalues --  -19.17397 -19.16865 -19.16673 -14.39584 -14.37565
 Alpha  occ. eigenvalues --  -14.37054 -14.36292 -10.36507 -10.34972 -10.32027
 Alpha  occ. eigenvalues --  -10.31330 -10.30533 -10.28626 -10.28195 -10.28026
 Alpha  occ. eigenvalues --  -10.27784 -10.27110 -10.26956 -10.26774 -10.26162
 Alpha  occ. eigenvalues --  -10.25955 -10.25339 -10.25228 -10.24939 -10.24848
 Alpha  occ. eigenvalues --  -10.24846 -10.24829 -10.24565 -10.24563 -10.24530
 Alpha  occ. eigenvalues --  -10.24395 -10.24293 -10.24214 -10.23900 -10.23800
 Alpha  occ. eigenvalues --  -10.23689 -10.23581 -10.23447 -10.23313 -10.23125
 Alpha  occ. eigenvalues --  -10.23084 -10.23040 -10.22887 -10.22884 -10.22776
 Alpha  occ. eigenvalues --  -10.22759 -10.22579 -10.22123 -10.22064 -10.22004
 Alpha  occ. eigenvalues --  -10.21692 -10.21511 -10.21223 -10.21008 -10.20600
 Alpha  occ. eigenvalues --  -10.20545 -10.20306 -10.20193 -10.20118 -10.19747
 Alpha  occ. eigenvalues --  -10.19666  -3.10456  -1.85411  -1.84905  -1.84873
 Alpha  occ. eigenvalues --   -1.14282  -1.12790  -1.05275  -1.04365  -1.03880
 Alpha  occ. eigenvalues --   -1.03293  -1.03056  -1.02385  -1.00442  -0.99117
 Alpha  occ. eigenvalues --   -0.98466  -0.89861  -0.86787  -0.85820  -0.85435
 Alpha  occ. eigenvalues --   -0.85187  -0.84534  -0.84256  -0.83602  -0.83265
 Alpha  occ. eigenvalues --   -0.83071  -0.82979  -0.81951  -0.80690  -0.79599
 Alpha  occ. eigenvalues --   -0.78901  -0.78084  -0.77671  -0.77125  -0.76464
 Alpha  occ. eigenvalues --   -0.74999  -0.74949  -0.74089  -0.73867  -0.72348
 Alpha  occ. eigenvalues --   -0.72173  -0.70858  -0.70146  -0.69963  -0.69820
 Alpha  occ. eigenvalues --   -0.69618  -0.68783  -0.67638  -0.66710  -0.66209
 Alpha  occ. eigenvalues --   -0.65640  -0.64817  -0.63934  -0.62777  -0.61959
 Alpha  occ. eigenvalues --   -0.61334  -0.61218  -0.60941  -0.59613  -0.58866
 Alpha  occ. eigenvalues --   -0.58458  -0.58201  -0.57931  -0.56951  -0.56791
 Alpha  occ. eigenvalues --   -0.56557  -0.56058  -0.55310  -0.55036  -0.54980
 Alpha  occ. eigenvalues --   -0.54387  -0.54137  -0.52662  -0.52272  -0.52122
 Alpha  occ. eigenvalues --   -0.51829  -0.51669  -0.51385  -0.51240  -0.51030
 Alpha  occ. eigenvalues --   -0.50662  -0.50061  -0.49782  -0.49442  -0.49077
 Alpha  occ. eigenvalues --   -0.48894  -0.48361  -0.48333  -0.47773  -0.47695
 Alpha  occ. eigenvalues --   -0.47548  -0.47271  -0.47073  -0.46867  -0.46555
 Alpha  occ. eigenvalues --   -0.46481  -0.46210  -0.45940  -0.45765  -0.45479
 Alpha  occ. eigenvalues --   -0.45345  -0.45172  -0.45036  -0.44906  -0.44675
 Alpha  occ. eigenvalues --   -0.44564  -0.44389  -0.44073  -0.43985  -0.43799
 Alpha  occ. eigenvalues --   -0.43583  -0.43393  -0.43196  -0.43033  -0.42926
 Alpha  occ. eigenvalues --   -0.42656  -0.42608  -0.42286  -0.42086  -0.41849
 Alpha  occ. eigenvalues --   -0.41383  -0.41342  -0.40965  -0.40598  -0.40549
 Alpha  occ. eigenvalues --   -0.40450  -0.40281  -0.40232  -0.40148  -0.40037
 Alpha  occ. eigenvalues --   -0.39878  -0.39602  -0.39409  -0.39303  -0.39164
 Alpha  occ. eigenvalues --   -0.39092  -0.38887  -0.38807  -0.38566  -0.37984
 Alpha  occ. eigenvalues --   -0.37898  -0.37466  -0.37184  -0.37183  -0.36731
 Alpha  occ. eigenvalues --   -0.36610  -0.36221  -0.36131  -0.35799  -0.35774
 Alpha  occ. eigenvalues --   -0.35603  -0.34967  -0.34892  -0.34802  -0.34617
 Alpha  occ. eigenvalues --   -0.34497  -0.34395  -0.34218  -0.33810  -0.33641
 Alpha  occ. eigenvalues --   -0.32886  -0.32661  -0.32319  -0.32035  -0.31877
 Alpha  occ. eigenvalues --   -0.31305  -0.30962  -0.30834  -0.30330  -0.30130
 Alpha  occ. eigenvalues --   -0.29107  -0.28853  -0.28175  -0.27958  -0.27734
 Alpha  occ. eigenvalues --   -0.27089  -0.26449  -0.23599  -0.21413
 Alpha virt. eigenvalues --   -0.08730  -0.06965  -0.02083  -0.01491  -0.00205
 Alpha virt. eigenvalues --    0.01602   0.02060   0.03280   0.03428   0.03912
 Alpha virt. eigenvalues --    0.04866   0.04976   0.08204   0.08309   0.09283

 Mulliken charges:
               1
     1  Mg   0.827499
     2  C    0.128146
     3  C   -0.184952
     4  C   -0.170005
     5  C   -0.148753
     6  N   -0.640533
     7  C    0.262752
     8  C   -0.153245
     9  C   -0.143107
    10  C    0.351888
    11  C   -0.326603
    12  C   -0.162841
    13  C   -0.271413
    14  C    0.616145
    15  O   -0.461711
    16  O   -0.483381
    17  N   -0.711034
    18  C    0.299057
    19  C    0.038245
    20  C   -0.012678
    21  C    0.320706
    22  C   -0.382494
    23  C    0.204000
    24  O   -0.447781
    25  N   -0.701764
    26  C    0.270622
    27  C   -0.006256
    28  C   -0.007653
    29  C    0.346792
    30  C    0.234298
    31  C   -0.229554
    32  C   -0.309911
    33  N   -0.703153
    34  C    0.252217
    35  C   -0.053064
    36  C    0.048546
    37  C    0.296427
    38  C   -0.359072
    39  C    0.362464
    40  O   -0.472006
    41  C   -0.329896
    42  C    0.627143
    43  O   -0.502939
    44  O   -0.427289
    45  C   -0.092592
    46  C   -0.007883
    47  C   -0.142750
    48  C    0.142374
    49  C   -0.368673
    50  C   -0.220504
    51  C   -0.190187
    52  C   -0.129836
    53  C   -0.065448
    54  C   -0.290716
    55  C   -0.175666
    56  C   -0.203731
    57  C   -0.158561
    58  C   -0.048957
    59  C   -0.321226
    60  C   -0.174298
    61  C   -0.155461
    62  C   -0.173783
    63  C   -0.036445
    64  C   -0.306896
    65  C   -0.271843
    66  H    0.094075
    67  H    0.159560
    68  H    0.093822
    69  H    0.115929
    70  H    0.115196
    71  H    0.115648
    72  H    0.103612
    73  H    0.138671
    74  H    0.095328
    75  H    0.115525
    76  H    0.128959
    77  H    0.138420
    78  H    0.126335
    79  H    0.169714
    80  H    0.124035
    81  H    0.096633
    82  H    0.097322
    83  H    0.122021
    84  H    0.111784
    85  H    0.101419
    86  H    0.094952
    87  H    0.126458
    88  H    0.149953
    89  H    0.137292
    90  H    0.174103
    91  H    0.125360
    92  H    0.120058
    93  H    0.076355
    94  H    0.155166
    95  H    0.097266
    96  H    0.117450
    97  H    0.075287
    98  H    0.096482
    99  H    0.115860
   100  H    0.076731
   101  H    0.104225
   102  H    0.096380
   103  H    0.079703
   104  H    0.103155
   105  H    0.121673
   106  H    0.067987
   107  H    0.086648
   108  H    0.073079
   109  H    0.081919
   110  H    0.084820
   111  H    0.094943
   112  H    0.064636
   113  H    0.055496
   114  H    0.110915
   115  H    0.106848
   116  H    0.104326
   117  H    0.104729
   118  H    0.080345
   119  H    0.108657
   120  H    0.072173
   121  H    0.082251
   122  H    0.082939
   123  H    0.054282
   124  H    0.100515
   125  H    0.092575
   126  H    0.098820
   127  H    0.074418
   128  H    0.071958
   129  H    0.105115
   130  H    0.132370
   131  H    0.144164
   132  H    0.125823
   133  O   -0.445751
   134  H    0.084301
 Sum of Mulliken charges =   0.00000

 Dipole moment (field-independent basis, Debye):
    X=              1.8957    Y=             -5.7403    Z=             -1.3350  Tot=              6.1908
 Quadrupole moment (field-independent basis, Debye-Ang):
   XX=           -389.4372   YY=           -439.0645   ZZ=           -396.1926
   XY=              8.2006   XZ=             18.1863   YZ=            -36.9467

 Normal termination of Gaussian 09 at Tue Oct  8 01:58:46 2019.
