 Gaussian 09, Revision D.01,
 Gaussian 09:  ES64L-G09RevD.01 24-Apr-2013

 ----------------------------------------------------------------------
 # td=(NStates=1) iop(3/107=0140000000,3/108=0140000000) iop(3/107=0140
 000000,3/108=0140000000) CAM-B3LYP/6-31G(d,p)
 ----------------------------------------------------------------------

 --
 TD
 --
 Symbolic Z-matrix:
 Charge =  0 Multiplicity = 1

                         Standard orientation:
 ---------------------------------------------------------------------
 Center     Atomic      Atomic             Coordinates (Angstroms)
 Number     Number       Type             X           Y           Z
 ---------------------------------------------------------------------
      1         12           0       -5.589845    1.279698    0.162028
      2          6           0       -4.974060   -2.251049   -0.454298
      3          6           0       -3.516448    1.142636    2.737707
      4          6           0       -6.233006    4.550714    0.700474
      5          6           0       -7.905852    1.143442   -2.439163
      6          7           0       -4.301369   -0.317630    1.040294
      7          6           0       -4.130821   -1.611951    0.640788
      8          6           0       -3.158224   -2.262492    1.401124
      9          6           0       -2.861098   -1.317815    2.555449
     10          6           0       -3.518395   -0.093848    2.071562
     11          6           0       -3.454322   -1.696502    3.915206
     12          6           0       -1.934185   -2.708044    0.602758
     13          6           0       -0.964802   -3.581551    1.377233
     14          6           0        0.315022   -3.845240    0.556414
     15          8           0        0.608985   -3.375495   -0.456665
     16          8           0        1.002659   -4.739257    1.282228
     17          7           0       -4.930115    2.554075    1.528785
     18          6           0       -4.058797    2.456628    2.677266
     19          6           0       -3.761583    3.648039    3.241291
     20          6           0       -4.567855    4.600034    2.587808
     21          6           0       -5.317070    3.919636    1.592485
     22          6           0       -2.804160    3.890467    4.362796
     23          6           0       -4.736565    6.035133    3.007764
     24          8           0       -4.112161    6.550310    3.875277
     25          7           0       -6.903534    2.644892   -0.673545
     26          6           0       -7.006958    3.950961   -0.224085
     27          6           0       -7.973054    4.572158   -1.207760
     28          6           0       -8.447218    3.639569   -2.098574
     29          6           0       -7.718051    2.404303   -1.773864
     30          6           0       -8.423364    5.969542   -1.203719
     31          6           0       -9.432470    3.789112   -3.222069
     32          6           0       -8.666204    3.887646   -4.638159
     33          7           0       -6.345070   -0.080270   -1.053536
     34          6           0       -7.305569    0.013117   -2.113088
     35          6           0       -7.483484   -1.378316   -2.815621
     36          6           0       -6.569518   -2.202693   -2.083013
     37          6           0       -5.865008   -1.422448   -1.130537
     38          6           0       -8.422860   -1.647291   -3.880495
     39          6           0       -6.197267   -3.630999   -1.947277
     40          8           0       -6.482089   -4.575261   -2.581570
     41          6           0       -4.959763   -3.601558   -0.907551
     42          6           0       -5.254767   -4.670477    0.067513
     43          8           0       -5.666422   -4.406764    1.195223
     44          8           0       -4.981636   -5.908496   -0.397256
     45          6           0       -5.363294   -6.958509    0.520400
     46          6           0        2.323039   -5.136300    0.631032
     47          6           0        3.398578   -4.118650    1.017747
     48          6           0        4.020670   -3.330784    0.199118
     49          6           0        3.794855   -3.042309   -1.301071
     50          6           0        5.117137   -2.478853    0.870204
     51          6           0        6.440692   -2.714088    0.268298
     52          6           0        7.678989   -1.775804    0.655981
     53          6           0        9.040956   -1.912694    0.042137
     54          6           0        9.489991   -3.434831    0.060984
     55          6           0       10.026956   -0.879736    0.529100
     56          6           0       11.367243   -0.839920   -0.169052
     57          6           0       12.320132    0.309991    0.209060
     58          6           0       13.637642    0.334570   -0.639119
     59          6           0       14.503006   -0.862474   -0.303922
     60          6           0       14.157165    1.712712   -0.158806
     61          6           0       15.441936    2.216741   -1.031207
     62          6           0       15.813281    3.600961   -0.627343
     63          6           0       17.163152    4.031001   -1.368095
     64          6           0       16.966322    4.136814   -2.981551
     65          6           0       17.750081    5.367746   -0.927579
     66          1           0       -2.624503    1.123239    3.442276
     67          1           0       -6.390015    5.651384    0.826221
     68          1           0       -8.382846    0.996887   -3.450319
     69          1           0       -3.424659   -3.232663    1.831441
     70          1           0       -1.793392   -0.920297    2.809386
     71          1           0       -2.960433   -2.688143    4.185073
     72          1           0       -3.191537   -1.092461    4.721827
     73          1           0       -4.595506   -1.799287    3.963291
     74          1           0       -2.318653   -3.341247   -0.253960
     75          1           0       -1.497532   -1.865091    0.119006
     76          1           0       -0.427250   -2.947418    2.454452
     77          1           0       -1.294832   -4.591691    1.669124
     78          1           0       -1.866094    3.466289    4.128959
     79          1           0       -2.733077    4.910205    4.688224
     80          1           0       -3.072273    3.238550    5.263351
     81          1           0       -5.371362    6.543720    2.169318
     82          1           0      -10.096557    2.863729   -3.234369
     83          1           0      -10.114688    4.813020   -3.161957
     84          1           0       -9.456846    3.959644   -5.411244
     85          1           0       -8.071940    4.861380   -4.606824
     86          1           0       -7.955825    2.945055   -4.623874
     87          1           0       -8.333498   -1.063937   -4.871534
     88          1           0       -8.443553   -2.700199   -4.098737
     89          1           0       -9.375483   -1.429275   -3.304769
     90          1           0       -4.017667   -4.109251   -1.583567
     91          1           0        2.488286   -6.010732    1.020409
     92          1           0        1.985079   -5.184293   -0.439024
     93          1           0        3.520316   -4.017580    2.161389
     94          1           0        2.833145   -3.363546   -1.443774
     95          1           0        3.716902   -1.967579   -1.547077
     96          1           0        4.588003   -3.507775   -2.044584
     97          1           0        4.750799   -1.584409    0.747083
     98          1           0        4.923361   -2.563306    2.062922
     99          1           0        6.564059   -3.753744    0.208930
    100          1           0        6.270019   -2.497478   -0.754847
    101          1           0        7.258404   -0.718789    0.437495
    102          1           0        7.804819   -1.763704    1.689880
    103          1           0        8.922697   -1.759629   -0.977216
    104          1           0        8.799828   -4.125867   -0.377826
    105          1           0       10.457097   -3.556580   -0.331909
    106          1           0        9.492623   -3.732569    1.281359
    107          1           0        9.600249    0.224255    0.364401
    108          1           0       10.263899   -0.775251    1.668938
    109          1           0       11.858966   -1.950506    0.070790
    110          1           0       11.070836   -0.987639   -1.310166
    111          1           0       11.695165    1.021788   -0.097001
    112          1           0       12.495968    0.440724    1.173253
    113          1           0       13.511951    0.674726   -1.673461
    114          1           0       14.929648   -0.764852    0.725882
    115          1           0       14.111448   -1.790829   -0.718679
    116          1           0       15.254109   -0.730688   -1.149715
    117          1           0       13.376719    2.505614   -0.265151
    118          1           0       14.310172    1.720236    0.932590
    119          1           0       16.349136    1.534725   -1.019358
    120          1           0       15.065898    2.014392   -2.018151
    121          1           0       15.094430    4.132017   -0.874583
    122          1           0       16.033091    3.686426    0.394096
    123          1           0       17.958106    3.200096   -1.266921
    124          1           0       16.213896    4.963139   -3.105648
    125          1           0       17.832935    4.519404   -3.430605
    126          1           0       16.545639    3.313847   -3.380042
    127          1           0       18.081228    5.430308    0.094762
    128          1           0       18.713703    5.433900   -1.466226
    129          1           0       17.031800    6.151631   -1.337426
    130          1           0       -5.273073   -7.861695   -0.032119
    131          1           0       -6.338165   -6.820136    0.954051
    132          1           0       -4.574572   -7.080262    1.382162
    133          8           0       -7.969747    6.890848   -0.479038
    134          1           0       -9.221049    6.360461   -2.039682
 ---------------------------------------------------------------------

 SCF Done:  E(RCAM-B3LYP) =  -3043.45706582     A.U. after   16 cycles

 Excitation energies and oscillator strengths:

 Excited State   1:      Singlet-A      1.9672 eV  630.26 nm  f=0.1409  <S**2>=0.000
     243 -> 246        0.28495
     244 -> 245        0.63205
 This state for optimization and/or second-order correction.
 Total Energy, E(TD-HF/TD-KS) =  -3043.38477240
 Copying the excited state density for this state as the 1-particle RhoCI density.

 The electronic state is 1-A.
 Alpha  occ. eigenvalues --  -46.80674 -19.23713 -19.21300 -19.18788 -19.17747
 Alpha  occ. eigenvalues --  -19.17376 -19.17090 -19.16687 -14.38772 -14.37231
 Alpha  occ. eigenvalues --  -14.37165 -14.35896 -10.35229 -10.34203 -10.32518
 Alpha  occ. eigenvalues --  -10.30886 -10.30376 -10.28145 -10.27952 -10.27476
 Alpha  occ. eigenvalues --  -10.27213 -10.27011 -10.26899 -10.26776 -10.26209
 Alpha  occ. eigenvalues --  -10.26162 -10.25984 -10.25690 -10.25634 -10.25460
 Alpha  occ. eigenvalues --  -10.25387 -10.24942 -10.24669 -10.24343 -10.24338
 Alpha  occ. eigenvalues --  -10.23952 -10.23792 -10.23677 -10.23648 -10.23545
 Alpha  occ. eigenvalues --  -10.23375 -10.23147 -10.22942 -10.22913 -10.22813
 Alpha  occ. eigenvalues --  -10.22177 -10.22157 -10.22154 -10.22053 -10.22049
 Alpha  occ. eigenvalues --  -10.22005 -10.21817 -10.21480 -10.21419 -10.21040
 Alpha  occ. eigenvalues --  -10.20954 -10.20919 -10.20892 -10.20771 -10.20591
 Alpha  occ. eigenvalues --  -10.20568 -10.20458 -10.20154 -10.18983 -10.18722
 Alpha  occ. eigenvalues --  -10.18454  -3.09342  -1.84264  -1.83829  -1.83752
 Alpha  occ. eigenvalues --   -1.14469  -1.13904  -1.10859  -1.08378  -1.06095
 Alpha  occ. eigenvalues --   -1.04728  -1.04136  -1.02239  -0.98639  -0.97229
 Alpha  occ. eigenvalues --   -0.96753  -0.89587  -0.86731  -0.86437  -0.85526
 Alpha  occ. eigenvalues --   -0.85051  -0.84219  -0.84047  -0.83446  -0.83241
 Alpha  occ. eigenvalues --   -0.82864  -0.82264  -0.81629  -0.80739  -0.79621
 Alpha  occ. eigenvalues --   -0.78766  -0.78092  -0.77564  -0.77052  -0.76634
 Alpha  occ. eigenvalues --   -0.75688  -0.75019  -0.74000  -0.72942  -0.72141
 Alpha  occ. eigenvalues --   -0.71864  -0.71461  -0.70679  -0.70240  -0.69750
 Alpha  occ. eigenvalues --   -0.69558  -0.68659  -0.67489  -0.66594  -0.65454
 Alpha  occ. eigenvalues --   -0.64947  -0.64878  -0.63432  -0.63094  -0.62050
 Alpha  occ. eigenvalues --   -0.61760  -0.61337  -0.60208  -0.59458  -0.58414
 Alpha  occ. eigenvalues --   -0.58410  -0.57969  -0.57768  -0.56980  -0.56879
 Alpha  occ. eigenvalues --   -0.56116  -0.55841  -0.55287  -0.54894  -0.54593
 Alpha  occ. eigenvalues --   -0.53365  -0.53201  -0.52671  -0.51946  -0.51921
 Alpha  occ. eigenvalues --   -0.51668  -0.51545  -0.51475  -0.51143  -0.50474
 Alpha  occ. eigenvalues --   -0.50321  -0.49986  -0.49843  -0.49700  -0.48999
 Alpha  occ. eigenvalues --   -0.48800  -0.48359  -0.48303  -0.47765  -0.47604
 Alpha  occ. eigenvalues --   -0.47568  -0.47348  -0.47199  -0.46974  -0.46807
 Alpha  occ. eigenvalues --   -0.46783  -0.46518  -0.46318  -0.46047  -0.45782
 Alpha  occ. eigenvalues --   -0.45740  -0.45569  -0.45227  -0.45184  -0.44939
 Alpha  occ. eigenvalues --   -0.44866  -0.44358  -0.43985  -0.43832  -0.43758
 Alpha  occ. eigenvalues --   -0.43725  -0.43485  -0.43347  -0.43113  -0.42982
 Alpha  occ. eigenvalues --   -0.42846  -0.42515  -0.42415  -0.42193  -0.41920
 Alpha  occ. eigenvalues --   -0.41557  -0.41556  -0.41464  -0.41238  -0.40969
 Alpha  occ. eigenvalues --   -0.40933  -0.40720  -0.40605  -0.40457  -0.40159
 Alpha  occ. eigenvalues --   -0.39829  -0.39816  -0.39773  -0.39599  -0.39331
 Alpha  occ. eigenvalues --   -0.39228  -0.38812  -0.38714  -0.38630  -0.38461
 Alpha  occ. eigenvalues --   -0.38113  -0.37994  -0.37503  -0.37431  -0.37359
 Alpha  occ. eigenvalues --   -0.36979  -0.36938  -0.36424  -0.36245  -0.35683
 Alpha  occ. eigenvalues --   -0.35523  -0.35079  -0.35046  -0.34898  -0.34596
 Alpha  occ. eigenvalues --   -0.34415  -0.34009  -0.33922  -0.33815  -0.33545
 Alpha  occ. eigenvalues --   -0.33013  -0.32741  -0.32355  -0.32122  -0.31569
 Alpha  occ. eigenvalues --   -0.31200  -0.31095  -0.30779  -0.29067  -0.28891
 Alpha  occ. eigenvalues --   -0.28638  -0.28335  -0.28175  -0.27891  -0.27401
 Alpha  occ. eigenvalues --   -0.27092  -0.26667  -0.22857  -0.21091
 Alpha virt. eigenvalues --   -0.08304  -0.06665  -0.02226  -0.00350   0.00466
 Alpha virt. eigenvalues --    0.02669   0.03460   0.04014   0.04202   0.04539
 Alpha virt. eigenvalues --    0.04949   0.05888   0.07112   0.08190   0.08884

 Mulliken charges:
               1
     1  Mg   0.827689
     2  C    0.105409
     3  C   -0.208148
     4  C   -0.173529
     5  C   -0.184028
     6  N   -0.604493
     7  C    0.347623
     8  C   -0.181936
     9  C   -0.142505
    10  C    0.339104
    11  C   -0.301322
    12  C   -0.171100
    13  C   -0.246399
    14  C    0.608518
    15  O   -0.435853
    16  O   -0.495050
    17  N   -0.699330
    18  C    0.279496
    19  C    0.073130
    20  C   -0.070558
    21  C    0.311998
    22  C   -0.385662
    23  C    0.269196
    24  O   -0.396133
    25  N   -0.705321
    26  C    0.327468
    27  C   -0.043187
    28  C    0.073339
    29  C    0.284477
    30  C    0.224657
    31  C   -0.255882
    32  C   -0.301423
    33  N   -0.738960
    34  C    0.288127
    35  C    0.042191
    36  C   -0.004622
    37  C    0.318059
    38  C   -0.402271
    39  C    0.373509
    40  O   -0.406496
    41  C   -0.378997
    42  C    0.642659
    43  O   -0.488446
    44  O   -0.448065
    45  C   -0.089629
    46  C    0.002792
    47  C   -0.144113
    48  C    0.126063
    49  C   -0.368912
    50  C   -0.201963
    51  C   -0.188705
    52  C   -0.174301
    53  C   -0.043995
    54  C   -0.306595
    55  C   -0.161811
    56  C   -0.178151
    57  C   -0.154280
    58  C   -0.067080
    59  C   -0.296614
    60  C   -0.202763
    61  C   -0.195694
    62  C   -0.128131
    63  C   -0.077729
    64  C   -0.320138
    65  C   -0.305800
    66  H    0.048560
    67  H    0.140156
    68  H    0.091301
    69  H    0.132261
    70  H    0.103998
    71  H    0.096613
    72  H    0.124568
    73  H    0.122550
    74  H    0.104431
    75  H    0.126969
    76  H    0.084891
    77  H    0.138483
    78  H    0.123884
    79  H    0.159724
    80  H    0.111964
    81  H    0.062030
    82  H    0.112752
    83  H    0.095245
    84  H    0.118334
    85  H    0.118610
    86  H    0.103312
    87  H    0.133732
    88  H    0.154919
    89  H    0.141595
    90  H    0.142810
    91  H    0.119476
    92  H    0.125995
    93  H    0.092736
    94  H    0.147479
    95  H    0.121643
    96  H    0.106082
    97  H    0.110125
    98  H    0.056804
    99  H    0.099421
   100  H    0.102865
   101  H    0.072230
   102  H    0.101295
   103  H    0.094214
   104  H    0.111553
   105  H    0.111243
   106  H    0.060454
   107  H    0.063873
   108  H    0.076115
   109  H    0.054162
   110  H    0.068548
   111  H    0.103338
   112  H    0.098011
   113  H    0.087315
   114  H    0.111193
   115  H    0.118341
   116  H    0.091902
   117  H    0.088631
   118  H    0.079949
   119  H    0.084067
   120  H    0.090190
   121  H    0.095927
   122  H    0.097619
   123  H    0.070712
   124  H    0.084685
   125  H    0.107885
   126  H    0.109643
   127  H    0.101740
   128  H    0.097704
   129  H    0.095701
   130  H    0.132621
   131  H    0.148229
   132  H    0.107813
   133  O   -0.434692
   134  H    0.052088
 Sum of Mulliken charges =   0.00000

 Dipole moment (field-independent basis, Debye):
    X=              2.1314    Y=             -6.6140    Z=             -3.1744  Tot=              7.6397
 Quadrupole moment (field-independent basis, Debye-Ang):
   XX=           -379.6814   YY=           -437.2432   ZZ=           -391.1690
   XY=             28.5167   XZ=             29.7315   YZ=            -27.5298

 Normal termination of Gaussian 09 at Fri Oct  4 23:22:21 2019.
