 Gaussian 09, Revision D.01,
 Gaussian 09:  ES64L-G09RevD.01 24-Apr-2013

 ----------------------------------------------------------------------
 # td=(NStates=1) iop(3/107=0140000000,3/108=0140000000) iop(3/107=0140
 000000,3/108=0140000000) CAM-B3LYP/6-31G(d,p)
 ----------------------------------------------------------------------

 --
 TD
 --
 Symbolic Z-matrix:
 Charge =  0 Multiplicity = 1

                         Standard orientation:
 ---------------------------------------------------------------------
 Center     Atomic      Atomic             Coordinates (Angstroms)
 Number     Number       Type             X           Y           Z
 ---------------------------------------------------------------------
      1         12           0       -5.724708    1.191110    0.304080
      2          6           0       -4.918760   -2.112910   -0.486004
      3          6           0       -3.449962    1.197664    2.737913
      4          6           0       -6.367043    4.578102    0.676253
      5          6           0       -7.968624    1.167407   -2.396840
      6          7           0       -4.302967   -0.281932    1.100567
      7          6           0       -4.198527   -1.539202    0.613128
      8          6           0       -3.110061   -2.259935    1.405725
      9          6           0       -2.897694   -1.354674    2.524532
     10          6           0       -3.571980   -0.089724    2.163062
     11          6           0       -3.659583   -1.860728    3.881118
     12          6           0       -1.803401   -2.551459    0.610501
     13          6           0       -0.843540   -3.580205    1.313067
     14          6           0        0.354317   -3.947229    0.547631
     15          8           0        0.592347   -3.574673   -0.549554
     16          8           0        1.105332   -4.772244    1.243912
     17          7           0       -4.972588    2.620572    1.493693
     18          6           0       -4.124287    2.362982    2.542242
     19          6           0       -3.802511    3.529408    3.193211
     20          6           0       -4.749607    4.565214    2.647241
     21          6           0       -5.468504    3.988249    1.591547
     22          6           0       -2.833591    3.691468    4.313706
     23          6           0       -4.800373    5.951889    2.965751
     24          8           0       -4.201553    6.578272    3.787854
     25          7           0       -6.885108    2.552913   -0.710127
     26          6           0       -7.076421    3.923802   -0.329844
     27          6           0       -8.104083    4.514170   -1.223472
     28          6           0       -8.611136    3.573162   -2.079718
     29          6           0       -7.824235    2.317503   -1.749647
     30          6           0       -8.459574    5.946823   -1.206262
     31          6           0       -9.573886    3.758124   -3.126683
     32          6           0       -8.829835    3.861157   -4.468625
     33          7           0       -6.390049   -0.131771   -1.106006
     34          6           0       -7.297710    0.013793   -2.166402
     35          6           0       -7.493393   -1.357223   -2.719128
     36          6           0       -6.573530   -2.185176   -2.100839
     37          6           0       -5.889464   -1.370737   -1.237533
     38          6           0       -8.453845   -1.658244   -3.818825
     39          6           0       -6.086385   -3.550492   -2.149928
     40          8           0       -6.442194   -4.484509   -2.830226
     41          6           0       -4.894193   -3.537396   -0.986938
     42          6           0       -5.173060   -4.604777    0.076268
     43          8           0       -5.531208   -4.388724    1.271178
     44          8           0       -4.939021   -5.850803   -0.439657
     45          6           0       -5.327148   -6.912525    0.557018
     46          6           0        2.378797   -5.123887    0.686680
     47          6           0        3.467813   -4.180985    1.082265
     48          6           0        4.115188   -3.249094    0.326575
     49          6           0        3.771875   -3.150725   -1.215604
     50          6           0        5.141478   -2.384526    0.899819
     51          6           0        6.505849   -2.572522    0.273476
     52          6           0        7.637280   -1.692855    0.688324
     53          6           0        9.047239   -1.773497   -0.088785
     54          6           0        9.500836   -3.302543   -0.038939
     55          6           0        9.995781   -0.836039    0.531172
     56          6           0       11.354828   -0.744032   -0.112139
     57          6           0       12.211020    0.404804    0.277049
     58          6           0       13.697070    0.566213   -0.389337
     59          6           0       14.452736   -0.789761   -0.301522
     60          6           0       14.319631    1.816151   -0.114952
     61          6           0       15.527178    2.210762   -1.011389
     62          6           0       16.069299    3.560744   -0.698907
     63          6           0       17.407987    3.927587   -1.516020
     64          6           0       17.079580    3.909094   -2.980490
     65          6           0       18.010374    5.280169   -1.001374
     66          1           0       -3.022699    1.182860    3.808090
     67          1           0       -6.668817    5.668277    0.706525
     68          1           0       -8.822188    1.123576   -3.204823
     69          1           0       -3.427257   -3.075691    1.952511
     70          1           0       -1.814643   -1.329066    2.799017
     71          1           0       -3.256430   -2.909739    4.232162
     72          1           0       -3.811336   -1.232478    4.665684
     73          1           0       -4.798447   -2.046641    3.618311
     74          1           0       -2.158601   -2.890700   -0.404745
     75          1           0       -1.201081   -1.606834    0.446909
     76          1           0       -0.527911   -3.319408    2.420696
     77          1           0       -1.358870   -4.625630    1.259201
     78          1           0       -1.740328    3.191307    4.156757
     79          1           0       -2.986248    4.679977    4.647592
     80          1           0       -3.211088    3.079129    5.124118
     81          1           0       -5.463798    6.459294    2.325571
     82          1           0      -10.032753    2.794373   -3.304636
     83          1           0      -10.004179    4.580938   -2.858364
     84          1           0       -9.447934    3.991244   -5.297905
     85          1           0       -8.233671    4.861316   -4.592215
     86          1           0       -8.107938    3.002200   -4.564414
     87          1           0       -8.312277   -1.356296   -4.902041
     88          1           0       -8.639062   -2.771956   -3.772532
     89          1           0       -9.522432   -1.343921   -3.413878
     90          1           0       -3.853841   -3.866677   -1.267105
     91          1           0        2.627211   -6.158745    0.985118
     92          1           0        2.312836   -5.267232   -0.325285
     93          1           0        3.511381   -4.204878    2.211828
     94          1           0        2.841528   -3.523559   -1.448803
     95          1           0        3.908936   -2.183240   -1.525824
     96          1           0        4.630937   -3.758380   -1.543219
     97          1           0        4.782260   -1.257213    1.091764
     98          1           0        5.330882   -2.574344    2.036776
     99          1           0        6.660677   -3.451823    0.484383
    100          1           0        6.599337   -2.501337   -0.768312
    101          1           0        7.416269   -0.529926    0.699129
    102          1           0        7.940235   -1.786003    1.856226
    103          1           0        8.650176   -1.674726   -1.166281
    104          1           0        8.738961   -3.926387   -0.549246
    105          1           0       10.425053   -3.186230   -0.717230
    106          1           0        9.932714   -3.396469    0.910128
    107          1           0        9.447123    0.088642    0.348731
    108          1           0        9.911940   -1.026702    1.423398
    109          1           0       11.938741   -1.747248    0.000097
    110          1           0       11.209478   -0.703549   -1.173896
    111          1           0       11.651610    1.398504    0.234247
    112          1           0       12.482360    0.367535    1.338933
    113          1           0       13.470562    0.526865   -1.496189
    114          1           0       14.541028   -0.639058    0.752605
    115          1           0       13.784461   -1.652745   -0.710954
    116          1           0       15.430139   -0.678065   -0.919456
    117          1           0       13.736411    2.806412   -0.222471
    118          1           0       14.812256    1.564244    0.922254
    119          1           0       16.218119    1.629640   -0.828981
    120          1           0       15.412952    2.002513   -2.020666
    121          1           0       15.296977    4.310377   -0.847844
    122          1           0       16.226102    3.701563    0.388340
    123          1           0       18.105326    3.209144   -1.315195
    124          1           0       16.425591    4.647202   -3.328760
    125          1           0       18.018428    4.263830   -3.295229
    126          1           0       16.850312    2.969830   -3.378630
    127          1           0       17.974460    5.327707    0.119119
    128          1           0       19.119149    5.456704   -1.384836
    129          1           0       17.437667    6.138132   -1.270643
    130          1           0       -5.253273   -7.792750   -0.078445
    131          1           0       -6.273947   -6.723316    0.888739
    132          1           0       -4.740646   -7.071832    1.469921
    133          8           0       -8.106830    6.850425   -0.469136
    134          1           0       -9.243659    6.233693   -2.091438
 ---------------------------------------------------------------------

 SCF Done:  E(RCAM-B3LYP) =  -3043.43451586     A.U. after   16 cycles

 Excitation energies and oscillator strengths:

 Excited State   1:      Singlet-A      1.9694 eV  629.55 nm  f=0.1811  <S**2>=0.000
     243 -> 245       -0.15245
     243 -> 246       -0.25519
     244 -> 245        0.62453
     244 -> 246       -0.11213
 This state for optimization and/or second-order correction.
 Total Energy, E(TD-HF/TD-KS) =  -3043.36214090
 Copying the excited state density for this state as the 1-particle RhoCI density.

 The electronic state is 1-A.
 Alpha  occ. eigenvalues --  -46.81230 -19.23894 -19.22297 -19.18703 -19.18457
 Alpha  occ. eigenvalues --  -19.17713 -19.16549 -19.15533 -14.39200 -14.37499
 Alpha  occ. eigenvalues --  -14.36892 -14.35747 -10.36083 -10.34191 -10.33003
 Alpha  occ. eigenvalues --  -10.32038 -10.27997 -10.27711 -10.27426 -10.27253
 Alpha  occ. eigenvalues --  -10.27156 -10.26696 -10.26673 -10.26671 -10.26381
 Alpha  occ. eigenvalues --  -10.26367 -10.25803 -10.25737 -10.25478 -10.25247
 Alpha  occ. eigenvalues --  -10.25075 -10.25074 -10.24388 -10.24340 -10.24283
 Alpha  occ. eigenvalues --  -10.24236 -10.24085 -10.24004 -10.23950 -10.23704
 Alpha  occ. eigenvalues --  -10.23256 -10.23238 -10.23150 -10.22880 -10.22772
 Alpha  occ. eigenvalues --  -10.22498 -10.22351 -10.22337 -10.22296 -10.22195
 Alpha  occ. eigenvalues --  -10.22069 -10.21619 -10.21608 -10.21559 -10.21289
 Alpha  occ. eigenvalues --  -10.21213 -10.21207 -10.21045 -10.21035 -10.20473
 Alpha  occ. eigenvalues --  -10.19986 -10.19851 -10.19411 -10.19015 -10.18229
 Alpha  occ. eigenvalues --  -10.17635  -3.09782  -1.84719  -1.84271  -1.84167
 Alpha  occ. eigenvalues --   -1.15220  -1.12074  -1.08454  -1.07702  -1.06576
 Alpha  occ. eigenvalues --   -1.06081  -1.02908  -1.02559  -1.00435  -0.97748
 Alpha  occ. eigenvalues --   -0.96892  -0.88816  -0.87445  -0.86871  -0.86385
 Alpha  occ. eigenvalues --   -0.85985  -0.85188  -0.85088  -0.84145  -0.83546
 Alpha  occ. eigenvalues --   -0.83302  -0.82628  -0.81736  -0.80952  -0.80272
 Alpha  occ. eigenvalues --   -0.79644  -0.79035  -0.78362  -0.77581  -0.77201
 Alpha  occ. eigenvalues --   -0.75991  -0.75224  -0.73998  -0.73359  -0.72151
 Alpha  occ. eigenvalues --   -0.71832  -0.71537  -0.71391  -0.70318  -0.70144
 Alpha  occ. eigenvalues --   -0.69384  -0.69248  -0.68004  -0.67411  -0.66734
 Alpha  occ. eigenvalues --   -0.66104  -0.65442  -0.64986  -0.63788  -0.62518
 Alpha  occ. eigenvalues --   -0.62199  -0.61526  -0.61127  -0.60292  -0.59616
 Alpha  occ. eigenvalues --   -0.58886  -0.58289  -0.58144  -0.57445  -0.56822
 Alpha  occ. eigenvalues --   -0.56385  -0.56243  -0.55984  -0.55408  -0.54600
 Alpha  occ. eigenvalues --   -0.53547  -0.53232  -0.53108  -0.52821  -0.52383
 Alpha  occ. eigenvalues --   -0.52154  -0.51929  -0.51521  -0.51396  -0.51369
 Alpha  occ. eigenvalues --   -0.50579  -0.50384  -0.50284  -0.50044  -0.49243
 Alpha  occ. eigenvalues --   -0.49101  -0.48684  -0.48450  -0.48394  -0.48028
 Alpha  occ. eigenvalues --   -0.47800  -0.47795  -0.47476  -0.47298  -0.47135
 Alpha  occ. eigenvalues --   -0.47062  -0.46469  -0.46327  -0.46258  -0.45949
 Alpha  occ. eigenvalues --   -0.45877  -0.45654  -0.45349  -0.44967  -0.44814
 Alpha  occ. eigenvalues --   -0.44745  -0.44408  -0.44185  -0.44103  -0.43914
 Alpha  occ. eigenvalues --   -0.43703  -0.43584  -0.43241  -0.43165  -0.42917
 Alpha  occ. eigenvalues --   -0.42847  -0.42581  -0.42427  -0.42320  -0.42199
 Alpha  occ. eigenvalues --   -0.42020  -0.41939  -0.41620  -0.41516  -0.41234
 Alpha  occ. eigenvalues --   -0.41217  -0.40824  -0.40756  -0.40568  -0.40469
 Alpha  occ. eigenvalues --   -0.40362  -0.40270  -0.40205  -0.39906  -0.39606
 Alpha  occ. eigenvalues --   -0.39515  -0.39341  -0.39024  -0.38859  -0.38589
 Alpha  occ. eigenvalues --   -0.38421  -0.37949  -0.37761  -0.37659  -0.37578
 Alpha  occ. eigenvalues --   -0.37485  -0.36977  -0.36771  -0.36605  -0.36513
 Alpha  occ. eigenvalues --   -0.35726  -0.35496  -0.35388  -0.34914  -0.34687
 Alpha  occ. eigenvalues --   -0.34405  -0.34131  -0.33948  -0.33828  -0.33444
 Alpha  occ. eigenvalues --   -0.32808  -0.32274  -0.32218  -0.31849  -0.31155
 Alpha  occ. eigenvalues --   -0.31111  -0.30540  -0.30523  -0.29766  -0.29677
 Alpha  occ. eigenvalues --   -0.29030  -0.28826  -0.28571  -0.28343  -0.26908
 Alpha  occ. eigenvalues --   -0.26556  -0.25976  -0.23082  -0.21844
 Alpha virt. eigenvalues --   -0.09239  -0.06537  -0.02393  -0.00755   0.00337
 Alpha virt. eigenvalues --    0.02242   0.02861   0.03268   0.04224   0.04922
 Alpha virt. eigenvalues --    0.05315   0.06043   0.07437   0.08315   0.08997

 Mulliken charges:
               1
     1  Mg   0.822614
     2  C    0.083494
     3  C   -0.188039
     4  C   -0.191060
     5  C   -0.205655
     6  N   -0.605992
     7  C    0.286225
     8  C   -0.116760
     9  C   -0.172795
    10  C    0.356637
    11  C   -0.337791
    12  C   -0.174710
    13  C   -0.264581
    14  C    0.603680
    15  O   -0.460173
    16  O   -0.451008
    17  N   -0.733170
    18  C    0.348261
    19  C    0.058533
    20  C   -0.061042
    21  C    0.304387
    22  C   -0.392415
    23  C    0.244670
    24  O   -0.426602
    25  N   -0.696278
    26  C    0.307741
    27  C   -0.014468
    28  C    0.047885
    29  C    0.309013
    30  C    0.247742
    31  C   -0.206393
    32  C   -0.323806
    33  N   -0.720625
    34  C    0.290593
    35  C   -0.004621
    36  C    0.078041
    37  C    0.300011
    38  C   -0.399948
    39  C    0.374198
    40  O   -0.432318
    41  C   -0.348084
    42  C    0.618631
    43  O   -0.495535
    44  O   -0.451498
    45  C   -0.096705
    46  C   -0.001911
    47  C   -0.142278
    48  C    0.114561
    49  C   -0.357556
    50  C   -0.244319
    51  C   -0.150358
    52  C   -0.179020
    53  C   -0.094618
    54  C   -0.305617
    55  C   -0.128605
    56  C   -0.181037
    57  C   -0.175193
    58  C   -0.081311
    59  C   -0.300410
    60  C   -0.157887
    61  C   -0.164046
    62  C   -0.186750
    63  C   -0.059243
    64  C   -0.306178
    65  C   -0.326504
    66  H    0.075618
    67  H    0.151205
    68  H    0.090163
    69  H    0.136130
    70  H    0.105913
    71  H    0.100914
    72  H    0.126679
    73  H    0.113961
    74  H    0.110003
    75  H    0.117010
    76  H    0.126895
    77  H    0.132287
    78  H    0.115713
    79  H    0.157275
    80  H    0.130583
    81  H    0.058527
    82  H    0.123427
    83  H    0.106972
    84  H    0.123433
    85  H    0.099051
    86  H    0.116610
    87  H    0.139275
    88  H    0.141296
    89  H    0.106721
    90  H    0.158529
    91  H    0.109489
    92  H    0.121661
    93  H    0.077095
    94  H    0.152166
    95  H    0.122810
    96  H    0.116272
    97  H    0.088818
    98  H    0.093187
    99  H    0.119851
   100  H    0.096032
   101  H    0.067110
   102  H    0.049048
   103  H    0.069648
   104  H    0.106553
   105  H    0.088150
   106  H    0.111245
   107  H    0.095418
   108  H    0.096416
   109  H    0.078730
   110  H    0.101827
   111  H    0.081980
   112  H    0.081470
   113  H    0.063676
   114  H    0.107391
   115  H    0.108562
   116  H    0.095900
   117  H    0.093668
   118  H    0.063301
   119  H    0.102339
   120  H    0.089593
   121  H    0.080661
   122  H    0.077181
   123  H    0.098272
   124  H    0.108176
   125  H    0.099235
   126  H    0.107900
   127  H    0.100234
   128  H    0.083587
   129  H    0.111590
   130  H    0.130687
   131  H    0.151430
   132  H    0.132523
   133  O   -0.412254
   134  H    0.035180
 Sum of Mulliken charges =   0.00000

 Dipole moment (field-independent basis, Debye):
    X=              0.8438    Y=             -6.1475    Z=             -1.5173  Tot=              6.3879
 Quadrupole moment (field-independent basis, Debye-Ang):
   XX=           -356.5971   YY=           -441.3041   ZZ=           -393.4257
   XY=             18.8369   XZ=             19.1395   YZ=            -38.5832

 Normal termination of Gaussian 09 at Sat Oct  5 02:11:11 2019.
