 Gaussian 09, Revision D.01,
 Gaussian 09:  ES64L-G09RevD.01 24-Apr-2013

 ----------------------------------------------------------------------
 # td=(NStates=1) iop(3/107=0140000000,3/108=0140000000) iop(3/107=0140
 000000,3/108=0140000000) CAM-B3LYP/6-31G(d,p)
 ----------------------------------------------------------------------

 --
 TD
 --
 Symbolic Z-matrix:
 Charge =  0 Multiplicity = 1

                         Standard orientation:
 ---------------------------------------------------------------------
 Center     Atomic      Atomic             Coordinates (Angstroms)
 Number     Number       Type             X           Y           Z
 ---------------------------------------------------------------------
      1         12           0       -5.633425    1.215227    0.173044
      2          6           0       -5.067822   -2.163718   -0.313457
      3          6           0       -3.482955    1.165761    2.792413
      4          6           0       -6.290362    4.544305    0.699257
      5          6           0       -8.100771    1.155746   -2.342407
      6          7           0       -4.364908   -0.221381    1.007894
      7          6           0       -4.288257   -1.576249    0.690418
      8          6           0       -3.265411   -2.373896    1.527712
      9          6           0       -2.868435   -1.303944    2.569836
     10          6           0       -3.536677   -0.028318    2.105973
     11          6           0       -3.301886   -1.773130    3.930098
     12          6           0       -2.038476   -2.728551    0.643424
     13          6           0       -1.018634   -3.606060    1.396177
     14          6           0        0.237163   -3.842212    0.651685
     15          8           0        0.487970   -3.351566   -0.425453
     16          8           0        1.081117   -4.649729    1.254890
     17          7           0       -4.891221    2.608763    1.464811
     18          6           0       -4.054294    2.394587    2.411511
     19          6           0       -3.776553    3.755212    3.092270
     20          6           0       -4.467945    4.666462    2.510667
     21          6           0       -5.344961    3.933261    1.450481
     22          6           0       -2.656213    3.865621    4.053598
     23          6           0       -4.682146    6.035314    2.812055
     24          8           0       -3.939122    6.530805    3.669277
     25          7           0       -6.900340    2.609928   -0.614530
     26          6           0       -6.935218    3.907173   -0.294766
     27          6           0       -7.991770    4.564597   -1.101960
     28          6           0       -8.506219    3.532476   -1.974066
     29          6           0       -7.777796    2.369569   -1.687666
     30          6           0       -8.422247    5.949229   -1.075919
     31          6           0       -9.552344    3.871142   -3.051557
     32          6           0       -8.857414    3.970131   -4.464447
     33          7           0       -6.505647   -0.190030   -1.036391
     34          6           0       -7.359070   -0.089902   -2.113461
     35          6           0       -7.559188   -1.357855   -2.696492
     36          6           0       -6.685696   -2.214844   -2.021951
     37          6           0       -6.050868   -1.431423   -1.104312
     38          6           0       -8.443997   -1.570709   -3.817977
     39          6           0       -6.209401   -3.570577   -1.973012
     40          8           0       -6.557544   -4.627232   -2.525763
     41          6           0       -5.064431   -3.551366   -0.868814
     42          6           0       -5.204170   -4.661287    0.098877
     43          8           0       -5.663734   -4.535540    1.159490
     44          8           0       -4.907770   -5.833915   -0.446411
     45          6           0       -5.282758   -6.961011    0.405338
     46          6           0        2.324491   -4.987244    0.528999
     47          6           0        3.453391   -4.131475    0.949535
     48          6           0        3.979937   -3.225773    0.146150
     49          6           0        3.740831   -3.081101   -1.369096
     50          6           0        5.211055   -2.408883    0.689847
     51          6           0        6.566662   -2.809689    0.165283
     52          6           0        7.790020   -1.896705    0.666185
     53          6           0        9.148894   -1.970761    0.077739
     54          6           0        9.590563   -3.393928    0.239790
     55          6           0       10.063633   -0.868639    0.433418
     56          6           0       11.345304   -0.774676   -0.256921
     57          6           0       12.208713    0.301548    0.287867
     58          6           0       13.564489    0.515034   -0.471998
     59          6           0       14.591605   -0.668675   -0.335127
     60          6           0       14.248813    1.801580   -0.111021
     61          6           0       15.335950    2.163536   -1.048718
     62          6           0       16.069811    3.472601   -0.729061
     63          6           0       17.325671    3.865004   -1.454498
     64          6           0       17.108840    4.052299   -2.964639
     65          6           0       17.853452    5.196135   -0.957445
     66          1           0       -2.664712    1.282637    3.675290
     67          1           0       -6.530459    5.812639    0.659907
     68          1           0       -8.767959    1.171399   -3.118751
     69          1           0       -3.882379   -3.037138    2.037709
     70          1           0       -1.938540   -1.240949    2.606801
     71          1           0       -2.740641   -2.735980    4.153095
     72          1           0       -3.329133   -1.036589    4.658941
     73          1           0       -4.464011   -2.001877    3.906639
     74          1           0       -2.413213   -3.163717   -0.417128
     75          1           0       -1.752915   -1.813278    0.415758
     76          1           0       -0.749052   -3.158474    2.370926
     77          1           0       -1.389194   -4.522440    1.760902
     78          1           0       -1.808513    3.268865    3.772155
     79          1           0       -2.380424    4.992126    4.442850
     80          1           0       -3.204609    3.288013    4.950023
     81          1           0       -5.434688    6.679808    2.408126
     82          1           0      -10.331679    3.059575   -3.114573
     83          1           0      -10.070822    4.715060   -2.884809
     84          1           0       -9.671235    3.710632   -5.324380
     85          1           0       -8.278122    4.910852   -4.623618
     86          1           0       -8.140544    3.134000   -4.783886
     87          1           0       -8.099012   -1.065318   -4.714436
     88          1           0       -8.631749   -2.770212   -3.758659
     89          1           0       -9.425377   -1.318754   -3.675750
     90          1           0       -4.164261   -3.769091   -1.497896
     91          1           0        2.413852   -6.124418    0.795677
     92          1           0        2.303045   -4.867692   -0.577803
     93          1           0        3.850169   -3.989022    1.972970
     94          1           0        2.721395   -3.372587   -1.663937
     95          1           0        3.838154   -1.972234   -1.519078
     96          1           0        4.557844   -3.639245   -1.903060
     97          1           0        4.885300   -1.215813    0.570231
     98          1           0        5.140184   -2.345203    1.744918
     99          1           0        6.652751   -3.802229    0.714885
    100          1           0        6.755208   -3.027193   -0.945103
    101          1           0        7.551787   -0.815847    0.371837
    102          1           0        7.711469   -1.877365    1.827186
    103          1           0        9.097347   -1.938605   -0.945570
    104          1           0        8.949818   -4.121149   -0.345768
    105          1           0       10.546745   -3.476862   -0.157852
    106          1           0        9.514073   -3.635263    1.433773
    107          1           0        9.238264    0.101398    0.502145
    108          1           0       10.115150   -1.021526    1.603292
    109          1           0       11.988098   -1.737979   -0.264127
    110          1           0       11.241475   -0.831602   -1.336242
    111          1           0       11.681045    1.265151    0.192027
    112          1           0       12.473587    0.521257    1.357642
    113          1           0       13.375556    0.424320   -1.511397
    114          1           0       15.001905   -0.611684    0.656178
    115          1           0       14.237023   -1.662482   -0.494641
    116          1           0       15.474868   -0.726852   -1.107001
    117          1           0       13.435410    2.449744   -0.004877
    118          1           0       14.662289    1.757469    0.936513
    119          1           0       16.107501    1.372138   -1.245299
    120          1           0       14.884863    2.348002   -1.896301
    121          1           0       15.461770    4.458539   -0.941199
    122          1           0       16.361839    3.538329    0.364528
    123          1           0       18.180871    3.156711   -1.125799
    124          1           0       16.317577    4.811541   -2.812033
    125          1           0       18.071117    4.490055   -3.464161
    126          1           0       16.807947    3.198299   -3.509718
    127          1           0       17.965412    5.385724    0.211250
    128          1           0       18.913160    5.299011   -1.219890
    129          1           0       17.164443    5.959608   -1.105936
    130          1           0       -5.069554   -7.791220   -0.254664
    131          1           0       -6.357958   -6.934027    0.688285
    132          1           0       -4.560546   -7.039125    1.297997
    133          8           0       -7.938295    6.834799   -0.355647
    134          1           0       -9.353461    6.319138   -1.822052
 ---------------------------------------------------------------------

 SCF Done:  E(RCAM-B3LYP) =  -3043.48366446     A.U. after   15 cycles

 Excitation energies and oscillator strengths:

 Excited State   1:      Singlet-A      2.1637 eV  573.01 nm  f=0.1868  <S**2>=0.000
     243 -> 245       -0.11241
     243 -> 246       -0.26485
     244 -> 245        0.63429
 This state for optimization and/or second-order correction.
 Total Energy, E(TD-HF/TD-KS) =  -3043.40414872
 Copying the excited state density for this state as the 1-particle RhoCI density.

 The electronic state is 1-A.
 Alpha  occ. eigenvalues --  -46.81336 -19.22264 -19.21784 -19.17280 -19.16504
 Alpha  occ. eigenvalues --  -19.16383 -19.16241 -19.15905 -14.39070 -14.37821
 Alpha  occ. eigenvalues --  -14.37164 -14.36041 -10.34163 -10.33418 -10.31472
 Alpha  occ. eigenvalues --  -10.30995 -10.29753 -10.28544 -10.28262 -10.27930
 Alpha  occ. eigenvalues --  -10.27466 -10.27169 -10.27113 -10.26391 -10.26250
 Alpha  occ. eigenvalues --  -10.25463 -10.25429 -10.25027 -10.24895 -10.24622
 Alpha  occ. eigenvalues --  -10.24059 -10.24048 -10.24017 -10.23901 -10.23870
 Alpha  occ. eigenvalues --  -10.23765 -10.23618 -10.23571 -10.23487 -10.23402
 Alpha  occ. eigenvalues --  -10.23385 -10.23266 -10.23168 -10.23019 -10.22919
 Alpha  occ. eigenvalues --  -10.22826 -10.22711 -10.22468 -10.22293 -10.22211
 Alpha  occ. eigenvalues --  -10.22167 -10.22061 -10.21694 -10.21597 -10.21362
 Alpha  occ. eigenvalues --  -10.21260 -10.21210 -10.21160 -10.21103 -10.20673
 Alpha  occ. eigenvalues --  -10.20605 -10.20116 -10.20080 -10.19992 -10.19984
 Alpha  occ. eigenvalues --  -10.19637  -3.09991  -1.84934  -1.84454  -1.84407
 Alpha  occ. eigenvalues --   -1.14756  -1.14019  -1.05873  -1.05849  -1.05826
 Alpha  occ. eigenvalues --   -1.04899  -1.04015  -1.01626  -1.01060  -0.99491
 Alpha  occ. eigenvalues --   -0.98803  -0.88318  -0.87268  -0.86927  -0.86015
 Alpha  occ. eigenvalues --   -0.86004  -0.85625  -0.85012  -0.84337  -0.84062
 Alpha  occ. eigenvalues --   -0.83890  -0.83258  -0.82275  -0.81153  -0.80335
 Alpha  occ. eigenvalues --   -0.79314  -0.78576  -0.77621  -0.77246  -0.76651
 Alpha  occ. eigenvalues --   -0.75787  -0.75164  -0.74252  -0.72893  -0.72087
 Alpha  occ. eigenvalues --   -0.71251  -0.71070  -0.70605  -0.70446  -0.69781
 Alpha  occ. eigenvalues --   -0.69345  -0.68849  -0.67858  -0.67218  -0.66753
 Alpha  occ. eigenvalues --   -0.66578  -0.65754  -0.64078  -0.63652  -0.63362
 Alpha  occ. eigenvalues --   -0.61812  -0.61394  -0.61035  -0.59960  -0.59234
 Alpha  occ. eigenvalues --   -0.58732  -0.58273  -0.58162  -0.57368  -0.57129
 Alpha  occ. eigenvalues --   -0.56559  -0.56284  -0.55692  -0.55044  -0.54379
 Alpha  occ. eigenvalues --   -0.54267  -0.53482  -0.53179  -0.52299  -0.52128
 Alpha  occ. eigenvalues --   -0.51793  -0.51535  -0.51347  -0.51057  -0.50481
 Alpha  occ. eigenvalues --   -0.50154  -0.49923  -0.49876  -0.49755  -0.49339
 Alpha  occ. eigenvalues --   -0.49241  -0.49021  -0.48829  -0.48277  -0.48127
 Alpha  occ. eigenvalues --   -0.47978  -0.47685  -0.47398  -0.47217  -0.47156
 Alpha  occ. eigenvalues --   -0.46680  -0.46512  -0.46417  -0.46063  -0.45865
 Alpha  occ. eigenvalues --   -0.45765  -0.45600  -0.45450  -0.45189  -0.44727
 Alpha  occ. eigenvalues --   -0.44572  -0.44399  -0.44199  -0.44079  -0.43842
 Alpha  occ. eigenvalues --   -0.43623  -0.43556  -0.43418  -0.43191  -0.42952
 Alpha  occ. eigenvalues --   -0.42818  -0.42325  -0.42296  -0.42051  -0.41880
 Alpha  occ. eigenvalues --   -0.41664  -0.41586  -0.41418  -0.41342  -0.41104
 Alpha  occ. eigenvalues --   -0.40792  -0.40681  -0.40560  -0.40242  -0.40197
 Alpha  occ. eigenvalues --   -0.39745  -0.39554  -0.39302  -0.39287  -0.39128
 Alpha  occ. eigenvalues --   -0.38991  -0.38703  -0.38490  -0.38451  -0.38217
 Alpha  occ. eigenvalues --   -0.37939  -0.37867  -0.37676  -0.37326  -0.37180
 Alpha  occ. eigenvalues --   -0.36985  -0.36466  -0.36270  -0.35640  -0.35505
 Alpha  occ. eigenvalues --   -0.35318  -0.35309  -0.34640  -0.34568  -0.34517
 Alpha  occ. eigenvalues --   -0.34220  -0.33967  -0.33593  -0.33423  -0.33284
 Alpha  occ. eigenvalues --   -0.32775  -0.32683  -0.32494  -0.32014  -0.31340
 Alpha  occ. eigenvalues --   -0.31284  -0.31227  -0.30847  -0.30250  -0.29957
 Alpha  occ. eigenvalues --   -0.29191  -0.28354  -0.28171  -0.27904  -0.27582
 Alpha  occ. eigenvalues --   -0.27434  -0.27223  -0.23340  -0.21826
 Alpha virt. eigenvalues --   -0.08262  -0.06529  -0.01615  -0.01041   0.00682
 Alpha virt. eigenvalues --    0.03383   0.03607   0.04188   0.04756   0.04918
 Alpha virt. eigenvalues --    0.05224   0.06162   0.08049   0.08456   0.09391

 Mulliken charges:
               1
     1  Mg   0.819423
     2  C    0.099039
     3  C   -0.220163
     4  C   -0.193222
     5  C   -0.125224
     6  N   -0.632379
     7  C    0.251530
     8  C   -0.156749
     9  C   -0.111227
    10  C    0.350436
    11  C   -0.316404
    12  C   -0.139887
    13  C   -0.282615
    14  C    0.609329
    15  O   -0.483696
    16  O   -0.459456
    17  N   -0.704213
    18  C    0.361550
    19  C    0.034671
    20  C    0.011836
    21  C    0.273857
    22  C   -0.369957
    23  C    0.229073
    24  O   -0.429544
    25  N   -0.720026
    26  C    0.358851
    27  C   -0.050805
    28  C    0.037905
    29  C    0.281196
    30  C    0.227356
    31  C   -0.225030
    32  C   -0.316218
    33  N   -0.711401
    34  C    0.234474
    35  C    0.013820
    36  C    0.083313
    37  C    0.289342
    38  C   -0.395811
    39  C    0.333989
    40  O   -0.476809
    41  C   -0.354045
    42  C    0.635213
    43  O   -0.456759
    44  O   -0.447286
    45  C   -0.090438
    46  C   -0.009011
    47  C   -0.089013
    48  C    0.106058
    49  C   -0.371751
    50  C   -0.220932
    51  C   -0.165635
    52  C   -0.168150
    53  C   -0.056082
    54  C   -0.288181
    55  C   -0.140931
    56  C   -0.184936
    57  C   -0.180463
    58  C   -0.063938
    59  C   -0.323283
    60  C   -0.171731
    61  C   -0.161442
    62  C   -0.156503
    63  C   -0.078478
    64  C   -0.279503
    65  C   -0.303552
    66  H    0.079637
    67  H    0.163324
    68  H    0.090090
    69  H    0.143090
    70  H    0.103632
    71  H    0.108210
    72  H    0.119937
    73  H    0.104141
    74  H    0.100440
    75  H    0.129604
    76  H    0.132656
    77  H    0.146118
    78  H    0.131759
    79  H    0.155746
    80  H    0.108571
    81  H    0.103354
    82  H    0.107001
    83  H    0.123811
    84  H    0.087536
    85  H    0.124862
    86  H    0.108108
    87  H    0.136875
    88  H    0.125658
    89  H    0.136440
    90  H    0.155405
    91  H    0.105010
    92  H    0.133081
    93  H    0.075090
    94  H    0.147123
    95  H    0.114259
    96  H    0.120082
    97  H    0.057773
    98  H    0.107266
    99  H    0.101895
   100  H    0.093835
   101  H    0.074726
   102  H    0.077344
   103  H    0.089132
   104  H    0.097611
   105  H    0.097206
   106  H    0.069449
   107  H    0.059656
   108  H    0.076507
   109  H    0.096731
   110  H    0.105864
   111  H    0.092344
   112  H    0.096091
   113  H    0.085601
   114  H    0.104382
   115  H    0.096979
   116  H    0.084459
   117  H    0.094504
   118  H    0.079471
   119  H    0.096057
   120  H    0.109590
   121  H    0.056239
   122  H    0.081646
   123  H    0.066103
   124  H    0.094661
   125  H    0.090515
   126  H    0.107803
   127  H    0.069007
   128  H    0.107193
   129  H    0.107517
   130  H    0.130242
   131  H    0.141897
   132  H    0.114928
   133  O   -0.440574
   134  H    0.048322
 Sum of Mulliken charges =   0.00000

 Dipole moment (field-independent basis, Debye):
    X=              2.4015    Y=             -3.6582    Z=             -0.8656  Tot=              4.4608
 Quadrupole moment (field-independent basis, Debye-Ang):
   XX=           -383.2406   YY=           -441.4438   ZZ=           -393.3518
   XY=             -1.7236   XZ=             12.7326   YZ=            -29.5381

 Normal termination of Gaussian 09 at Fri Oct  4 20:54:38 2019.
