 Gaussian 09, Revision D.01,
 Gaussian 09:  ES64L-G09RevD.01 24-Apr-2013

 ----------------------------------------------------------------------
 # td=(NStates=1) iop(3/107=0140000000,3/108=0140000000) iop(3/107=0140
 000000,3/108=0140000000) CAM-B3LYP/6-31G(d,p)
 ----------------------------------------------------------------------

 --
 TD
 --
 Symbolic Z-matrix:
 Charge =  0 Multiplicity = 1

                         Standard orientation:
 ---------------------------------------------------------------------
 Center     Atomic      Atomic             Coordinates (Angstroms)
 Number     Number       Type             X           Y           Z
 ---------------------------------------------------------------------
      1         12           0       -5.647670    1.262780    0.252606
      2          6           0       -5.039369   -2.053792   -0.351624
      3          6           0       -3.288364    1.213142    2.701847
      4          6           0       -6.109653    4.538665    0.640077
      5          6           0       -8.031490    1.230061   -2.332919
      6          7           0       -4.283295   -0.240131    1.042279
      7          6           0       -4.199114   -1.574676    0.624284
      8          6           0       -3.209356   -2.329030    1.466885
      9          6           0       -2.828824   -1.374664    2.618566
     10          6           0       -3.475516   -0.098731    2.070214
     11          6           0       -3.461668   -1.813282    3.962878
     12          6           0       -2.025611   -2.764503    0.580592
     13          6           0       -1.046146   -3.636369    1.287542
     14          6           0        0.209178   -3.946037    0.616298
     15          8           0        0.475954   -3.514408   -0.547874
     16          8           0        1.039113   -4.774218    1.230701
     17          7           0       -4.871858    2.565480    1.431518
     18          6           0       -3.983331    2.395101    2.509129
     19          6           0       -3.748009    3.538854    3.225243
     20          6           0       -4.548231    4.506683    2.677414
     21          6           0       -5.120075    3.836798    1.488455
     22          6           0       -2.889146    3.668769    4.470531
     23          6           0       -4.492563    5.887583    3.019627
     24          8           0       -3.930084    6.516731    3.894383
     25          7           0       -6.777300    2.634453   -0.655070
     26          6           0       -6.979835    3.964786   -0.361293
     27          6           0       -7.954285    4.662690   -1.147017
     28          6           0       -8.389364    3.719512   -1.966026
     29          6           0       -7.731891    2.417106   -1.638276
     30          6           0       -8.223155    6.127588   -1.116601
     31          6           0       -9.411686    3.936341   -3.123103
     32          6           0       -8.942806    4.110204   -4.486215
     33          7           0       -6.338584   -0.112094   -1.168546
     34          6           0       -7.275831    0.067442   -2.140804
     35          6           0       -7.551275   -1.290701   -2.763739
     36          6           0       -6.646001   -2.138996   -2.100141
     37          6           0       -5.949384   -1.326397   -1.161233
     38          6           0       -8.456211   -1.599719   -3.982733
     39          6           0       -6.215359   -3.524684   -2.170389
     40          8           0       -6.636640   -4.400335   -2.771712
     41          6           0       -5.064629   -3.485364   -0.922228
     42          6           0       -5.542194   -4.581943    0.049743
     43          8           0       -6.005048   -4.386964    1.203686
     44          8           0       -5.210624   -5.813674   -0.384197
     45          6           0       -5.622446   -6.911117    0.319238
     46          6           0        2.356538   -5.142122    0.655308
     47          6           0        3.357942   -4.136224    1.048922
     48          6           0        4.049643   -3.264231    0.287893
     49          6           0        3.611905   -3.016560   -1.197308
     50          6           0        5.197434   -2.486255    0.939246
     51          6           0        6.500204   -2.681671    0.077646
     52          6           0        7.675777   -1.857484    0.631191
     53          6           0        9.021546   -2.028002   -0.147794
     54          6           0        9.504892   -3.443472   -0.003409
     55          6           0       10.011378   -0.936740    0.566769
     56          6           0       11.292972   -0.856936   -0.168571
     57          6           0       12.249091    0.299879    0.286215
     58          6           0       13.542436    0.494669   -0.552106
     59          6           0       14.478321   -0.764613   -0.281838
     60          6           0       14.269611    1.793638   -0.139092
     61          6           0       15.461642    2.057710   -1.157874
     62          6           0       16.153599    3.414057   -0.710682
     63          6           0       17.442034    3.827759   -1.448525
     64          6           0       17.188124    4.150203   -2.909353
     65          6           0       17.892417    5.191850   -0.910286
     66          1           0       -2.722780    1.165936    3.541475
     67          1           0       -6.260883    5.604465    0.782648
     68          1           0       -8.681856    1.216399   -3.120896
     69          1           0       -3.730655   -3.140599    1.936019
     70          1           0       -1.956737   -1.414870    2.789970
     71          1           0       -3.210399   -2.962059    4.195846
     72          1           0       -2.995254   -1.121815    4.944509
     73          1           0       -4.670216   -1.830894    3.894978
     74          1           0       -2.355389   -3.249477   -0.284866
     75          1           0       -1.509316   -1.815519    0.183870
     76          1           0       -0.713892   -3.163273    2.302481
     77          1           0       -1.640271   -4.540425    1.352396
     78          1           0       -1.938457    3.095071    4.507089
     79          1           0       -2.928433    4.703730    4.913686
     80          1           0       -3.612718    3.065025    5.345406
     81          1           0       -5.088949    6.743786    2.202237
     82          1           0       -9.990739    3.048715   -3.044308
     83          1           0      -10.014735    4.766923   -2.724590
     84          1           0       -9.668780    4.144781   -5.311531
     85          1           0       -8.366287    5.094692   -4.728121
     86          1           0       -8.184888    3.306330   -4.797451
     87          1           0       -8.021222   -1.066249   -4.802020
     88          1           0       -8.686091   -2.684759   -3.990586
     89          1           0       -9.518572   -1.213735   -3.882596
     90          1           0       -4.177504   -3.817222   -1.534373
     91          1           0        2.516934   -6.039396    1.084847
     92          1           0        2.274949   -5.181437   -0.535363
     93          1           0        3.786611   -4.165181    2.058365
     94          1           0        2.575767   -3.275946   -1.393155
     95          1           0        3.887227   -1.818632   -1.171314
     96          1           0        4.449644   -3.520374   -1.808510
     97          1           0        5.111483   -1.326225    0.973703
     98          1           0        5.331751   -2.857770    1.958521
     99          1           0        6.749043   -3.851204    0.251569
    100          1           0        6.343818   -2.550754   -0.984432
    101          1           0        7.306146   -0.635620    0.606118
    102          1           0        7.559497   -2.050435    1.736477
    103          1           0        8.903663   -1.834684   -1.134417
    104          1           0        8.999879   -4.076369   -0.672241
    105          1           0       10.578235   -3.537044   -0.365221
    106          1           0        9.661546   -3.532695    0.993501
    107          1           0        9.498355    0.107504    0.572000
    108          1           0       10.274325   -1.279267    1.632509
    109          1           0       11.883083   -1.674011    0.164280
    110          1           0       11.085410   -0.899342   -1.129136
    111          1           0       11.714663    1.315530    0.329753
    112          1           0       12.459281    0.135637    1.288098
    113          1           0       13.202381    0.451779   -1.549659
    114          1           0       14.778041   -0.886059    0.721344
    115          1           0       14.114395   -1.691235   -0.481463
    116          1           0       15.363154   -0.540950   -0.953173
    117          1           0       13.406052    2.610713   -0.353311
    118          1           0       14.444402    1.748346    0.931965
    119          1           0       16.223012    1.104978   -1.182282
    120          1           0       15.207695    2.290629   -2.268780
    121          1           0       15.401221    4.205116   -0.615729
    122          1           0       16.327157    3.510360    0.301696
    123          1           0       18.118483    3.014525   -1.441637
    124          1           0       16.527828    5.039728   -3.053083
    125          1           0       18.143530    4.396037   -3.347485
    126          1           0       16.776974    3.458429   -3.573062
    127          1           0       18.445708    4.945083    0.159736
    128          1           0       18.749174    5.556996   -1.567016
    129          1           0       16.908299    5.552624   -0.860493
    130          1           0       -5.684976   -7.760466   -0.371042
    131          1           0       -6.686214   -6.806876    0.793282
    132          1           0       -4.998619   -7.186153    1.351510
    133          8           0       -7.540706    6.892442   -0.378252
    134          1           0       -9.023644    6.434590   -1.908420
 ---------------------------------------------------------------------

 SCF Done:  E(RCAM-B3LYP) =  -3043.44281077     A.U. after   16 cycles

 Excitation energies and oscillator strengths:

 Excited State   1:      Singlet-A      1.9443 eV  637.69 nm  f=0.2011  <S**2>=0.000
     243 -> 246       -0.21371
     244 -> 245        0.66132
 This state for optimization and/or second-order correction.
 Total Energy, E(TD-HF/TD-KS) =  -3043.37136051
 Copying the excited state density for this state as the 1-particle RhoCI density.

 The electronic state is 1-A.
 Alpha  occ. eigenvalues --  -46.81600 -19.23514 -19.22223 -19.18942 -19.18664
 Alpha  occ. eigenvalues --  -19.16926 -19.16815 -19.15656 -14.39388 -14.37381
 Alpha  occ. eigenvalues --  -14.36865 -14.36683 -10.35736 -10.34723 -10.32748
 Alpha  occ. eigenvalues --  -10.31889 -10.30850 -10.28623 -10.28182 -10.28083
 Alpha  occ. eigenvalues --  -10.27136 -10.27020 -10.26541 -10.26510 -10.26192
 Alpha  occ. eigenvalues --  -10.26171 -10.25729 -10.25569 -10.25483 -10.25267
 Alpha  occ. eigenvalues --  -10.24804 -10.24263 -10.24249 -10.24207 -10.24178
 Alpha  occ. eigenvalues --  -10.23813 -10.23668 -10.23628 -10.23470 -10.23441
 Alpha  occ. eigenvalues --  -10.23436 -10.23096 -10.23057 -10.23040 -10.22998
 Alpha  occ. eigenvalues --  -10.22887 -10.22868 -10.22821 -10.22748 -10.22480
 Alpha  occ. eigenvalues --  -10.22419 -10.22272 -10.22205 -10.21717 -10.21706
 Alpha  occ. eigenvalues --  -10.21658 -10.21148 -10.21129 -10.20732 -10.20693
 Alpha  occ. eigenvalues --  -10.19917 -10.19734 -10.19440 -10.18958 -10.18824
 Alpha  occ. eigenvalues --  -10.18688  -3.10390  -1.85298  -1.84872  -1.84820
 Alpha  occ. eigenvalues --   -1.14557  -1.12539  -1.12506  -1.06367  -1.05589
 Alpha  occ. eigenvalues --   -1.03277  -1.02081  -1.01686  -1.01501  -1.00607
 Alpha  occ. eigenvalues --   -0.99505  -0.87929  -0.87129  -0.86015  -0.85646
 Alpha  occ. eigenvalues --   -0.85263  -0.84967  -0.84528  -0.83814  -0.83594
 Alpha  occ. eigenvalues --   -0.83204  -0.82539  -0.82310  -0.80405  -0.80127
 Alpha  occ. eigenvalues --   -0.79406  -0.78647  -0.77670  -0.76955  -0.76195
 Alpha  occ. eigenvalues --   -0.75500  -0.74489  -0.73842  -0.72221  -0.71842
 Alpha  occ. eigenvalues --   -0.70921  -0.70765  -0.70383  -0.69672  -0.69410
 Alpha  occ. eigenvalues --   -0.69207  -0.68580  -0.67463  -0.66957  -0.66498
 Alpha  occ. eigenvalues --   -0.65914  -0.64475  -0.64115  -0.63234  -0.61903
 Alpha  occ. eigenvalues --   -0.61579  -0.61249  -0.60209  -0.59835  -0.59616
 Alpha  occ. eigenvalues --   -0.59355  -0.58975  -0.58355  -0.57791  -0.57632
 Alpha  occ. eigenvalues --   -0.56899  -0.55670  -0.55177  -0.54722  -0.54527
 Alpha  occ. eigenvalues --   -0.54179  -0.53673  -0.52895  -0.52637  -0.52079
 Alpha  occ. eigenvalues --   -0.51709  -0.51316  -0.51160  -0.51055  -0.50927
 Alpha  occ. eigenvalues --   -0.50307  -0.50066  -0.49752  -0.49609  -0.49438
 Alpha  occ. eigenvalues --   -0.48893  -0.48730  -0.48433  -0.48409  -0.48083
 Alpha  occ. eigenvalues --   -0.47874  -0.47613  -0.47449  -0.47287  -0.47004
 Alpha  occ. eigenvalues --   -0.46827  -0.46410  -0.46361  -0.46165  -0.45965
 Alpha  occ. eigenvalues --   -0.45629  -0.45490  -0.45286  -0.45067  -0.44772
 Alpha  occ. eigenvalues --   -0.44605  -0.44444  -0.44234  -0.44139  -0.43857
 Alpha  occ. eigenvalues --   -0.43633  -0.43409  -0.43196  -0.43071  -0.42873
 Alpha  occ. eigenvalues --   -0.42545  -0.42359  -0.41851  -0.41667  -0.41507
 Alpha  occ. eigenvalues --   -0.41371  -0.41207  -0.41087  -0.41018  -0.40903
 Alpha  occ. eigenvalues --   -0.40649  -0.40416  -0.40309  -0.40248  -0.40068
 Alpha  occ. eigenvalues --   -0.40030  -0.39719  -0.39573  -0.39370  -0.39315
 Alpha  occ. eigenvalues --   -0.39075  -0.38789  -0.38267  -0.38177  -0.38029
 Alpha  occ. eigenvalues --   -0.37704  -0.37611  -0.37380  -0.36824  -0.36705
 Alpha  occ. eigenvalues --   -0.36557  -0.36516  -0.36260  -0.36132  -0.36083
 Alpha  occ. eigenvalues --   -0.35720  -0.35577  -0.35488  -0.35066  -0.34888
 Alpha  occ. eigenvalues --   -0.34814  -0.34638  -0.33712  -0.33035  -0.32786
 Alpha  occ. eigenvalues --   -0.32645  -0.32591  -0.32512  -0.31943  -0.31786
 Alpha  occ. eigenvalues --   -0.31514  -0.30575  -0.29884  -0.29860  -0.29659
 Alpha  occ. eigenvalues --   -0.29260  -0.29047  -0.28746  -0.28582  -0.27628
 Alpha  occ. eigenvalues --   -0.27122  -0.26187  -0.22991  -0.20727
 Alpha virt. eigenvalues --   -0.08334  -0.06196  -0.01708  -0.01183   0.00700
 Alpha virt. eigenvalues --    0.02293   0.02951   0.03038   0.03836   0.04526
 Alpha virt. eigenvalues --    0.05085   0.05979   0.07992   0.08620   0.09286

 Mulliken charges:
               1
     1  Mg   0.856118
     2  C    0.101411
     3  C   -0.176358
     4  C   -0.201313
     5  C   -0.142560
     6  N   -0.597151
     7  C    0.282765
     8  C   -0.171334
     9  C   -0.046736
    10  C    0.313233
    11  C   -0.307166
    12  C   -0.171952
    13  C   -0.252981
    14  C    0.600319
    15  O   -0.509520
    16  O   -0.463890
    17  N   -0.710738
    18  C    0.296179
    19  C    0.096721
    20  C   -0.013716
    21  C    0.317111
    22  C   -0.381881
    23  C    0.226949
    24  O   -0.414913
    25  N   -0.688385
    26  C    0.266063
    27  C    0.059337
    28  C   -0.040428
    29  C    0.302916
    30  C    0.257935
    31  C   -0.223139
    32  C   -0.311514
    33  N   -0.705979
    34  C    0.237295
    35  C   -0.012204
    36  C    0.019678
    37  C    0.325949
    38  C   -0.381371
    39  C    0.344522
    40  O   -0.381742
    41  C   -0.386054
    42  C    0.622189
    43  O   -0.494214
    44  O   -0.401641
    45  C   -0.086638
    46  C    0.014970
    47  C   -0.133446
    48  C    0.141849
    49  C   -0.362307
    50  C   -0.234475
    51  C   -0.181768
    52  C   -0.144965
    53  C   -0.067373
    54  C   -0.302746
    55  C   -0.174790
    56  C   -0.164317
    57  C   -0.187321
    58  C   -0.053795
    59  C   -0.323826
    60  C   -0.161353
    61  C   -0.174319
    62  C   -0.184043
    63  C   -0.067040
    64  C   -0.307952
    65  C   -0.280532
    66  H    0.061374
    67  H    0.128314
    68  H    0.084213
    69  H    0.130785
    70  H    0.081121
    71  H    0.104278
    72  H    0.082695
    73  H    0.118440
    74  H    0.125413
    75  H    0.113335
    76  H    0.122349
    77  H    0.147458
    78  H    0.128955
    79  H    0.167935
    80  H    0.088816
    81  H    0.019488
    82  H    0.120458
    83  H    0.105083
    84  H    0.119934
    85  H    0.101136
    86  H    0.105819
    87  H    0.144815
    88  H    0.147815
    89  H    0.113185
    90  H    0.156929
    91  H    0.124928
    92  H    0.121386
    93  H    0.066796
    94  H    0.165198
    95  H    0.089678
    96  H    0.111072
    97  H    0.095695
    98  H    0.102593
    99  H    0.075472
   100  H    0.100936
   101  H    0.041780
   102  H    0.091475
   103  H    0.093775
   104  H    0.115453
   105  H    0.084745
   106  H    0.115249
   107  H    0.082168
   108  H    0.076834
   109  H    0.100634
   110  H    0.093263
   111  H    0.058521
   112  H    0.088201
   113  H    0.091336
   114  H    0.101257
   115  H    0.108077
   116  H    0.086692
   117  H    0.075880
   118  H    0.105922
   119  H    0.079255
   120  H    0.099104
   121  H    0.082108
   122  H    0.093181
   123  H    0.090092
   124  H    0.089042
   125  H    0.094803
   126  H    0.097033
   127  H    0.067794
   128  H    0.101472
   129  H    0.117503
   130  H    0.128708
   131  H    0.119814
   132  H    0.090327
   133  O   -0.421416
   134  H    0.084395
 Sum of Mulliken charges =   0.00000

 Dipole moment (field-independent basis, Debye):
    X=              1.1710    Y=             -5.7702    Z=             -1.7182  Tot=              6.1335
 Quadrupole moment (field-independent basis, Debye-Ang):
   XX=           -360.3644   YY=           -442.9305   ZZ=           -390.7411
   XY=             -4.3553   XZ=             28.8776   YZ=            -34.6519

 Normal termination of Gaussian 09 at Thu Oct  3 20:22:33 2019.
