 Gaussian 09, Revision D.01,
 Gaussian 09:  ES64L-G09RevD.01 24-Apr-2013

 ----------------------------------------------------------------------
 # td=(NStates=1) iop(3/107=0140000000,3/108=0140000000) iop(3/107=0140
 000000,3/108=0140000000) CAM-B3LYP/6-31G(d,p)
 ----------------------------------------------------------------------

 --
 TD
 --
 Symbolic Z-matrix:
 Charge =  0 Multiplicity = 1

                         Standard orientation:
 ---------------------------------------------------------------------
 Center     Atomic      Atomic             Coordinates (Angstroms)
 Number     Number       Type             X           Y           Z
 ---------------------------------------------------------------------
      1         12           0       -5.565467    1.243015    0.166021
      2          6           0       -4.993171   -2.096647   -0.451253
      3          6           0       -3.446258    1.179994    2.785130
      4          6           0       -6.292760    4.527552    0.760136
      5          6           0       -7.979886    1.194935   -2.465212
      6          7           0       -4.471345   -0.265497    1.082679
      7          6           0       -4.259598   -1.635530    0.690660
      8          6           0       -3.252380   -2.315821    1.601469
      9          6           0       -2.928040   -1.362038    2.677363
     10          6           0       -3.648228   -0.076761    2.172958
     11          6           0       -3.502391   -1.701721    4.059613
     12          6           0       -1.963534   -2.662595    0.691014
     13          6           0       -0.896699   -3.393632    1.481298
     14          6           0        0.278753   -3.716549    0.660209
     15          8           0        0.538623   -3.254406   -0.407107
     16          8           0        1.078564   -4.555389    1.462562
     17          7           0       -4.931576    2.578506    1.412284
     18          6           0       -4.061839    2.409541    2.508408
     19          6           0       -3.850157    3.717297    3.180067
     20          6           0       -4.671524    4.602663    2.548009
     21          6           0       -5.358858    3.954770    1.500235
     22          6           0       -2.926188    3.908810    4.386151
     23          6           0       -4.734924    5.996041    2.782740
     24          8           0       -4.032870    6.637627    3.624896
     25          7           0       -6.900530    2.590686   -0.680370
     26          6           0       -7.042413    3.860004   -0.386433
     27          6           0       -8.049171    4.496137   -1.259872
     28          6           0       -8.491019    3.567816   -2.148382
     29          6           0       -7.762508    2.347234   -1.760915
     30          6           0       -8.424557    5.898049   -1.246312
     31          6           0       -9.428785    3.770064   -3.265539
     32          6           0       -8.757350    3.907053   -4.583152
     33          7           0       -6.399954   -0.145149   -1.059364
     34          6           0       -7.509487   -0.083507   -2.003345
     35          6           0       -7.680843   -1.331646   -2.575908
     36          6           0       -6.696862   -2.125953   -2.000703
     37          6           0       -5.992516   -1.380818   -1.101100
     38          6           0       -8.639282   -1.782337   -3.708267
     39          6           0       -6.228944   -3.570910   -2.047086
     40          8           0       -6.559206   -4.518239   -2.582552
     41          6           0       -5.095134   -3.547237   -0.996384
     42          6           0       -5.229777   -4.582490    0.133860
     43          8           0       -5.650507   -4.515443    1.235681
     44          8           0       -4.991499   -5.822463   -0.425484
     45          6           0       -5.351486   -7.039143    0.345451
     46          6           0        2.369247   -5.079012    0.820588
     47          6           0        3.416852   -3.991073    1.125293
     48          6           0        4.129197   -3.297021    0.103346
     49          6           0        3.790289   -3.234367   -1.371177
     50          6           0        5.192394   -2.296610    0.573315
     51          6           0        6.608768   -2.646848    0.058145
     52          6           0        7.669602   -1.680316    0.501078
     53          6           0        9.098811   -1.861357   -0.149226
     54          6           0        9.516124   -3.273379    0.063205
     55          6           0       10.014863   -0.863088    0.377602
     56          6           0       11.455763   -0.878856   -0.156091
     57          6           0       12.289967    0.366943    0.297294
     58          6           0       13.603955    0.367090   -0.464567
     59          6           0       14.520463   -0.812803   -0.225603
     60          6           0       14.315859    1.824987   -0.094967
     61          6           0       15.526551    2.052328   -0.928317
     62          6           0       16.148082    3.566234   -0.737625
     63          6           0       17.441260    3.834995   -1.412829
     64          6           0       17.498237    3.827644   -2.925779
     65          6           0       17.912555    5.272808   -0.864044
     66          1           0       -2.526931    1.226061    3.560443
     67          1           0       -6.644834    5.599896    0.968621
     68          1           0       -8.834598    1.135237   -3.141981
     69          1           0       -3.644324   -3.342034    1.828272
     70          1           0       -1.784833   -1.161874    2.773115
     71          1           0       -2.836312   -2.651387    4.379767
     72          1           0       -3.436048   -0.962304    4.827684
     73          1           0       -4.475335   -2.167139    3.964944
     74          1           0       -2.493241   -3.322693   -0.140929
     75          1           0       -1.474591   -1.955643    0.203470
     76          1           0       -0.522167   -3.103807    2.353394
     77          1           0       -1.368140   -4.347699    1.911260
     78          1           0       -1.887286    3.540829    4.227401
     79          1           0       -2.928525    5.087148    4.499751
     80          1           0       -3.319298    3.438615    5.298714
     81          1           0       -5.403738    6.627408    2.128431
     82          1           0      -10.303696    3.140889   -3.482230
     83          1           0       -9.972496    4.618392   -2.944211
     84          1           0       -9.495264    3.889651   -5.377592
     85          1           0       -8.003752    4.719747   -4.562372
     86          1           0       -8.153013    2.907670   -4.681047
     87          1           0       -8.533192   -1.510570   -4.821964
     88          1           0       -8.671106   -2.889414   -3.648933
     89          1           0       -9.703051   -1.447044   -3.720439
     90          1           0       -4.123160   -3.828032   -1.589143
     91          1           0        2.470016   -5.973328    1.383554
     92          1           0        2.202368   -5.201182   -0.181642
     93          1           0        3.516632   -3.920441    2.187407
     94          1           0        2.847110   -3.804993   -1.894710
     95          1           0        3.786358   -2.254494   -1.910694
     96          1           0        4.788943   -3.720739   -1.948548
     97          1           0        4.802645   -1.460125    0.281652
     98          1           0        5.323385   -2.274966    1.827166
     99          1           0        6.687751   -3.665680    0.340094
    100          1           0        6.488939   -2.813822   -1.146392
    101          1           0        7.351445   -0.625478    0.289435
    102          1           0        7.908896   -1.680772    1.617862
    103          1           0        9.020548   -1.630828   -1.421554
    104          1           0        8.915274   -4.059850   -0.461847
    105          1           0       10.521189   -3.446637   -0.355444
    106          1           0        9.517365   -3.619330    1.047719
    107          1           0        9.286995    0.136348    0.348254
    108          1           0       10.015921   -1.081672    1.614671
    109          1           0       11.944947   -1.718951    0.180901
    110          1           0       11.409892   -0.928504   -1.370765
    111          1           0       11.619065    1.393756    0.184193
    112          1           0       12.317244    0.454891    1.382336
    113          1           0       13.387896    0.557757   -1.529764
    114          1           0       14.547945   -0.924962    0.926203
    115          1           0       14.182448   -1.864607   -0.774240
    116          1           0       15.629293   -0.683113   -0.686953
    117          1           0       13.666403    2.727656   -0.216682
    118          1           0       14.529793    1.575169    0.902327
    119          1           0       16.402343    1.238604   -0.677059
    120          1           0       15.388396    1.795476   -2.060485
    121          1           0       15.353474    4.162923   -1.137849
    122          1           0       16.041895    3.837925    0.375240
    123          1           0       18.251588    3.091527   -1.066112
    124          1           0       16.829654    4.508300   -3.403263
    125          1           0       18.463369    4.149893   -3.231912
    126          1           0       17.156856    2.960381   -3.584019
    127          1           0       17.767745    5.170367    0.162075
    128          1           0       19.222755    5.407692   -1.211392
    129          1           0       17.372504    6.191279   -1.374588
    130          1           0       -5.073275   -7.845783   -0.225512
    131          1           0       -6.378782   -7.267900    0.321193
    132          1           0       -4.834266   -7.114745    1.356548
    133          8           0       -8.041638    6.774353   -0.422980
    134          1           0       -9.040455    6.001207   -2.158094
 ---------------------------------------------------------------------

 SCF Done:  E(RCAM-B3LYP) =  -3043.45723259     A.U. after   15 cycles

 Excitation energies and oscillator strengths:

 Excited State   1:      Singlet-A      2.1457 eV  577.83 nm  f=0.1632  <S**2>=0.000
     243 -> 245        0.15637
     243 -> 246        0.24594
     244 -> 245        0.62546
     244 -> 246       -0.11569
 This state for optimization and/or second-order correction.
 Total Energy, E(TD-HF/TD-KS) =  -3043.37837973
 Copying the excited state density for this state as the 1-particle RhoCI density.

 The electronic state is 1-A.
 Alpha  occ. eigenvalues --  -46.80158 -19.21110 -19.20496 -19.17713 -19.17576
 Alpha  occ. eigenvalues --  -19.17569 -19.17452 -19.17112 -14.39164 -14.37737
 Alpha  occ. eigenvalues --  -14.36965 -14.35538 -10.34958 -10.34336 -10.31049
 Alpha  occ. eigenvalues --  -10.30495 -10.30446 -10.28421 -10.28090 -10.27768
 Alpha  occ. eigenvalues --  -10.27546 -10.26625 -10.26418 -10.26188 -10.25910
 Alpha  occ. eigenvalues --  -10.25780 -10.25356 -10.25168 -10.25105 -10.25027
 Alpha  occ. eigenvalues --  -10.24931 -10.24779 -10.24680 -10.24622 -10.24158
 Alpha  occ. eigenvalues --  -10.24103 -10.23991 -10.23893 -10.23823 -10.23649
 Alpha  occ. eigenvalues --  -10.23219 -10.23189 -10.23188 -10.23078 -10.23028
 Alpha  occ. eigenvalues --  -10.23015 -10.22946 -10.22867 -10.22818 -10.22659
 Alpha  occ. eigenvalues --  -10.22648 -10.22623 -10.22623 -10.22454 -10.22359
 Alpha  occ. eigenvalues --  -10.22230 -10.22200 -10.22046 -10.22013 -10.22000
 Alpha  occ. eigenvalues --  -10.21898 -10.21321 -10.20819 -10.20656 -10.19745
 Alpha  occ. eigenvalues --  -10.19622  -3.09029  -1.83941  -1.83523  -1.83447
 Alpha  occ. eigenvalues --   -1.13011  -1.11838  -1.11284  -1.04419  -1.04187
 Alpha  occ. eigenvalues --   -1.04068  -1.03709  -1.00757  -0.99824  -0.98587
 Alpha  occ. eigenvalues --   -0.97630  -0.87745  -0.87167  -0.86239  -0.85991
 Alpha  occ. eigenvalues --   -0.84695  -0.84638  -0.83989  -0.83680  -0.83001
 Alpha  occ. eigenvalues --   -0.82923  -0.82825  -0.82039  -0.80260  -0.79879
 Alpha  occ. eigenvalues --   -0.79248  -0.77946  -0.77509  -0.76521  -0.75843
 Alpha  occ. eigenvalues --   -0.74696  -0.74363  -0.73782  -0.73193  -0.71865
 Alpha  occ. eigenvalues --   -0.71277  -0.71042  -0.70049  -0.69785  -0.69082
 Alpha  occ. eigenvalues --   -0.68772  -0.68694  -0.67574  -0.67449  -0.66831
 Alpha  occ. eigenvalues --   -0.66586  -0.64949  -0.63365  -0.62395  -0.61778
 Alpha  occ. eigenvalues --   -0.61344  -0.59888  -0.59846  -0.58955  -0.58682
 Alpha  occ. eigenvalues --   -0.58543  -0.58299  -0.57792  -0.57242  -0.56667
 Alpha  occ. eigenvalues --   -0.56160  -0.55970  -0.55436  -0.55184  -0.54450
 Alpha  occ. eigenvalues --   -0.53687  -0.53360  -0.53042  -0.52576  -0.51493
 Alpha  occ. eigenvalues --   -0.51124  -0.50744  -0.50604  -0.50190  -0.50020
 Alpha  occ. eigenvalues --   -0.49775  -0.49681  -0.49432  -0.48880  -0.48657
 Alpha  occ. eigenvalues --   -0.48496  -0.48266  -0.48002  -0.47907  -0.47857
 Alpha  occ. eigenvalues --   -0.47570  -0.47411  -0.47002  -0.46738  -0.46629
 Alpha  occ. eigenvalues --   -0.46576  -0.46499  -0.45972  -0.45805  -0.45643
 Alpha  occ. eigenvalues --   -0.45568  -0.45220  -0.44865  -0.44748  -0.44514
 Alpha  occ. eigenvalues --   -0.44418  -0.44057  -0.43779  -0.43538  -0.43301
 Alpha  occ. eigenvalues --   -0.43247  -0.43044  -0.42974  -0.42669  -0.42561
 Alpha  occ. eigenvalues --   -0.42513  -0.42327  -0.42158  -0.42047  -0.41669
 Alpha  occ. eigenvalues --   -0.41524  -0.41462  -0.41124  -0.41099  -0.40727
 Alpha  occ. eigenvalues --   -0.40623  -0.40466  -0.40356  -0.40300  -0.40165
 Alpha  occ. eigenvalues --   -0.39802  -0.39700  -0.39590  -0.39211  -0.39075
 Alpha  occ. eigenvalues --   -0.38910  -0.38652  -0.38560  -0.38448  -0.38198
 Alpha  occ. eigenvalues --   -0.38170  -0.37763  -0.37743  -0.37517  -0.37315
 Alpha  occ. eigenvalues --   -0.37032  -0.36802  -0.36752  -0.36325  -0.35868
 Alpha  occ. eigenvalues --   -0.35751  -0.34976  -0.34785  -0.34698  -0.34652
 Alpha  occ. eigenvalues --   -0.34172  -0.33905  -0.33834  -0.33340  -0.32995
 Alpha  occ. eigenvalues --   -0.32929  -0.32449  -0.32384  -0.32168  -0.31854
 Alpha  occ. eigenvalues --   -0.31463  -0.30929  -0.30857  -0.30000  -0.29101
 Alpha  occ. eigenvalues --   -0.28737  -0.28501  -0.28053  -0.27746  -0.27589
 Alpha  occ. eigenvalues --   -0.27196  -0.25960  -0.23184  -0.21647
 Alpha virt. eigenvalues --   -0.08262  -0.06674  -0.01677  -0.01413   0.01048
 Alpha virt. eigenvalues --    0.01972   0.02894   0.03515   0.04096   0.04549
 Alpha virt. eigenvalues --    0.04876   0.06316   0.07983   0.08169   0.09101

 Mulliken charges:
               1
     1  Mg   0.826512
     2  C    0.016184
     3  C   -0.225472
     4  C   -0.213325
     5  C   -0.142956
     6  N   -0.623132
     7  C    0.304632
     8  C   -0.163036
     9  C   -0.124422
    10  C    0.348252
    11  C   -0.304245
    12  C   -0.173661
    13  C   -0.263493
    14  C    0.613460
    15  O   -0.451469
    16  O   -0.523236
    17  N   -0.742358
    18  C    0.319142
    19  C    0.053505
    20  C    0.028485
    21  C    0.359207
    22  C   -0.400865
    23  C    0.218772
    24  O   -0.444328
    25  N   -0.660350
    26  C    0.302699
    27  C   -0.031053
    28  C    0.054889
    29  C    0.266233
    30  C    0.255216
    31  C   -0.260601
    32  C   -0.299283
    33  N   -0.733985
    34  C    0.184410
    35  C    0.042922
    36  C   -0.050260
    37  C    0.389368
    38  C   -0.397787
    39  C    0.395243
    40  O   -0.386311
    41  C   -0.328347
    42  C    0.604318
    43  O   -0.446443
    44  O   -0.469772
    45  C   -0.086118
    46  C    0.002832
    47  C   -0.123499
    48  C    0.110887
    49  C   -0.358585
    50  C   -0.198779
    51  C   -0.166749
    52  C   -0.168063
    53  C   -0.024242
    54  C   -0.313930
    55  C   -0.134855
    56  C   -0.167333
    57  C   -0.170906
    58  C   -0.058741
    59  C   -0.299556
    60  C   -0.172586
    61  C   -0.172254
    62  C   -0.179166
    63  C   -0.042625
    64  C   -0.313603
    65  C   -0.279409
    66  H    0.079671
    67  H    0.146067
    68  H    0.107249
    69  H    0.132278
    70  H    0.111119
    71  H    0.082890
    72  H    0.126604
    73  H    0.139949
    74  H    0.094170
    75  H    0.134025
    76  H    0.147894
    77  H    0.123484
    78  H    0.121445
    79  H    0.164148
    80  H    0.135162
    81  H    0.094702
    82  H    0.117582
    83  H    0.112447
    84  H    0.116210
    85  H    0.118625
    86  H    0.100103
    87  H    0.119768
    88  H    0.143501
    89  H    0.115064
    90  H    0.153388
    91  H    0.123865
    92  H    0.125229
    93  H    0.096397
    94  H    0.127449
    95  H    0.133791
    96  H    0.082123
    97  H    0.118635
    98  H    0.064125
    99  H    0.111249
   100  H    0.067998
   101  H    0.089429
   102  H    0.087090
   103  H    0.036514
   104  H    0.098987
   105  H    0.095895
   106  H    0.107686
   107  H    0.065258
   108  H    0.043744
   109  H    0.120521
   110  H    0.072128
   111  H    0.065528
   112  H    0.095505
   113  H    0.092193
   114  H    0.099160
   115  H    0.088532
   116  H    0.098705
   117  H    0.090639
   118  H    0.102397
   119  H    0.060569
   120  H    0.079012
   121  H    0.098576
   122  H    0.083520
   123  H    0.085980
   124  H    0.101786
   125  H    0.109244
   126  H    0.090187
   127  H    0.116708
   128  H    0.038999
   129  H    0.099472
   130  H    0.129922
   131  H    0.132605
   132  H    0.121415
   133  O   -0.460778
   134  H    0.068483
 Sum of Mulliken charges =   0.00000

 Dipole moment (field-independent basis, Debye):
    X=              1.9605    Y=             -5.1371    Z=             -1.2490  Tot=              5.6386
 Quadrupole moment (field-independent basis, Debye-Ang):
   XX=           -386.1290   YY=           -438.5253   ZZ=           -388.8244
   XY=              5.2723   XZ=             27.7247   YZ=            -32.5225

 Normal termination of Gaussian 09 at Fri Oct  4 04:34:25 2019.
