 Gaussian 09, Revision D.01,
 Gaussian 09:  ES64L-G09RevD.01 24-Apr-2013

 ----------------------------------------------------------------------
 # td=(NStates=1) iop(3/107=0140000000,3/108=0140000000) iop(3/107=0140
 000000,3/108=0140000000) CAM-B3LYP/6-31G(d,p)
 ----------------------------------------------------------------------

 --
 TD
 --
 Symbolic Z-matrix:
 Charge =  0 Multiplicity = 1

                         Standard orientation:
 ---------------------------------------------------------------------
 Center     Atomic      Atomic             Coordinates (Angstroms)
 Number     Number       Type             X           Y           Z
 ---------------------------------------------------------------------
      1         12           0       -5.639369    1.208430    0.210039
      2          6           0       -4.972993   -2.159037   -0.363047
      3          6           0       -3.442262    1.105824    2.817047
      4          6           0       -6.240294    4.529582    0.777314
      5          6           0       -7.825471    1.183809   -2.499092
      6          7           0       -4.328338   -0.304577    1.089822
      7          6           0       -4.272755   -1.606400    0.695537
      8          6           0       -3.210932   -2.326736    1.445096
      9          6           0       -2.924790   -1.369067    2.705503
     10          6           0       -3.545342   -0.103557    2.134995
     11          6           0       -3.632558   -1.747628    3.995068
     12          6           0       -1.959826   -2.665446    0.639012
     13          6           0       -1.006830   -3.390152    1.547772
     14          6           0        0.215821   -3.716676    0.626365
     15          8           0        0.526459   -3.363400   -0.397082
     16          8           0        1.020255   -4.669499    1.312362
     17          7           0       -4.933636    2.621180    1.562295
     18          6           0       -3.969323    2.409587    2.514675
     19          6           0       -3.770534    3.670174    3.191716
     20          6           0       -4.533622    4.580672    2.546181
     21          6           0       -5.283071    3.921433    1.607197
     22          6           0       -2.791525    3.816091    4.424853
     23          6           0       -4.737054    5.898541    3.037503
     24          8           0       -4.045441    6.525744    3.836778
     25          7           0       -6.864023    2.599253   -0.604568
     26          6           0       -6.968826    3.955653   -0.330924
     27          6           0       -7.826323    4.665074   -1.266803
     28          6           0       -8.313282    3.723608   -2.217575
     29          6           0       -7.651329    2.431677   -1.877066
     30          6           0       -8.291747    6.028310   -1.196196
     31          6           0       -9.354476    3.875767   -3.317490
     32          6           0       -8.592218    4.042578   -4.591501
     33          7           0       -6.359009   -0.115929   -1.119434
     34          6           0       -7.319561   -0.053822   -2.158227
     35          6           0       -7.386661   -1.360051   -2.765484
     36          6           0       -6.618666   -2.213114   -2.064342
     37          6           0       -5.918173   -1.417457   -1.072111
     38          6           0       -8.273646   -1.766255   -3.987564
     39          6           0       -6.145278   -3.595608   -2.016154
     40          8           0       -6.514185   -4.548617   -2.545517
     41          6           0       -4.993460   -3.584382   -0.879426
     42          6           0       -5.212392   -4.724991    0.021686
     43          8           0       -5.690609   -4.642830    1.130196
     44          8           0       -4.819371   -5.887688   -0.500018
     45          6           0       -5.212674   -6.902846    0.338863
     46          6           0        2.231935   -5.010813    0.665227
     47          6           0        3.344673   -4.069284    1.059919
     48          6           0        4.015186   -3.255112    0.230018
     49          6           0        3.789366   -3.140807   -1.288102
     50          6           0        5.121861   -2.342863    0.566391
     51          6           0        6.420776   -2.592254    0.089185
     52          6           0        7.573776   -1.687649    0.659002
     53          6           0        8.951976   -1.960555    0.092665
     54          6           0        9.444592   -3.333598    0.346739
     55          6           0        9.979106   -0.799913    0.526532
     56          6           0       11.215726   -0.785542   -0.314685
     57          6           0       12.158277    0.314032    0.168067
     58          6           0       13.472455    0.367650   -0.646356
     59          6           0       14.340707   -0.774841   -0.445872
     60          6           0       14.252598    1.696669   -0.259698
     61          6           0       15.499426    2.173992   -1.036479
     62          6           0       16.035160    3.520171   -0.596035
     63          6           0       17.248541    3.886114   -1.391754
     64          6           0       17.103823    3.975655   -2.919895
     65          6           0       17.792829    5.156825   -0.868195
     66          1           0       -2.957746    1.043513    3.611280
     67          1           0       -6.511524    5.512917    0.833774
     68          1           0       -8.813754    1.040367   -3.186908
     69          1           0       -3.699460   -3.274618    1.848286
     70          1           0       -1.903481   -1.192352    2.741056
     71          1           0       -3.229877   -2.578917    4.407402
     72          1           0       -3.402989   -1.090911    4.898268
     73          1           0       -4.779232   -1.910310    3.874144
     74          1           0       -1.995908   -3.136160   -0.481264
     75          1           0       -1.643487   -1.831349    0.371483
     76          1           0       -0.746246   -3.029836    2.390632
     77          1           0       -1.488449   -4.472383    1.844342
     78          1           0       -1.795245    3.608212    3.936456
     79          1           0       -2.732526    4.892911    4.646391
     80          1           0       -3.096230    3.014730    5.108982
     81          1           0       -5.633018    6.417721    2.535099
     82          1           0      -10.310597    3.224353   -3.388163
     83          1           0       -9.760852    4.885269   -2.980462
     84          1           0       -9.328136    4.167686   -5.531222
     85          1           0       -7.905285    4.833454   -4.617273
     86          1           0       -7.826606    2.990481   -4.673736
     87          1           0       -8.010631   -0.968113   -4.931753
     88          1           0       -8.042349   -2.775533   -4.192760
     89          1           0       -9.343075   -1.522562   -3.919404
     90          1           0       -4.165684   -3.835268   -1.478328
     91          1           0        2.639330   -5.988572    1.093908
     92          1           0        2.226051   -5.097034   -0.404845
     93          1           0        3.778375   -4.161234    2.000107
     94          1           0        2.650112   -3.410502   -1.481613
     95          1           0        3.893357   -2.186296   -1.753461
     96          1           0        4.191575   -3.992880   -1.853492
     97          1           0        4.667610   -1.326494    0.487905
     98          1           0        5.108858   -2.472654    1.615666
     99          1           0        6.575434   -3.569048    0.368726
    100          1           0        6.277261   -2.641475   -1.045806
    101          1           0        7.399312   -0.608233    0.632704
    102          1           0        7.574591   -2.021483    1.760795
    103          1           0        8.726982   -1.668007   -0.862404
    104          1           0        8.689239   -4.149086    0.143277
    105          1           0       10.435378   -3.543245   -0.047922
    106          1           0        9.435200   -3.589260    1.392989
    107          1           0        9.452307    0.093924    0.417240
    108          1           0       10.226430   -1.012082    1.528968
    109          1           0       11.583120   -1.810752   -0.346531
    110          1           0       10.830826   -0.789253   -1.277926
    111          1           0       11.593090    1.322716    0.314504
    112          1           0       12.326055    0.100125    1.222855
    113          1           0       13.235359    0.542801   -1.696360
    114          1           0       14.659351   -1.027200    0.654942
    115          1           0       13.998070   -1.728686   -0.762714
    116          1           0       15.199026   -0.523472   -1.100596
    117          1           0       13.382653    2.539252   -0.140608
    118          1           0       14.384950    1.514278    0.798579
    119          1           0       16.308398    1.324347   -0.830637
    120          1           0       14.824577    2.351724   -2.005943
    121          1           0       15.291443    4.388005   -0.704405
    122          1           0       16.272947    3.423629    0.476893
    123          1           0       18.102292    3.375220   -1.288942
    124          1           0       16.185017    4.576619   -3.118565
    125          1           0       18.092202    4.251652   -3.418951
    126          1           0       16.837227    3.064226   -3.346088
    127          1           0       17.843126    5.227407    0.279132
    128          1           0       18.860098    5.400020   -1.214245
    129          1           0       17.052464    6.084232   -1.091995
    130          1           0       -5.000554   -7.854731   -0.070237
    131          1           0       -6.379683   -6.841398    0.584219
    132          1           0       -4.828351   -6.948733    1.375252
    133          8           0       -7.917691    6.857269   -0.399957
    134          1           0       -8.950873    6.261664   -2.062406
 ---------------------------------------------------------------------

 SCF Done:  E(RCAM-B3LYP) =  -3043.46279644     A.U. after   15 cycles

 Excitation energies and oscillator strengths:

 Excited State   1:      Singlet-A      2.0812 eV  595.72 nm  f=0.1277  <S**2>=0.000
     243 -> 246        0.32353
     244 -> 245        0.62072
 This state for optimization and/or second-order correction.
 Total Energy, E(TD-HF/TD-KS) =  -3043.38631199
 Copying the excited state density for this state as the 1-particle RhoCI density.

 The electronic state is 1-A.
 Alpha  occ. eigenvalues --  -46.81621 -19.24020 -19.20361 -19.19407 -19.18775
 Alpha  occ. eigenvalues --  -19.17317 -19.17144 -19.16728 -14.39063 -14.37634
 Alpha  occ. eigenvalues --  -14.36964 -14.36606 -10.35232 -10.35029 -10.32295
 Alpha  occ. eigenvalues --  -10.30268 -10.29774 -10.27476 -10.27329 -10.27268
 Alpha  occ. eigenvalues --  -10.27008 -10.26987 -10.26839 -10.26800 -10.26442
 Alpha  occ. eigenvalues --  -10.26365 -10.26176 -10.25849 -10.25727 -10.25593
 Alpha  occ. eigenvalues --  -10.25109 -10.24693 -10.24616 -10.24589 -10.24411
 Alpha  occ. eigenvalues --  -10.24325 -10.24286 -10.24283 -10.24242 -10.23537
 Alpha  occ. eigenvalues --  -10.23385 -10.23182 -10.23147 -10.22912 -10.22571
 Alpha  occ. eigenvalues --  -10.22322 -10.22191 -10.21594 -10.21563 -10.21329
 Alpha  occ. eigenvalues --  -10.21316 -10.21262 -10.21167 -10.21094 -10.20874
 Alpha  occ. eigenvalues --  -10.20550 -10.20293 -10.20288 -10.20161 -10.20151
 Alpha  occ. eigenvalues --  -10.20140 -10.19907 -10.19774 -10.19516 -10.19332
 Alpha  occ. eigenvalues --  -10.19142  -3.10148  -1.85093  -1.84625  -1.84545
 Alpha  occ. eigenvalues --   -1.16623  -1.16407  -1.12306  -1.07482  -1.05947
 Alpha  occ. eigenvalues --   -1.05853  -1.05739  -1.01767  -1.00771  -0.99238
 Alpha  occ. eigenvalues --   -0.96208  -0.89179  -0.87305  -0.86994  -0.85812
 Alpha  occ. eigenvalues --   -0.85525  -0.85165  -0.84951  -0.83799  -0.83717
 Alpha  occ. eigenvalues --   -0.83413  -0.83053  -0.82315  -0.81060  -0.80483
 Alpha  occ. eigenvalues --   -0.79269  -0.78804  -0.78097  -0.77726  -0.77017
 Alpha  occ. eigenvalues --   -0.75727  -0.74950  -0.74038  -0.73208  -0.72177
 Alpha  occ. eigenvalues --   -0.71425  -0.70880  -0.70661  -0.70298  -0.69913
 Alpha  occ. eigenvalues --   -0.69534  -0.69245  -0.68180  -0.67365  -0.66616
 Alpha  occ. eigenvalues --   -0.65914  -0.64889  -0.64732  -0.63341  -0.62552
 Alpha  occ. eigenvalues --   -0.62402  -0.61511  -0.61076  -0.59824  -0.59501
 Alpha  occ. eigenvalues --   -0.59308  -0.58783  -0.58315  -0.57783  -0.57488
 Alpha  occ. eigenvalues --   -0.56763  -0.56205  -0.55792  -0.55407  -0.55106
 Alpha  occ. eigenvalues --   -0.54828  -0.54207  -0.53866  -0.52885  -0.52791
 Alpha  occ. eigenvalues --   -0.52542  -0.52162  -0.51900  -0.51447  -0.51408
 Alpha  occ. eigenvalues --   -0.51171  -0.50740  -0.50299  -0.50140  -0.49461
 Alpha  occ. eigenvalues --   -0.49166  -0.49113  -0.48691  -0.48536  -0.48275
 Alpha  occ. eigenvalues --   -0.47952  -0.47900  -0.47618  -0.47112  -0.46746
 Alpha  occ. eigenvalues --   -0.46689  -0.46354  -0.46183  -0.46149  -0.45945
 Alpha  occ. eigenvalues --   -0.45843  -0.45680  -0.45566  -0.45308  -0.45275
 Alpha  occ. eigenvalues --   -0.45076  -0.45022  -0.44814  -0.44452  -0.44218
 Alpha  occ. eigenvalues --   -0.44115  -0.43861  -0.43534  -0.43442  -0.43345
 Alpha  occ. eigenvalues --   -0.43047  -0.42568  -0.42539  -0.42484  -0.42297
 Alpha  occ. eigenvalues --   -0.42120  -0.41802  -0.41511  -0.41096  -0.41052
 Alpha  occ. eigenvalues --   -0.40935  -0.40846  -0.40671  -0.40473  -0.40346
 Alpha  occ. eigenvalues --   -0.40102  -0.39881  -0.39556  -0.39352  -0.39258
 Alpha  occ. eigenvalues --   -0.38899  -0.38741  -0.38608  -0.38507  -0.38484
 Alpha  occ. eigenvalues --   -0.38330  -0.38135  -0.38012  -0.37776  -0.37597
 Alpha  occ. eigenvalues --   -0.36815  -0.36410  -0.36317  -0.36034  -0.36023
 Alpha  occ. eigenvalues --   -0.35574  -0.35298  -0.34964  -0.34953  -0.34542
 Alpha  occ. eigenvalues --   -0.34179  -0.33754  -0.33558  -0.33509  -0.32963
 Alpha  occ. eigenvalues --   -0.32688  -0.32479  -0.32125  -0.31725  -0.31713
 Alpha  occ. eigenvalues --   -0.31542  -0.31306  -0.31194  -0.30339  -0.30140
 Alpha  occ. eigenvalues --   -0.29337  -0.28759  -0.28411  -0.28171  -0.27903
 Alpha  occ. eigenvalues --   -0.27377  -0.26908  -0.23021  -0.22149
 Alpha virt. eigenvalues --   -0.08627  -0.07026  -0.01686  -0.00476   0.00871
 Alpha virt. eigenvalues --    0.03097   0.03488   0.03840   0.04240   0.04768
 Alpha virt. eigenvalues --    0.04827   0.05452   0.07473   0.08049   0.09035

 Mulliken charges:
               1
     1  Mg   0.817868
     2  C    0.096073
     3  C   -0.136214
     4  C   -0.149672
     5  C   -0.187115
     6  N   -0.622133
     7  C    0.312138
     8  C   -0.204467
     9  C   -0.135626
    10  C    0.323382
    11  C   -0.312416
    12  C   -0.153378
    13  C   -0.242687
    14  C    0.584525
    15  O   -0.380973
    16  O   -0.495814
    17  N   -0.709567
    18  C    0.304105
    19  C    0.004254
    20  C   -0.002731
    21  C    0.350034
    22  C   -0.364899
    23  C    0.233851
    24  O   -0.432711
    25  N   -0.668885
    26  C    0.298540
    27  C   -0.014279
    28  C    0.029915
    29  C    0.232307
    30  C    0.245854
    31  C   -0.229493
    32  C   -0.281855
    33  N   -0.748702
    34  C    0.280107
    35  C    0.003800
    36  C    0.033379
    37  C    0.301369
    38  C   -0.364948
    39  C    0.355031
    40  O   -0.395166
    41  C   -0.341552
    42  C    0.642139
    43  O   -0.488377
    44  O   -0.409185
    45  C   -0.095795
    46  C    0.010603
    47  C   -0.143026
    48  C    0.127076
    49  C   -0.397425
    50  C   -0.220675
    51  C   -0.156752
    52  C   -0.185216
    53  C   -0.041875
    54  C   -0.328315
    55  C   -0.187971
    56  C   -0.175496
    57  C   -0.171085
    58  C   -0.050384
    59  C   -0.296605
    60  C   -0.193667
    61  C   -0.167824
    62  C   -0.155875
    63  C   -0.031688
    64  C   -0.310225
    65  C   -0.300599
    66  H    0.031439
    67  H    0.110727
    68  H    0.091897
    69  H    0.121322
    70  H    0.111189
    71  H    0.126980
    72  H    0.107728
    73  H    0.128456
    74  H    0.108963
    75  H    0.129646
    76  H    0.143358
    77  H    0.123904
    78  H    0.123131
    79  H    0.167090
    80  H    0.127460
    81  H    0.070180
    82  H    0.123108
    83  H    0.102922
    84  H    0.092012
    85  H    0.134770
    86  H    0.073893
    87  H    0.092676
    88  H    0.148313
    89  H    0.135923
    90  H    0.159210
    91  H    0.102349
    92  H    0.115151
    93  H    0.076104
    94  H    0.114660
    95  H    0.117097
    96  H    0.122440
    97  H    0.097439
    98  H    0.080928
    99  H    0.103353
   100  H    0.081171
   101  H    0.088227
   102  H    0.071437
   103  H    0.094535
   104  H    0.096080
   105  H    0.106283
   106  H    0.104970
   107  H    0.088972
   108  H    0.090941
   109  H    0.086426
   110  H    0.094242
   111  H    0.076452
   112  H    0.093743
   113  H    0.085026
   114  H    0.085706
   115  H    0.106643
   116  H    0.099176
   117  H    0.053444
   118  H    0.081168
   119  H    0.096891
   120  H    0.092392
   121  H    0.087079
   122  H    0.096102
   123  H    0.099353
   124  H    0.092346
   125  H    0.094185
   126  H    0.112151
   127  H    0.085873
   128  H    0.085544
   129  H    0.066706
   130  H    0.118046
   131  H    0.110166
   132  H    0.122635
   133  O   -0.423535
   134  H    0.060602
 Sum of Mulliken charges =   0.00000

 Dipole moment (field-independent basis, Debye):
    X=              1.3867    Y=             -5.4337    Z=             -1.3981  Tot=              5.7796
 Quadrupole moment (field-independent basis, Debye-Ang):
   XX=           -378.6882   YY=           -450.7771   ZZ=           -392.7527
   XY=              2.9403   XZ=             25.7249   YZ=            -32.5693

 Normal termination of Gaussian 09 at Mon Oct  7 12:58:51 2019.
