 Gaussian 09, Revision D.01,
 Gaussian 09:  ES64L-G09RevD.01 24-Apr-2013

 ----------------------------------------------------------------------
 # td=(NStates=1) iop(3/107=0140000000,3/108=0140000000) iop(3/107=0140
 000000,3/108=0140000000) CAM-B3LYP/6-31G(d,p)
 ----------------------------------------------------------------------

 --
 TD
 --
 Symbolic Z-matrix:
 Charge =  0 Multiplicity = 1

                         Standard orientation:
 ---------------------------------------------------------------------
 Center     Atomic      Atomic             Coordinates (Angstroms)
 Number     Number       Type             X           Y           Z
 ---------------------------------------------------------------------
      1         12           0       -5.613683    1.197650    0.116306
      2          6           0       -5.026498   -2.165943   -0.339464
      3          6           0       -3.425944    1.182824    2.744075
      4          6           0       -6.287112    4.470581    0.643800
      5          6           0       -8.068587    1.104204   -2.346711
      6          7           0       -4.451885   -0.220113    0.988878
      7          6           0       -4.278140   -1.546571    0.671219
      8          6           0       -3.220849   -2.374861    1.459923
      9          6           0       -2.969914   -1.368899    2.589343
     10          6           0       -3.607221   -0.065445    2.133586
     11          6           0       -3.545165   -1.790702    3.959184
     12          6           0       -1.974283   -2.724491    0.620166
     13          6           0       -0.879941   -3.504754    1.464773
     14          6           0        0.358104   -3.817336    0.628958
     15          8           0        0.618488   -3.454974   -0.484167
     16          8           0        1.129199   -4.528714    1.369438
     17          7           0       -4.958393    2.597686    1.466731
     18          6           0       -3.959336    2.499835    2.477887
     19          6           0       -3.737133    3.638768    3.207154
     20          6           0       -4.556619    4.599151    2.551930
     21          6           0       -5.296089    4.014751    1.468702
     22          6           0       -2.809087    3.836238    4.376907
     23          6           0       -4.646549    5.984911    2.938432
     24          8           0       -4.097735    6.539814    3.901243
     25          7           0       -6.935671    2.560700   -0.721839
     26          6           0       -7.096181    3.895983   -0.368320
     27          6           0       -8.099858    4.504379   -1.264301
     28          6           0       -8.527949    3.536016   -2.155403
     29          6           0       -7.829113    2.307646   -1.748399
     30          6           0       -8.438922    6.007027   -1.193496
     31          6           0       -9.514542    3.738589   -3.180760
     32          6           0       -8.824743    3.973716   -4.572062
     33          7           0       -6.391294   -0.118412   -1.161597
     34          6           0       -7.411375   -0.134744   -2.141625
     35          6           0       -7.626860   -1.363326   -2.714877
     36          6           0       -6.702711   -2.198170   -2.096615
     37          6           0       -5.968344   -1.367396   -1.121343
     38          6           0       -8.485702   -1.662962   -3.878652
     39          6           0       -6.252955   -3.586696   -1.909176
     40          8           0       -6.639752   -4.484643   -2.649513
     41          6           0       -5.104305   -3.506217   -0.846876
     42          6           0       -5.210141   -4.630982    0.049817
     43          8           0       -5.588165   -4.425086    1.263659
     44          8           0       -5.010627   -5.909878   -0.491905
     45          6           0       -5.358391   -6.895995    0.419054
     46          6           0        2.412774   -5.001047    0.748948
     47          6           0        3.509470   -4.138044    1.246469
     48          6           0        4.106784   -3.128599    0.349333
     49          6           0        3.737785   -2.920606   -1.079652
     50          6           0        5.286867   -2.413746    0.939080
     51          6           0        6.610531   -2.676158    0.177858
     52          6           0        7.721718   -1.792332    0.736779
     53          6           0        9.052558   -1.962480   -0.089871
     54          6           0        9.576759   -3.347933    0.065802
     55          6           0       10.109619   -0.923840    0.433594
     56          6           0       11.378162   -0.739596   -0.529193
     57          6           0       12.202895    0.404470    0.042210
     58          6           0       13.596775    0.533340   -0.741070
     59          6           0       14.448495   -0.829192   -0.559415
     60          6           0       14.205879    1.773841   -0.287317
     61          6           0       15.408671    2.253949   -1.195505
     62          6           0       16.070061    3.589731   -0.664752
     63          6           0       17.429698    3.828354   -1.294991
     64          6           0       17.196714    4.159411   -2.778276
     65          6           0       18.158523    4.994775   -0.660205
     66          1           0       -2.778592    1.398826    3.654157
     67          1           0       -6.483873    5.694630    0.743815
     68          1           0       -9.009216    1.156534   -3.234211
     69          1           0       -3.693449   -3.376875    1.940896
     70          1           0       -1.858038   -0.992067    2.773391
     71          1           0       -3.081315   -2.656470    4.492826
     72          1           0       -3.618288   -0.936699    4.639185
     73          1           0       -4.653144   -2.070426    3.849383
     74          1           0       -2.317802   -3.427135   -0.194151
     75          1           0       -1.496537   -1.814240    0.123615
     76          1           0       -0.596414   -2.852398    2.357608
     77          1           0       -1.235221   -4.364092    1.808139
     78          1           0       -1.697458    3.493975    4.351487
     79          1           0       -2.714739    4.856095    4.714245
     80          1           0       -3.509872    3.169392    5.091274
     81          1           0       -5.542782    6.428176    2.322609
     82          1           0      -10.194003    2.894092   -3.146554
     83          1           0      -10.181710    4.534889   -2.693792
     84          1           0       -9.622610    4.271815   -5.256982
     85          1           0       -8.096347    4.636046   -4.533604
     86          1           0       -8.304564    3.068730   -4.818829
     87          1           0       -8.498851   -0.780906   -4.730280
     88          1           0       -8.095903   -2.630388   -4.328290
     89          1           0       -9.536131   -1.821226   -3.332331
     90          1           0       -4.174766   -3.702266   -1.377741
     91          1           0        2.484770   -6.051137    1.061841
     92          1           0        2.269500   -5.082649   -0.424525
     93          1           0        3.664219   -4.045173    2.415839
     94          1           0        2.804300   -3.397654   -1.335634
     95          1           0        3.718404   -1.863190   -1.329310
     96          1           0        4.546622   -3.326924   -1.570730
     97          1           0        5.079715   -1.533915    0.908605
     98          1           0        5.546754   -2.704017    1.921793
     99          1           0        6.879296   -3.773850    0.274647
    100          1           0        6.649266   -2.550135   -0.850358
    101          1           0        7.465807   -0.797968    0.633341
    102          1           0        7.983237   -2.021540    1.995515
    103          1           0        8.802611   -1.875919   -1.251445
    104          1           0        8.958540   -4.161220   -0.518535
    105          1           0       10.422989   -3.520906   -0.446846
    106          1           0        9.604066   -3.578691    1.088671
    107          1           0        9.441457   -0.044734    0.302670
    108          1           0       10.441977   -1.214735    1.335630
    109          1           0       12.113263   -1.551632   -0.429103
    110          1           0       11.071036   -0.861413   -1.397576
    111          1           0       11.654284    1.316597   -0.097618
    112          1           0       12.381962    0.368318    1.096397
    113          1           0       13.354359    0.594860   -1.751534
    114          1           0       14.652563   -0.880404    0.531843
    115          1           0       13.665662   -1.720810   -0.762757
    116          1           0       15.341560   -1.077149   -1.220723
    117          1           0       13.471600    2.424507   -0.155617
    118          1           0       14.662136    1.568757    0.861404
    119          1           0       16.228615    1.516184   -1.229423
    120          1           0       14.801097    2.470005   -2.244413
    121          1           0       15.364219    4.350319   -0.527154
    122          1           0       16.354299    3.278801    0.387275
    123          1           0       18.184860    3.009805   -1.187942
    124          1           0       16.332415    4.936224   -3.055380
    125          1           0       18.200486    4.428419   -3.306247
    126          1           0       17.020086    3.093885   -3.424054
    127          1           0       18.248365    4.882840    0.432081
    128          1           0       19.103566    5.212555   -0.980658
    129          1           0       17.522620    5.817866   -0.844247
    130          1           0       -5.265698   -7.902212    0.075881
    131          1           0       -6.427355   -6.892282    0.575362
    132          1           0       -4.812535   -6.920866    1.303378
    133          8           0       -7.941965    6.795154   -0.390887
    134          1           0       -9.255722    6.018417   -1.939971
 ---------------------------------------------------------------------

 SCF Done:  E(RCAM-B3LYP) =  -3043.41980951     A.U. after   15 cycles

 Excitation energies and oscillator strengths:

 Excited State   1:      Singlet-A      1.9850 eV  624.61 nm  f=0.2067  <S**2>=0.000
     243 -> 245        0.28307
     243 -> 246       -0.22374
     244 -> 245        0.58708
     244 -> 246        0.11328
 This state for optimization and/or second-order correction.
 Total Energy, E(TD-HF/TD-KS) =  -3043.34686247
 Copying the excited state density for this state as the 1-particle RhoCI density.

 The electronic state is 1-A.
 Alpha  occ. eigenvalues --  -46.80538 -19.23847 -19.21762 -19.19153 -19.17439
 Alpha  occ. eigenvalues --  -19.17285 -19.16682 -19.15878 -14.39343 -14.37165
 Alpha  occ. eigenvalues --  -14.36499 -14.36206 -10.36098 -10.33728 -10.32129
 Alpha  occ. eigenvalues --  -10.31828 -10.29787 -10.28086 -10.28081 -10.27808
 Alpha  occ. eigenvalues --  -10.26866 -10.26335 -10.26218 -10.26151 -10.26122
 Alpha  occ. eigenvalues --  -10.25869 -10.25762 -10.25697 -10.25380 -10.25046
 Alpha  occ. eigenvalues --  -10.24926 -10.24889 -10.24748 -10.24678 -10.24632
 Alpha  occ. eigenvalues --  -10.24510 -10.24444 -10.24272 -10.23941 -10.23794
 Alpha  occ. eigenvalues --  -10.23720 -10.23257 -10.23162 -10.23071 -10.22886
 Alpha  occ. eigenvalues --  -10.22793 -10.22640 -10.22414 -10.22287 -10.22275
 Alpha  occ. eigenvalues --  -10.22249 -10.21913 -10.21883 -10.21877 -10.21864
 Alpha  occ. eigenvalues --  -10.21070 -10.20946 -10.20517 -10.20447 -10.20442
 Alpha  occ. eigenvalues --  -10.20303 -10.20292 -10.19431 -10.18977 -10.18896
 Alpha  occ. eigenvalues --  -10.18417  -3.09272  -1.84192  -1.83777  -1.83674
 Alpha  occ. eigenvalues --   -1.14442  -1.12913  -1.07410  -1.06658  -1.04835
 Alpha  occ. eigenvalues --   -1.04420  -1.02895  -1.00481  -0.98689  -0.98522
 Alpha  occ. eigenvalues --   -0.96706  -0.89393  -0.86533  -0.86261  -0.85303
 Alpha  occ. eigenvalues --   -0.85041  -0.84542  -0.84201  -0.84050  -0.83356
 Alpha  occ. eigenvalues --   -0.82795  -0.82550  -0.81556  -0.80377  -0.79535
 Alpha  occ. eigenvalues --   -0.78846  -0.78357  -0.77662  -0.76886  -0.76493
 Alpha  occ. eigenvalues --   -0.75025  -0.74474  -0.73630  -0.73502  -0.72529
 Alpha  occ. eigenvalues --   -0.72258  -0.70707  -0.70425  -0.70149  -0.69690
 Alpha  occ. eigenvalues --   -0.69356  -0.68332  -0.68244  -0.67216  -0.66624
 Alpha  occ. eigenvalues --   -0.65916  -0.64896  -0.64426  -0.62763  -0.61805
 Alpha  occ. eigenvalues --   -0.61710  -0.61391  -0.59956  -0.58982  -0.58515
 Alpha  occ. eigenvalues --   -0.58279  -0.58245  -0.57836  -0.57735  -0.56210
 Alpha  occ. eigenvalues --   -0.55932  -0.55593  -0.55270  -0.54623  -0.54371
 Alpha  occ. eigenvalues --   -0.54116  -0.53307  -0.52690  -0.52272  -0.52042
 Alpha  occ. eigenvalues --   -0.51787  -0.51681  -0.50989  -0.50852  -0.50772
 Alpha  occ. eigenvalues --   -0.50370  -0.50009  -0.49871  -0.49299  -0.49209
 Alpha  occ. eigenvalues --   -0.48607  -0.48553  -0.48275  -0.48108  -0.47953
 Alpha  occ. eigenvalues --   -0.47758  -0.47485  -0.46964  -0.46839  -0.46688
 Alpha  occ. eigenvalues --   -0.46325  -0.46204  -0.46163  -0.45949  -0.45730
 Alpha  occ. eigenvalues --   -0.45635  -0.45467  -0.45029  -0.44721  -0.44608
 Alpha  occ. eigenvalues --   -0.44427  -0.44334  -0.44226  -0.44080  -0.43778
 Alpha  occ. eigenvalues --   -0.43702  -0.43272  -0.43124  -0.42778  -0.42560
 Alpha  occ. eigenvalues --   -0.42405  -0.42076  -0.41969  -0.41863  -0.41637
 Alpha  occ. eigenvalues --   -0.41255  -0.41108  -0.41017  -0.40823  -0.40666
 Alpha  occ. eigenvalues --   -0.40536  -0.40424  -0.40309  -0.40259  -0.40037
 Alpha  occ. eigenvalues --   -0.39961  -0.39787  -0.39737  -0.39464  -0.39403
 Alpha  occ. eigenvalues --   -0.39004  -0.38876  -0.38476  -0.38348  -0.38242
 Alpha  occ. eigenvalues --   -0.37811  -0.37699  -0.37541  -0.37143  -0.36942
 Alpha  occ. eigenvalues --   -0.36745  -0.36471  -0.36327  -0.36233  -0.36141
 Alpha  occ. eigenvalues --   -0.36009  -0.35412  -0.35127  -0.34710  -0.34687
 Alpha  occ. eigenvalues --   -0.34577  -0.34426  -0.33669  -0.33300  -0.33242
 Alpha  occ. eigenvalues --   -0.33074  -0.32564  -0.32544  -0.32234  -0.31702
 Alpha  occ. eigenvalues --   -0.31110  -0.30545  -0.30075  -0.29555  -0.29374
 Alpha  occ. eigenvalues --   -0.28803  -0.28486  -0.27824  -0.27497  -0.27051
 Alpha  occ. eigenvalues --   -0.26641  -0.25262  -0.22591  -0.21944
 Alpha virt. eigenvalues --   -0.09282  -0.06304  -0.01548  -0.01173   0.00424
 Alpha virt. eigenvalues --    0.01163   0.01792   0.03412   0.04228   0.04802
 Alpha virt. eigenvalues --    0.05787   0.05935   0.07064   0.08448   0.09250

 Mulliken charges:
               1
     1  Mg   0.807999
     2  C    0.118624
     3  C   -0.212973
     4  C   -0.223401
     5  C   -0.198607
     6  N   -0.641847
     7  C    0.328418
     8  C   -0.146093
     9  C   -0.133317
    10  C    0.338862
    11  C   -0.318545
    12  C   -0.172249
    13  C   -0.260396
    14  C    0.595979
    15  O   -0.484897
    16  O   -0.437879
    17  N   -0.690830
    18  C    0.282011
    19  C    0.082976
    20  C   -0.044170
    21  C    0.338583
    22  C   -0.366403
    23  C    0.237554
    24  O   -0.439160
    25  N   -0.684367
    26  C    0.298256
    27  C   -0.068829
    28  C    0.046829
    29  C    0.336951
    30  C    0.305315
    31  C   -0.277855
    32  C   -0.308784
    33  N   -0.745514
    34  C    0.261853
    35  C    0.053422
    36  C   -0.016163
    37  C    0.313859
    38  C   -0.361663
    39  C    0.370305
    40  O   -0.455047
    41  C   -0.350351
    42  C    0.624952
    43  O   -0.498083
    44  O   -0.445329
    45  C   -0.081813
    46  C   -0.020113
    47  C   -0.141872
    48  C    0.091644
    49  C   -0.370884
    50  C   -0.180276
    51  C   -0.198045
    52  C   -0.145454
    53  C   -0.093417
    54  C   -0.287257
    55  C   -0.161626
    56  C   -0.166335
    57  C   -0.196419
    58  C   -0.051099
    59  C   -0.318363
    60  C   -0.140276
    61  C   -0.169411
    62  C   -0.162204
    63  C   -0.055439
    64  C   -0.285179
    65  C   -0.303936
    66  H    0.072268
    67  H    0.137937
    68  H    0.078660
    69  H    0.135552
    70  H    0.100191
    71  H    0.112839
    72  H    0.114702
    73  H    0.119762
    74  H    0.099638
    75  H    0.120691
    76  H    0.129236
    77  H    0.137973
    78  H    0.122096
    79  H    0.169289
    80  H    0.119326
    81  H    0.055924
    82  H    0.118732
    83  H    0.106525
    84  H    0.118933
    85  H    0.134060
    86  H    0.120361
    87  H    0.106933
    88  H    0.151810
    89  H    0.124022
    90  H    0.177489
    91  H    0.116252
    92  H    0.124626
    93  H    0.089025
    94  H    0.153332
    95  H    0.118455
    96  H    0.131613
    97  H    0.103529
    98  H    0.105928
    99  H    0.098901
   100  H    0.100762
   101  H    0.098623
   102  H    0.041640
   103  H    0.059241
   104  H    0.069355
   105  H    0.108135
   106  H    0.104272
   107  H    0.086813
   108  H    0.099894
   109  H    0.087625
   110  H    0.090596
   111  H    0.093128
   112  H    0.098646
   113  H    0.091382
   114  H    0.103587
   115  H    0.081421
   116  H    0.103097
   117  H    0.097952
   118  H    0.039673
   119  H    0.100090
   120  H    0.066699
   121  H    0.099749
   122  H    0.080560
   123  H    0.088279
   124  H    0.094058
   125  H    0.084500
   126  H    0.068786
   127  H    0.088712
   128  H    0.106399
   129  H    0.101069
   130  H    0.117457
   131  H    0.125101
   132  H    0.126290
   133  O   -0.427333
   134  H    0.074901
 Sum of Mulliken charges =   0.00000

 Dipole moment (field-independent basis, Debye):
    X=              2.4096    Y=             -3.7996    Z=             -2.1348  Tot=              4.9800
 Quadrupole moment (field-independent basis, Debye-Ang):
   XX=           -367.4356   YY=           -439.0856   ZZ=           -395.7181
   XY=              3.1886   XZ=             29.2001   YZ=            -37.4525

 Normal termination of Gaussian 09 at Fri Oct  4 14:33:50 2019.
