 Gaussian 09, Revision D.01,
 Gaussian 09:  ES64L-G09RevD.01 24-Apr-2013

 ----------------------------------------------------------------------
 # td=(NStates=1) iop(3/107=0140000000,3/108=0140000000) iop(3/107=0140
 000000,3/108=0140000000) CAM-B3LYP/6-31G(d,p)
 ----------------------------------------------------------------------

 --
 TD
 --
 Symbolic Z-matrix:
 Charge =  0 Multiplicity = 1

                         Standard orientation:
 ---------------------------------------------------------------------
 Center     Atomic      Atomic             Coordinates (Angstroms)
 Number     Number       Type             X           Y           Z
 ---------------------------------------------------------------------
      1         12           0       -5.606146    1.182563    0.209042
      2          6           0       -5.040604   -2.202108   -0.294720
      3          6           0       -3.381387    1.195147    2.824960
      4          6           0       -6.265927    4.477111    0.688666
      5          6           0       -7.885234    1.151883   -2.472034
      6          7           0       -4.346721   -0.230480    1.057447
      7          6           0       -4.244713   -1.586386    0.663556
      8          6           0       -3.192717   -2.206399    1.495505
      9          6           0       -2.913128   -1.380540    2.736510
     10          6           0       -3.653625   -0.018114    2.197217
     11          6           0       -3.529986   -1.854763    4.061662
     12          6           0       -1.823372   -2.390905    0.656413
     13          6           0       -0.996489   -3.454409    1.429740
     14          6           0        0.258823   -3.893953    0.617359
     15          8           0        0.594786   -3.492986   -0.531834
     16          8           0        0.984251   -4.651862    1.359454
     17          7           0       -5.001110    2.574687    1.465499
     18          6           0       -4.018804    2.397137    2.459300
     19          6           0       -3.762286    3.699512    3.138168
     20          6           0       -4.602189    4.628591    2.702602
     21          6           0       -5.211750    3.879393    1.535839
     22          6           0       -2.705260    3.718139    4.389618
     23          6           0       -4.852216    5.952996    3.063005
     24          8           0       -4.127420    6.606590    3.787405
     25          7           0       -6.812963    2.604850   -0.782145
     26          6           0       -6.834621    3.928194   -0.391818
     27          6           0       -8.003461    4.543926   -1.252609
     28          6           0       -8.488075    3.608269   -2.047004
     29          6           0       -7.728069    2.437133   -1.785665
     30          6           0       -8.483255    6.016482   -1.172105
     31          6           0       -9.432436    3.671977   -3.203472
     32          6           0       -8.745532    3.859160   -4.578879
     33          7           0       -6.420919   -0.131596   -1.148330
     34          6           0       -7.257083   -0.013053   -2.147941
     35          6           0       -7.484923   -1.340592   -2.772445
     36          6           0       -6.602906   -2.217576   -2.057702
     37          6           0       -5.988227   -1.433706   -1.125401
     38          6           0       -8.407373   -1.619309   -3.864018
     39          6           0       -6.134553   -3.641954   -1.943870
     40          8           0       -6.479579   -4.621550   -2.548774
     41          6           0       -4.910800   -3.559255   -0.932026
     42          6           0       -5.135062   -4.574238    0.160618
     43          8           0       -5.675142   -4.474308    1.218027
     44          8           0       -4.842585   -5.748715   -0.387944
     45          6           0       -5.287740   -6.992148    0.396975
     46          6           0        2.270082   -5.012112    0.647292
     47          6           0        3.437058   -4.022661    1.030508
     48          6           0        4.141440   -3.268408    0.190674
     49          6           0        3.796619   -3.226790   -1.346508
     50          6           0        5.086938   -2.272207    0.657919
     51          6           0        6.509978   -2.719667    0.076212
     52          6           0        7.680590   -1.818248    0.592742
     53          6           0        9.106319   -1.947889    0.075171
     54          6           0        9.637557   -3.473638    0.196170
     55          6           0       10.036331   -0.910967    0.584691
     56          6           0       11.339263   -0.926479   -0.229761
     57          6           0       12.259941    0.220849    0.130187
     58          6           0       13.511372    0.420474   -0.626547
     59          6           0       14.385907   -0.704937   -0.447131
     60          6           0       14.081705    1.817525   -0.308764
     61          6           0       15.381754    2.224050   -0.928051
     62          6           0       15.833856    3.590096   -0.668301
     63          6           0       17.207542    4.021778   -1.387455
     64          6           0       17.147056    4.110059   -2.945067
     65          6           0       17.663819    5.355133   -0.741445
     66          1           0       -2.750470    1.148041    3.641160
     67          1           0       -6.596774    5.490523    0.792132
     68          1           0       -8.489880    1.087705   -3.396735
     69          1           0       -3.436498   -3.357451    1.759358
     70          1           0       -1.890389   -1.154712    2.845298
     71          1           0       -3.056904   -2.766402    4.340828
     72          1           0       -3.292437   -1.064094    4.901808
     73          1           0       -4.610139   -1.778707    3.877145
     74          1           0       -2.036760   -2.819922   -0.466540
     75          1           0       -1.210573   -1.384571    0.592887
     76          1           0       -0.801321   -3.360887    2.577108
     77          1           0       -1.633886   -4.396682    1.492400
     78          1           0       -1.611897    3.308570    4.156118
     79          1           0       -2.518568    4.825735    4.612205
     80          1           0       -2.921340    3.031906    5.144001
     81          1           0       -5.499976    6.602434    2.402164
     82          1           0      -10.290521    3.091168   -3.345781
     83          1           0      -10.090877    4.576833   -3.106187
     84          1           0       -9.664288    4.166158   -5.145258
     85          1           0       -7.789424    4.745542   -4.709052
     86          1           0       -8.200247    2.871531   -5.028396
     87          1           0       -8.507561   -0.690163   -4.734217
     88          1           0       -8.162663   -2.625163   -4.339631
     89          1           0       -9.405143   -1.618262   -3.496176
     90          1           0       -3.992683   -3.620417   -1.626739
     91          1           0        2.459644   -6.141450    0.866778
     92          1           0        2.118379   -5.005888   -0.426559
     93          1           0        3.588986   -4.219043    2.146795
     94          1           0        2.772529   -3.236843   -1.584332
     95          1           0        4.358522   -2.422756   -1.940112
     96          1           0        4.426003   -4.006110   -2.065521
     97          1           0        4.707317   -1.251165    0.139549
     98          1           0        5.054920   -2.528627    1.901789
     99          1           0        6.742044   -3.843739    0.315323
    100          1           0        6.475969   -2.611800   -0.926578
    101          1           0        7.348383   -0.796349    0.489254
    102          1           0        7.799271   -1.907813    1.843672
    103          1           0        9.020971   -2.102323   -1.088476
    104          1           0        8.974410   -4.206867   -0.436311
    105          1           0       10.590838   -3.544597   -0.142056
    106          1           0        9.694660   -3.811408    1.324259
    107          1           0        9.462776    0.103811    0.640815
    108          1           0       10.318115   -1.158784    1.878274
    109          1           0       11.814409   -1.914999   -0.332212
    110          1           0       10.977518   -0.817748   -1.280701
    111          1           0       11.459804    1.097170    0.058202
    112          1           0       12.702143    0.306325    1.195775
    113          1           0       13.241433    0.454359   -1.791449
    114          1           0       14.985916   -0.785435    0.627475
    115          1           0       13.748347   -1.599822   -0.502284
    116          1           0       15.144655   -0.764809   -1.409119
    117          1           0       13.278151    2.741841   -0.485004
    118          1           0       13.980661    1.804269    0.750607
    119          1           0       16.180260    1.471771   -0.625446
    120          1           0       15.375923    2.063753   -2.114585
    121          1           0       15.172287    4.419697   -1.122070
    122          1           0       16.107484    3.965110    0.331351
    123          1           0       17.887455    3.238594   -1.037859
    124          1           0       16.164838    4.773241   -3.174823
    125          1           0       18.015726    4.499397   -3.395783
    126          1           0       16.925110    3.102398   -3.449511
    127          1           0       17.793067    5.287722    0.511110
    128          1           0       18.597164    5.959727   -1.067736
    129          1           0       16.686128    5.968298   -0.828038
    130          1           0       -5.088855   -7.910345   -0.090993
    131          1           0       -6.285025   -7.122048    0.739700
    132          1           0       -4.547647   -6.959728    1.436701
    133          8           0       -7.922230    6.832708   -0.480444
    134          1           0       -9.301253    6.142671   -1.973949
 ---------------------------------------------------------------------

 SCF Done:  E(RCAM-B3LYP) =  -3043.38071685     A.U. after   16 cycles

 Excitation energies and oscillator strengths:

 Excited State   1:      Singlet-A      1.8773 eV  660.43 nm  f=0.2646  <S**2>=0.000
     243 -> 246       -0.19459
     244 -> 245        0.67164
 This state for optimization and/or second-order correction.
 Total Energy, E(TD-HF/TD-KS) =  -3043.31172656
 Copying the excited state density for this state as the 1-particle RhoCI density.

 The electronic state is 1-A.
 Alpha  occ. eigenvalues --  -46.81278 -19.23711 -19.22688 -19.18571 -19.18088
 Alpha  occ. eigenvalues --  -19.17197 -19.16571 -19.16175 -14.39016 -14.37916
 Alpha  occ. eigenvalues --  -14.36646 -14.35923 -10.35020 -10.34817 -10.32361
 Alpha  occ. eigenvalues --  -10.31798 -10.29619 -10.28880 -10.28360 -10.27430
 Alpha  occ. eigenvalues --  -10.27422 -10.27261 -10.26928 -10.26116 -10.25914
 Alpha  occ. eigenvalues --  -10.25866 -10.25518 -10.25491 -10.25420 -10.25186
 Alpha  occ. eigenvalues --  -10.25156 -10.25122 -10.25065 -10.24718 -10.24498
 Alpha  occ. eigenvalues --  -10.24246 -10.24170 -10.24085 -10.24052 -10.24043
 Alpha  occ. eigenvalues --  -10.23932 -10.23859 -10.23651 -10.23170 -10.23165
 Alpha  occ. eigenvalues --  -10.23026 -10.22953 -10.22805 -10.22740 -10.22705
 Alpha  occ. eigenvalues --  -10.22656 -10.22468 -10.22456 -10.22446 -10.22343
 Alpha  occ. eigenvalues --  -10.22256 -10.22194 -10.22191 -10.22118 -10.21857
 Alpha  occ. eigenvalues --  -10.21764 -10.21724 -10.21599 -10.21408 -10.21345
 Alpha  occ. eigenvalues --  -10.21169  -3.09936  -1.84870  -1.84418  -1.84346
 Alpha  occ. eigenvalues --   -1.14659  -1.13770  -1.08426  -1.08175  -1.06678
 Alpha  occ. eigenvalues --   -1.04708  -1.02178  -1.00999  -1.00579  -0.98848
 Alpha  occ. eigenvalues --   -0.98393  -0.88886  -0.86807  -0.86042  -0.85698
 Alpha  occ. eigenvalues --   -0.84895  -0.84346  -0.84016  -0.83818  -0.83192
 Alpha  occ. eigenvalues --   -0.82784  -0.82614  -0.80900  -0.79938  -0.79429
 Alpha  occ. eigenvalues --   -0.78560  -0.78171  -0.77568  -0.76771  -0.76414
 Alpha  occ. eigenvalues --   -0.74713  -0.74187  -0.73305  -0.72749  -0.71358
 Alpha  occ. eigenvalues --   -0.70974  -0.70619  -0.70187  -0.69611  -0.69141
 Alpha  occ. eigenvalues --   -0.68680  -0.68318  -0.67034  -0.65838  -0.65738
 Alpha  occ. eigenvalues --   -0.65515  -0.64358  -0.64188  -0.62179  -0.61501
 Alpha  occ. eigenvalues --   -0.61219  -0.60645  -0.60103  -0.58921  -0.58693
 Alpha  occ. eigenvalues --   -0.57844  -0.57831  -0.57653  -0.56644  -0.56562
 Alpha  occ. eigenvalues --   -0.56140  -0.55966  -0.55496  -0.54694  -0.54592
 Alpha  occ. eigenvalues --   -0.54177  -0.53575  -0.52423  -0.51881  -0.51612
 Alpha  occ. eigenvalues --   -0.51378  -0.51218  -0.51083  -0.50915  -0.50465
 Alpha  occ. eigenvalues --   -0.49904  -0.49483  -0.49452  -0.49340  -0.48990
 Alpha  occ. eigenvalues --   -0.48491  -0.48319  -0.48137  -0.47660  -0.47435
 Alpha  occ. eigenvalues --   -0.47194  -0.46891  -0.46849  -0.46437  -0.46336
 Alpha  occ. eigenvalues --   -0.46274  -0.46189  -0.46116  -0.45980  -0.45704
 Alpha  occ. eigenvalues --   -0.45467  -0.45421  -0.45150  -0.44936  -0.44660
 Alpha  occ. eigenvalues --   -0.44524  -0.44211  -0.43828  -0.43514  -0.43449
 Alpha  occ. eigenvalues --   -0.43309  -0.43112  -0.42973  -0.42874  -0.42710
 Alpha  occ. eigenvalues --   -0.42413  -0.42225  -0.42009  -0.41973  -0.41800
 Alpha  occ. eigenvalues --   -0.41554  -0.41440  -0.41303  -0.41103  -0.40804
 Alpha  occ. eigenvalues --   -0.40753  -0.40466  -0.40319  -0.40114  -0.40009
 Alpha  occ. eigenvalues --   -0.39459  -0.39186  -0.39086  -0.38777  -0.38619
 Alpha  occ. eigenvalues --   -0.38457  -0.38393  -0.38284  -0.38068  -0.37778
 Alpha  occ. eigenvalues --   -0.37299  -0.37159  -0.37039  -0.36963  -0.36887
 Alpha  occ. eigenvalues --   -0.36283  -0.36087  -0.36063  -0.35776  -0.35682
 Alpha  occ. eigenvalues --   -0.35277  -0.35069  -0.35046  -0.34560  -0.34477
 Alpha  occ. eigenvalues --   -0.34368  -0.33858  -0.33588  -0.33472  -0.33187
 Alpha  occ. eigenvalues --   -0.32767  -0.32423  -0.31903  -0.31763  -0.31311
 Alpha  occ. eigenvalues --   -0.31129  -0.31085  -0.30749  -0.30270  -0.29777
 Alpha  occ. eigenvalues --   -0.29436  -0.28827  -0.28442  -0.28067  -0.27557
 Alpha  occ. eigenvalues --   -0.27358  -0.27281  -0.23122  -0.20338
 Alpha virt. eigenvalues --   -0.08428  -0.05846  -0.01615  -0.01007   0.00429
 Alpha virt. eigenvalues --    0.02702   0.03311   0.03697   0.03956   0.04376
 Alpha virt. eigenvalues --    0.05175   0.05613   0.07366   0.08393   0.09069

 Mulliken charges:
               1
     1  Mg   0.830755
     2  C    0.063382
     3  C   -0.157185
     4  C   -0.176148
     5  C   -0.171662
     6  N   -0.645914
     7  C    0.336242
     8  C   -0.173184
     9  C   -0.125887
    10  C    0.289708
    11  C   -0.294758
    12  C   -0.161471
    13  C   -0.272674
    14  C    0.614333
    15  O   -0.515429
    16  O   -0.428189
    17  N   -0.658963
    18  C    0.295424
    19  C    0.008875
    20  C    0.077884
    21  C    0.237714
    22  C   -0.379767
    23  C    0.190807
    24  O   -0.406449
    25  N   -0.662792
    26  C    0.296662
    27  C   -0.104451
    28  C    0.105154
    29  C    0.266475
    30  C    0.270173
    31  C   -0.271563
    32  C   -0.271061
    33  N   -0.723339
    34  C    0.338435
    35  C    0.003664
    36  C    0.033152
    37  C    0.268493
    38  C   -0.394901
    39  C    0.380921
    40  O   -0.434710
    41  C   -0.336168
    42  C    0.645537
    43  O   -0.461897
    44  O   -0.454386
    45  C   -0.094442
    46  C   -0.035025
    47  C   -0.144010
    48  C    0.179569
    49  C   -0.378431
    50  C   -0.227665
    51  C   -0.181839
    52  C   -0.154200
    53  C   -0.043149
    54  C   -0.312769
    55  C   -0.138134
    56  C   -0.192198
    57  C   -0.152467
    58  C   -0.042918
    59  C   -0.285193
    60  C   -0.145501
    61  C   -0.166270
    62  C   -0.166381
    63  C   -0.059597
    64  C   -0.298239
    65  C   -0.302725
    66  H    0.078398
    67  H    0.123451
    68  H    0.082606
    69  H    0.097393
    70  H    0.111507
    71  H    0.119766
    72  H    0.091229
    73  H    0.133971
    74  H    0.107205
    75  H    0.112225
    76  H    0.129463
    77  H    0.128473
    78  H    0.096491
    79  H    0.150693
    80  H    0.137467
    81  H    0.082686
    82  H    0.131576
    83  H    0.100707
    84  H    0.110226
    85  H    0.084433
    86  H    0.097517
    87  H    0.086998
    88  H    0.142164
    89  H    0.148983
    90  H    0.171891
    91  H    0.106827
    92  H    0.152636
    93  H    0.090121
    94  H    0.170419
    95  H    0.096250
    96  H    0.084210
    97  H    0.109243
    98  H    0.083396
    99  H    0.097517
   100  H    0.110107
   101  H    0.090288
   102  H    0.049412
   103  H    0.071898
   104  H    0.088679
   105  H    0.114490
   106  H    0.082503
   107  H    0.092972
   108  H    0.042125
   109  H    0.102239
   110  H    0.100343
   111  H    0.074522
   112  H    0.077496
   113  H    0.060970
   114  H    0.077565
   115  H    0.106565
   116  H    0.084482
   117  H    0.058602
   118  H    0.091668
   119  H    0.092620
   120  H    0.079304
   121  H    0.077537
   122  H    0.098811
   123  H    0.089227
   124  H    0.078974
   125  H    0.116269
   126  H    0.096098
   127  H    0.067636
   128  H    0.100905
   129  H    0.093073
   130  H    0.139316
   131  H    0.153855
   132  H    0.092206
   133  O   -0.403264
   134  H    0.073119
 Sum of Mulliken charges =   0.00000

 Dipole moment (field-independent basis, Debye):
    X=              1.1224    Y=             -5.4601    Z=             -1.7112  Tot=              5.8310
 Quadrupole moment (field-independent basis, Debye-Ang):
   XX=           -365.4944   YY=           -437.1989   ZZ=           -395.3788
   XY=              2.4940   XZ=             18.2778   YZ=            -31.9129

 Normal termination of Gaussian 09 at Tue Oct  8 18:34:43 2019.
