 Gaussian 09, Revision D.01,
 Gaussian 09:  ES64L-G09RevD.01 24-Apr-2013

 ----------------------------------------------------------------------
 # td=(NStates=1) iop(3/107=0140000000,3/108=0140000000) iop(3/107=0140
 000000,3/108=0140000000) CAM-B3LYP/6-31G(d,p)
 ----------------------------------------------------------------------

 --
 TD
 --
 Symbolic Z-matrix:
 Charge =  0 Multiplicity = 1

                         Standard orientation:
 ---------------------------------------------------------------------
 Center     Atomic      Atomic             Coordinates (Angstroms)
 Number     Number       Type             X           Y           Z
 ---------------------------------------------------------------------
      1         12           0       -5.596725    1.200417    0.188453
      2          6           0       -5.004241   -2.162385   -0.376107
      3          6           0       -3.309317    1.186886    2.746853
      4          6           0       -6.004046    4.679209    0.545678
      5          6           0       -7.844794    1.227550   -2.308533
      6          7           0       -4.351794   -0.323818    1.076473
      7          6           0       -4.219488   -1.600950    0.672321
      8          6           0       -3.256661   -2.343436    1.525697
      9          6           0       -3.024734   -1.357691    2.685419
     10          6           0       -3.579920   -0.097105    2.126330
     11          6           0       -3.609800   -1.829247    3.922335
     12          6           0       -2.024038   -2.709780    0.634313
     13          6           0       -1.027773   -3.690738    1.369708
     14          6           0        0.240210   -4.074296    0.549766
     15          8           0        0.368975   -3.759272   -0.672009
     16          8           0        1.102496   -4.843392    1.293310
     17          7           0       -4.801683    2.659013    1.430542
     18          6           0       -3.901503    2.346661    2.483301
     19          6           0       -3.611238    3.677219    3.271162
     20          6           0       -4.442776    4.584046    2.555682
     21          6           0       -5.161837    3.956948    1.498448
     22          6           0       -2.747063    3.810769    4.351469
     23          6           0       -4.562792    6.010546    2.869459
     24          8           0       -3.915573    6.634031    3.710867
     25          7           0       -6.773498    2.652757   -0.670869
     26          6           0       -6.854337    4.043916   -0.384792
     27          6           0       -7.790119    4.641976   -1.206404
     28          6           0       -8.312220    3.682090   -2.039806
     29          6           0       -7.652086    2.500619   -1.660926
     30          6           0       -8.206383    6.121409   -1.161036
     31          6           0       -9.349962    3.747582   -3.087408
     32          6           0       -8.697530    3.991291   -4.395963
     33          7           0       -6.343441   -0.069670   -1.106205
     34          6           0       -7.230970   -0.000116   -2.094732
     35          6           0       -7.423894   -1.281915   -2.760299
     36          6           0       -6.602492   -2.125038   -2.107149
     37          6           0       -5.971628   -1.323932   -1.116729
     38          6           0       -8.366767   -1.651854   -3.849769
     39          6           0       -6.196746   -3.497651   -2.022075
     40          8           0       -6.463794   -4.385468   -2.752444
     41          6           0       -5.034886   -3.573310   -0.919691
     42          6           0       -5.391824   -4.571761    0.156812
     43          8           0       -5.820736   -4.373206    1.234668
     44          8           0       -5.229768   -5.758441   -0.381070
     45          6           0       -5.427420   -6.872486    0.485692
     46          6           0        2.458336   -5.068980    0.668018
     47          6           0        3.473355   -4.156745    1.174766
     48          6           0        3.981327   -3.308373    0.284103
     49          6           0        3.633934   -3.179519   -1.186757
     50          6           0        5.029060   -2.378537    0.753707
     51          6           0        6.394628   -2.743673    0.022061
     52          6           0        7.514214   -1.772292    0.584902
     53          6           0        8.929866   -1.999578   -0.014860
     54          6           0        9.465990   -3.443007    0.236537
     55          6           0        9.937618   -0.948799    0.389301
     56          6           0       11.179298   -0.885499   -0.335407
     57          6           0       12.052382    0.384339    0.231411
     58          6           0       13.316717    0.515008   -0.603655
     59          6           0       14.319000   -0.694319   -0.357844
     60          6           0       14.067683    1.804989   -0.187506
     61          6           0       15.379540    2.141424   -0.923481
     62          6           0       15.966153    3.455029   -0.605883
     63          6           0       17.318920    3.766187   -1.363887
     64          6           0       17.163234    3.872949   -2.840229
     65          6           0       17.945781    5.110352   -0.864286
     66          1           0       -2.728585    1.267624    3.644129
     67          1           0       -6.173408    5.695950    0.899494
     68          1           0       -8.764172    1.385297   -2.863819
     69          1           0       -3.839205   -3.310168    1.741451
     70          1           0       -1.893981   -1.230230    2.964987
     71          1           0       -3.185088   -2.943726    4.170792
     72          1           0       -3.244337   -1.028552    4.717363
     73          1           0       -4.631993   -1.936067    3.875950
     74          1           0       -2.334696   -3.045322   -0.456624
     75          1           0       -1.615892   -1.685537    0.338307
     76          1           0       -0.611424   -3.167676    2.091401
     77          1           0       -1.699625   -4.612134    1.734007
     78          1           0       -1.842913    3.434349    3.919423
     79          1           0       -2.559656    4.728592    4.531955
     80          1           0       -3.201076    3.433795    5.295694
     81          1           0       -5.280485    6.409447    2.009033
     82          1           0       -9.998620    2.866630   -3.279576
     83          1           0      -10.164843    4.567892   -2.793382
     84          1           0       -9.382120    3.860948   -5.345435
     85          1           0       -8.197944    4.929200   -4.507902
     86          1           0       -7.972938    3.137263   -4.600187
     87          1           0       -8.072070   -1.272713   -4.880788
     88          1           0       -8.482404   -2.764619   -3.894340
     89          1           0       -9.381627   -1.238446   -3.556035
     90          1           0       -4.355049   -3.898343   -1.550283
     91          1           0        2.659431   -6.044432    1.136888
     92          1           0        2.171895   -5.042396   -0.371469
     93          1           0        3.742947   -4.252887    2.180028
     94          1           0        2.512372   -3.266438   -1.450667
     95          1           0        3.658753   -2.104405   -1.620115
     96          1           0        4.128161   -3.959948   -1.921754
     97          1           0        5.105268   -1.333293    0.299017
     98          1           0        5.231622   -2.517755    1.987047
     99          1           0        6.508047   -3.647540    0.311514
    100          1           0        6.095966   -2.632939   -1.079038
    101          1           0        6.982496   -0.716962    0.322251
    102          1           0        7.556242   -1.617070    1.715214
    103          1           0        9.041534   -1.889150   -1.192065
    104          1           0        8.705897   -3.949354   -0.210783
    105          1           0       10.486737   -3.704648   -0.057256
    106          1           0        9.644418   -3.435829    1.422740
    107          1           0        9.432707   -0.021299    0.145504
    108          1           0       10.055922   -0.917440    1.517994
    109          1           0       11.634455   -1.865081   -0.548841
    110          1           0       10.990924   -0.496095   -1.247677
    111          1           0       11.646135    1.523135    0.328699
    112          1           0       12.329401    0.070900    1.328223
    113          1           0       13.036905    0.773077   -1.733308
    114          1           0       14.361168   -0.553666    0.620922
    115          1           0       13.986834   -1.806151   -0.900975
    116          1           0       15.350637   -0.278812   -0.872571
    117          1           0       13.470237    2.847007   -0.372554
    118          1           0       14.347040    1.878561    0.757263
    119          1           0       16.184263    1.366970   -0.796416
    120          1           0       15.416297    2.144465   -2.038143
    121          1           0       15.338732    4.371695   -0.809489
    122          1           0       16.318730    3.556038    0.478973
    123          1           0       18.014606    3.083211   -1.130428
    124          1           0       16.635561    4.717385   -3.069208
    125          1           0       18.107530    3.847934   -3.534984
    126          1           0       16.730547    3.043527   -3.313835
    127          1           0       18.269225    5.038888    0.349248
    128          1           0       18.823589    5.476581   -1.580982
    129          1           0       16.973007    5.836873   -0.689337
    130          1           0       -5.128402   -7.698385   -0.133988
    131          1           0       -6.593857   -6.982631    0.526015
    132          1           0       -4.908555   -6.662281    1.401393
    133          8           0       -7.666070    6.901655   -0.432443
    134          1           0       -8.947663    6.581045   -1.856923
 ---------------------------------------------------------------------

 SCF Done:  E(RCAM-B3LYP) =  -3043.39017835     A.U. after   16 cycles

 Excitation energies and oscillator strengths:

 Excited State   1:      Singlet-A      2.0177 eV  614.48 nm  f=0.1680  <S**2>=0.000
     243 -> 246        0.25460
     244 -> 245        0.65079
 This state for optimization and/or second-order correction.
 Total Energy, E(TD-HF/TD-KS) =  -3043.31602841
 Copying the excited state density for this state as the 1-particle RhoCI density.

 The electronic state is 1-A.
 Alpha  occ. eigenvalues --  -46.81376 -19.22441 -19.22207 -19.17796 -19.17556
 Alpha  occ. eigenvalues --  -19.17471 -19.17149 -19.16720 -14.39296 -14.36863
 Alpha  occ. eigenvalues --  -14.36203 -14.35652 -10.35873 -10.34743 -10.31436
 Alpha  occ. eigenvalues --  -10.30689 -10.29814 -10.28027 -10.27956 -10.27037
 Alpha  occ. eigenvalues --  -10.26922 -10.26334 -10.25932 -10.25864 -10.25858
 Alpha  occ. eigenvalues --  -10.25323 -10.24721 -10.24654 -10.24621 -10.24508
 Alpha  occ. eigenvalues --  -10.24454 -10.24393 -10.24323 -10.24094 -10.24090
 Alpha  occ. eigenvalues --  -10.23780 -10.23680 -10.23601 -10.23585 -10.23522
 Alpha  occ. eigenvalues --  -10.23357 -10.23330 -10.23259 -10.23161 -10.23135
 Alpha  occ. eigenvalues --  -10.23040 -10.22932 -10.22824 -10.22681 -10.22483
 Alpha  occ. eigenvalues --  -10.22402 -10.22366 -10.22131 -10.21928 -10.21372
 Alpha  occ. eigenvalues --  -10.21348 -10.21336 -10.21215 -10.21027 -10.20761
 Alpha  occ. eigenvalues --  -10.20668 -10.20518 -10.20246 -10.20059 -10.19513
 Alpha  occ. eigenvalues --  -10.19179  -3.09988  -1.84925  -1.84437  -1.84421
 Alpha  occ. eigenvalues --   -1.16030  -1.10723  -1.09802  -1.08127  -1.07022
 Alpha  occ. eigenvalues --   -1.05136  -1.03143  -1.02535  -1.02041  -0.99425
 Alpha  occ. eigenvalues --   -0.97542  -0.88702  -0.87214  -0.85935  -0.85736
 Alpha  occ. eigenvalues --   -0.85537  -0.84956  -0.84908  -0.84550  -0.83693
 Alpha  occ. eigenvalues --   -0.83193  -0.83131  -0.81951  -0.81090  -0.80200
 Alpha  occ. eigenvalues --   -0.79110  -0.78530  -0.77811  -0.77554  -0.76772
 Alpha  occ. eigenvalues --   -0.76251  -0.75177  -0.74239  -0.73433  -0.72286
 Alpha  occ. eigenvalues --   -0.70987  -0.70683  -0.69992  -0.69352  -0.69071
 Alpha  occ. eigenvalues --   -0.68828  -0.68479  -0.66762  -0.66222  -0.65528
 Alpha  occ. eigenvalues --   -0.64915  -0.64515  -0.64233  -0.62218  -0.61625
 Alpha  occ. eigenvalues --   -0.61478  -0.60971  -0.60559  -0.59666  -0.59283
 Alpha  occ. eigenvalues --   -0.58497  -0.58201  -0.58150  -0.57723  -0.56976
 Alpha  occ. eigenvalues --   -0.56773  -0.56528  -0.55739  -0.55520  -0.55391
 Alpha  occ. eigenvalues --   -0.54384  -0.53397  -0.52970  -0.52575  -0.52264
 Alpha  occ. eigenvalues --   -0.52180  -0.51885  -0.51234  -0.51052  -0.50620
 Alpha  occ. eigenvalues --   -0.50179  -0.49832  -0.49732  -0.49511  -0.49465
 Alpha  occ. eigenvalues --   -0.49192  -0.48998  -0.48756  -0.48338  -0.48101
 Alpha  occ. eigenvalues --   -0.47833  -0.47731  -0.47592  -0.47330  -0.47194
 Alpha  occ. eigenvalues --   -0.46956  -0.46859  -0.46681  -0.46651  -0.45972
 Alpha  occ. eigenvalues --   -0.45754  -0.45588  -0.45219  -0.45052  -0.44950
 Alpha  occ. eigenvalues --   -0.44410  -0.44292  -0.44110  -0.44015  -0.43895
 Alpha  occ. eigenvalues --   -0.43648  -0.43363  -0.43282  -0.43124  -0.42973
 Alpha  occ. eigenvalues --   -0.42736  -0.42657  -0.42415  -0.42105  -0.42031
 Alpha  occ. eigenvalues --   -0.41817  -0.41698  -0.41488  -0.41210  -0.41064
 Alpha  occ. eigenvalues --   -0.40907  -0.40847  -0.40398  -0.40363  -0.40005
 Alpha  occ. eigenvalues --   -0.39785  -0.39688  -0.39566  -0.39430  -0.38904
 Alpha  occ. eigenvalues --   -0.38859  -0.38498  -0.38180  -0.38083  -0.37650
 Alpha  occ. eigenvalues --   -0.37549  -0.37235  -0.37116  -0.37012  -0.36954
 Alpha  occ. eigenvalues --   -0.36658  -0.36623  -0.36152  -0.35930  -0.35565
 Alpha  occ. eigenvalues --   -0.35476  -0.35095  -0.34581  -0.34496  -0.34326
 Alpha  occ. eigenvalues --   -0.34202  -0.34156  -0.33693  -0.33554  -0.33550
 Alpha  occ. eigenvalues --   -0.33052  -0.32602  -0.32409  -0.31893  -0.31812
 Alpha  occ. eigenvalues --   -0.31604  -0.31437  -0.30384  -0.30177  -0.29502
 Alpha  occ. eigenvalues --   -0.29362  -0.28164  -0.28029  -0.27729  -0.27441
 Alpha  occ. eigenvalues --   -0.26893  -0.26619  -0.22792  -0.20451
 Alpha virt. eigenvalues --   -0.07574  -0.06134  -0.01852   0.00153   0.00894
 Alpha virt. eigenvalues --    0.01526   0.02929   0.03537   0.04234   0.04325
 Alpha virt. eigenvalues --    0.05022   0.05843   0.08179   0.08883   0.09230

 Mulliken charges:
               1
     1  Mg   0.828354
     2  C    0.041895
     3  C   -0.183966
     4  C   -0.172007
     5  C   -0.188120
     6  N   -0.622351
     7  C    0.305587
     8  C   -0.167028
     9  C   -0.149646
    10  C    0.344886
    11  C   -0.273025
    12  C   -0.180616
    13  C   -0.230579
    14  C    0.586909
    15  O   -0.485834
    16  O   -0.480960
    17  N   -0.711293
    18  C    0.296477
    19  C    0.052961
    20  C   -0.051092
    21  C    0.327691
    22  C   -0.374613
    23  C    0.257367
    24  O   -0.440507
    25  N   -0.689417
    26  C    0.265248
    27  C   -0.048759
    28  C    0.072565
    29  C    0.292442
    30  C    0.248813
    31  C   -0.261822
    32  C   -0.303985
    33  N   -0.728426
    34  C    0.278733
    35  C    0.030022
    36  C    0.056306
    37  C    0.322697
    38  C   -0.389210
    39  C    0.328877
    40  O   -0.420969
    41  C   -0.303111
    42  C    0.614806
    43  O   -0.465244
    44  O   -0.429381
    45  C   -0.087204
    46  C   -0.010911
    47  C   -0.116820
    48  C    0.195478
    49  C   -0.419516
    50  C   -0.246245
    51  C   -0.189873
    52  C   -0.167227
    53  C   -0.067699
    54  C   -0.297497
    55  C   -0.154686
    56  C   -0.182515
    57  C   -0.175527
    58  C   -0.058271
    59  C   -0.278680
    60  C   -0.174761
    61  C   -0.184732
    62  C   -0.172369
    63  C   -0.049508
    64  C   -0.311339
    65  C   -0.291992
    66  H    0.082103
    67  H    0.130822
    68  H    0.072999
    69  H    0.118491
    70  H    0.098829
    71  H    0.092089
    72  H    0.089992
    73  H    0.135384
    74  H    0.112704
    75  H    0.106282
    76  H    0.144846
    77  H    0.121435
    78  H    0.128696
    79  H    0.157308
    80  H    0.134494
    81  H    0.052649
    82  H    0.121728
    83  H    0.093570
    84  H    0.087097
    85  H    0.124194
    86  H    0.109161
    87  H    0.129435
    88  H    0.145037
    89  H    0.118396
    90  H    0.161359
    91  H    0.109022
    92  H    0.142143
    93  H    0.094793
    94  H    0.155730
    95  H    0.110863
    96  H    0.119213
    97  H    0.102422
    98  H    0.069155
    99  H    0.116697
   100  H    0.108185
   101  H    0.067720
   102  H    0.097420
   103  H    0.059589
   104  H    0.117250
   105  H    0.106219
   106  H    0.074445
   107  H    0.091849
   108  H    0.066996
   109  H    0.093109
   110  H    0.114360
   111  H    0.085708
   112  H    0.075359
   113  H    0.070615
   114  H    0.123121
   115  H    0.081325
   116  H    0.084574
   117  H    0.067665
   118  H    0.108735
   119  H    0.087115
   120  H    0.089910
   121  H    0.082108
   122  H    0.078497
   123  H    0.101018
   124  H    0.113254
   125  H    0.077789
   126  H    0.105744
   127  H    0.066825
   128  H    0.100632
   129  H    0.077962
   130  H    0.135892
   131  H    0.121175
   132  H    0.134430
   133  O   -0.387171
   134  H    0.072658
 Sum of Mulliken charges =   0.00000

 Dipole moment (field-independent basis, Debye):
    X=              1.8736    Y=             -6.3696    Z=             -0.6647  Tot=              6.6726
 Quadrupole moment (field-independent basis, Debye-Ang):
   XX=           -377.2719   YY=           -443.1172   ZZ=           -393.2536
   XY=             10.2290   XZ=             15.3852   YZ=            -32.5410

 Normal termination of Gaussian 09 at Mon Oct  7 14:55:31 2019.
