 Gaussian 09, Revision D.01,
 Gaussian 09:  ES64L-G09RevD.01 24-Apr-2013

 ----------------------------------------------------------------------
 # td=(NStates=1) iop(3/107=0140000000,3/108=0140000000) iop(3/107=0140
 000000,3/108=0140000000) CAM-B3LYP/6-31G(d,p)
 ----------------------------------------------------------------------

 --
 TD
 --
 Symbolic Z-matrix:
 Charge =  0 Multiplicity = 1

                         Standard orientation:
 ---------------------------------------------------------------------
 Center     Atomic      Atomic             Coordinates (Angstroms)
 Number     Number       Type             X           Y           Z
 ---------------------------------------------------------------------
      1         12           0       -5.582830    1.221419    0.195714
      2          6           0       -4.852297   -2.106303   -0.403564
      3          6           0       -3.298151    1.200795    2.697457
      4          6           0       -6.216769    4.594382    0.714100
      5          6           0       -7.962149    1.184857   -2.357753
      6          7           0       -4.320597   -0.301031    1.084982
      7          6           0       -4.220314   -1.564000    0.754637
      8          6           0       -3.174015   -2.275239    1.603985
      9          6           0       -2.983338   -1.323374    2.668804
     10          6           0       -3.520610   -0.079968    2.231119
     11          6           0       -3.512105   -1.847492    4.045874
     12          6           0       -1.955705   -2.605908    0.826103
     13          6           0       -0.922215   -3.526185    1.452149
     14          6           0        0.266672   -3.874965    0.653195
     15          8           0        0.477123   -3.365300   -0.418693
     16          8           0        1.021896   -4.731802    1.291845
     17          7           0       -4.892249    2.654122    1.406793
     18          6           0       -3.920327    2.413456    2.386727
     19          6           0       -3.580599    3.607201    3.133206
     20          6           0       -4.484099    4.647951    2.480140
     21          6           0       -5.245074    3.958451    1.474231
     22          6           0       -2.723379    3.812667    4.236742
     23          6           0       -4.627374    5.964515    2.874138
     24          8           0       -3.969006    6.627267    3.660096
     25          7           0       -6.842109    2.610053   -0.702475
     26          6           0       -6.926608    3.939580   -0.299658
     27          6           0       -7.922342    4.665637   -1.226642
     28          6           0       -8.411863    3.643604   -2.066078
     29          6           0       -7.718238    2.444980   -1.775801
     30          6           0       -8.323107    6.002409   -1.107850
     31          6           0       -9.433319    3.879196   -3.114904
     32          6           0       -8.883738    3.999820   -4.528187
     33          7           0       -6.387204   -0.188171   -1.090596
     34          6           0       -7.268332   -0.060071   -2.102621
     35          6           0       -7.629397   -1.395249   -2.619121
     36          6           0       -6.612843   -2.251233   -2.025260
     37          6           0       -5.922608   -1.446220   -1.042598
     38          6           0       -8.468961   -1.540575   -3.790665
     39          6           0       -6.166643   -3.644954   -2.060415
     40          8           0       -6.398380   -4.583018   -2.816417
     41          6           0       -4.917994   -3.585721   -1.023564
     42          6           0       -5.273501   -4.610647    0.101675
     43          8           0       -5.684971   -4.362939    1.199532
     44          8           0       -4.905491   -5.790630   -0.337247
     45          6           0       -5.370376   -6.959252    0.345680
     46          6           0        2.127413   -5.162726    0.605868
     47          6           0        3.295838   -4.237963    0.985728
     48          6           0        3.925300   -3.408209    0.155497
     49          6           0        3.703801   -3.216609   -1.347718
     50          6           0        5.086943   -2.444014    0.682881
     51          6           0        6.496156   -2.683172    0.057358
     52          6           0        7.550836   -1.765864    0.679123
     53          6           0        8.906833   -1.955790   -0.029668
     54          6           0        9.445834   -3.263268    0.162762
     55          6           0        9.886315   -0.847282    0.424881
     56          6           0       11.258673   -0.892125   -0.240245
     57          6           0       12.086814    0.256199    0.180750
     58          6           0       13.481841    0.425742   -0.579340
     59          6           0       14.405693   -0.760262   -0.269571
     60          6           0       14.160328    1.716422   -0.232950
     61          6           0       15.453449    2.063323   -0.987482
     62          6           0       16.061106    3.508691   -0.677153
     63          6           0       17.296792    4.009624   -1.368911
     64          6           0       17.153336    4.074490   -2.987664
     65          6           0       17.855858    5.220103   -0.795202
     66          1           0       -2.561167    1.291032    3.646598
     67          1           0       -6.565048    5.610415    0.604135
     68          1           0       -8.655505    1.137905   -3.162446
     69          1           0       -3.454473   -3.119914    1.974149
     70          1           0       -1.913822   -1.175016    2.979689
     71          1           0       -3.023120   -2.867426    4.294913
     72          1           0       -3.379462   -1.135994    5.002484
     73          1           0       -4.539311   -2.157257    3.992010
     74          1           0       -2.363657   -2.953240   -0.156044
     75          1           0       -1.464392   -1.702595    0.353392
     76          1           0       -0.828447   -2.936628    2.211468
     77          1           0       -1.381683   -4.397082    1.993688
     78          1           0       -1.807941    3.643203    3.934805
     79          1           0       -2.871703    4.858587    4.499620
     80          1           0       -3.001125    3.000062    5.054761
     81          1           0       -5.520452    6.512795    2.264440
     82          1           0      -10.340687    3.151992   -3.111325
     83          1           0      -10.038686    4.728576   -2.765519
     84          1           0       -9.850283    4.400449   -5.183027
     85          1           0       -8.001862    4.701826   -4.294849
     86          1           0       -8.351006    3.053742   -4.908490
     87          1           0       -8.249576   -0.966076   -4.472660
     88          1           0       -8.550584   -2.412127   -4.208085
     89          1           0       -9.631364   -1.415102   -3.633422
     90          1           0       -4.015379   -4.009809   -1.453516
     91          1           0        2.413757   -6.095638    0.938152
     92          1           0        2.024093   -5.079583   -0.479887
     93          1           0        3.612969   -4.458846    2.032133
     94          1           0        2.810681   -3.752054   -1.851455
     95          1           0        3.784533   -2.100003   -1.578545
     96          1           0        4.535764   -3.842031   -1.806412
     97          1           0        4.787507   -1.461555    0.352188
     98          1           0        4.917891   -2.583008    1.703243
     99          1           0        6.872491   -3.701441    0.338246
    100          1           0        6.604057   -2.469248   -1.194753
    101          1           0        7.278213   -0.567198    0.432238
    102          1           0        7.451020   -1.774823    1.742082
    103          1           0        8.693068   -2.024182   -1.161567
    104          1           0        8.953780   -4.230767   -0.138878
    105          1           0       10.390642   -3.442972   -0.615330
    106          1           0        9.926289   -3.371777    1.218609
    107          1           0        9.284972    0.064459    0.298782
    108          1           0        9.947184   -0.914149    1.583975
    109          1           0       11.935730   -1.750157   -0.179918
    110          1           0       11.120142   -0.771630   -1.398929
    111          1           0       11.595148    1.309873    0.191100
    112          1           0       12.161597    0.085667    1.314491
    113          1           0       13.340218    0.551979   -1.662423
    114          1           0       14.660213   -0.668079    0.770561
    115          1           0       14.149707   -1.743521   -0.667890
    116          1           0       15.427667   -0.522646   -0.640541
    117          1           0       13.394067    2.695632   -0.331858
    118          1           0       14.284883    1.793915    0.878867
    119          1           0       16.355786    1.304998   -0.966474
    120          1           0       14.901679    2.022357   -1.810903
    121          1           0       15.402581    4.215168   -0.879306
    122          1           0       16.283522    3.613341    0.482822
    123          1           0       18.088107    3.077374   -1.264998
    124          1           0       16.337946    4.902893   -3.194721
    125          1           0       17.924590    4.223613   -3.605971
    126          1           0       16.805754    3.098400   -3.293999
    127          1           0       17.933492    5.154644    0.322348
    128          1           0       18.902489    5.421439   -1.027703
    129          1           0       17.257784    6.203266   -0.850851
    130          1           0       -5.109330   -7.863127   -0.292862
    131          1           0       -6.535162   -6.816130    0.544958
    132          1           0       -4.687802   -7.141675    1.262304
    133          8           0       -7.730932    6.788355   -0.301508
    134          1           0       -8.996447    6.430854   -1.753421
 ---------------------------------------------------------------------

 SCF Done:  E(RCAM-B3LYP) =  -3043.42914449     A.U. after   16 cycles

 Excitation energies and oscillator strengths:

 Excited State   1:      Singlet-A      1.9116 eV  648.58 nm  f=0.1788  <S**2>=0.000
     243 -> 246       -0.26491
     244 -> 245        0.64287
 This state for optimization and/or second-order correction.
 Total Energy, E(TD-HF/TD-KS) =  -3043.35889329
 Copying the excited state density for this state as the 1-particle RhoCI density.

 The electronic state is 1-A.
 Alpha  occ. eigenvalues --  -46.81904 -19.23512 -19.23053 -19.17704 -19.17252
 Alpha  occ. eigenvalues --  -19.16955 -19.16720 -19.15424 -14.39483 -14.37279
 Alpha  occ. eigenvalues --  -14.37106 -14.36567 -10.35005 -10.34958 -10.32014
 Alpha  occ. eigenvalues --  -10.29726 -10.29680 -10.28531 -10.28091 -10.27468
 Alpha  occ. eigenvalues --  -10.26789 -10.26774 -10.26653 -10.26603 -10.26574
 Alpha  occ. eigenvalues --  -10.26269 -10.26126 -10.25921 -10.25279 -10.25034
 Alpha  occ. eigenvalues --  -10.24849 -10.24832 -10.24794 -10.24639 -10.24425
 Alpha  occ. eigenvalues --  -10.24125 -10.23912 -10.23860 -10.23565 -10.23406
 Alpha  occ. eigenvalues --  -10.23270 -10.23233 -10.22836 -10.22776 -10.22419
 Alpha  occ. eigenvalues --  -10.22418 -10.22387 -10.22214 -10.22111 -10.22086
 Alpha  occ. eigenvalues --  -10.22043 -10.22013 -10.21997 -10.21980 -10.21660
 Alpha  occ. eigenvalues --  -10.21632 -10.21495 -10.21409 -10.21198 -10.21167
 Alpha  occ. eigenvalues --  -10.20921 -10.20619 -10.20414 -10.20414 -10.20067
 Alpha  occ. eigenvalues --  -10.19893  -3.10400  -1.85348  -1.84868  -1.84804
 Alpha  occ. eigenvalues --   -1.16806  -1.15191  -1.06576  -1.06326  -1.05964
 Alpha  occ. eigenvalues --   -1.04953  -1.04410  -1.02067  -1.00295  -0.99108
 Alpha  occ. eigenvalues --   -0.97888  -0.88365  -0.87538  -0.86271  -0.85908
 Alpha  occ. eigenvalues --   -0.85267  -0.85059  -0.84704  -0.84222  -0.83776
 Alpha  occ. eigenvalues --   -0.83384  -0.83227  -0.82502  -0.80804  -0.80232
 Alpha  occ. eigenvalues --   -0.79200  -0.78753  -0.78146  -0.77378  -0.76794
 Alpha  occ. eigenvalues --   -0.76403  -0.75730  -0.74937  -0.73169  -0.72705
 Alpha  occ. eigenvalues --   -0.71334  -0.70765  -0.70594  -0.70563  -0.70299
 Alpha  occ. eigenvalues --   -0.69807  -0.69563  -0.68137  -0.66755  -0.65987
 Alpha  occ. eigenvalues --   -0.65850  -0.65546  -0.64398  -0.63007  -0.62343
 Alpha  occ. eigenvalues --   -0.61605  -0.60814  -0.60545  -0.59452  -0.59188
 Alpha  occ. eigenvalues --   -0.58823  -0.58657  -0.58403  -0.58098  -0.57546
 Alpha  occ. eigenvalues --   -0.56990  -0.56303  -0.55586  -0.55360  -0.55288
 Alpha  occ. eigenvalues --   -0.54448  -0.53532  -0.53294  -0.53144  -0.52785
 Alpha  occ. eigenvalues --   -0.52504  -0.51910  -0.51683  -0.51088  -0.50973
 Alpha  occ. eigenvalues --   -0.50731  -0.50332  -0.49636  -0.49418  -0.49113
 Alpha  occ. eigenvalues --   -0.48905  -0.48586  -0.48487  -0.48318  -0.47905
 Alpha  occ. eigenvalues --   -0.47858  -0.47697  -0.47435  -0.47274  -0.46747
 Alpha  occ. eigenvalues --   -0.46543  -0.46023  -0.46018  -0.45875  -0.45820
 Alpha  occ. eigenvalues --   -0.45484  -0.45432  -0.45255  -0.45146  -0.44795
 Alpha  occ. eigenvalues --   -0.44783  -0.44694  -0.44309  -0.44066  -0.43955
 Alpha  occ. eigenvalues --   -0.43716  -0.43575  -0.43517  -0.43397  -0.42681
 Alpha  occ. eigenvalues --   -0.42528  -0.42368  -0.42139  -0.42059  -0.41967
 Alpha  occ. eigenvalues --   -0.41941  -0.41482  -0.41271  -0.41101  -0.40861
 Alpha  occ. eigenvalues --   -0.40637  -0.40368  -0.40303  -0.40193  -0.40154
 Alpha  occ. eigenvalues --   -0.39887  -0.39744  -0.39576  -0.39513  -0.39253
 Alpha  occ. eigenvalues --   -0.38896  -0.38721  -0.38408  -0.38233  -0.38162
 Alpha  occ. eigenvalues --   -0.38040  -0.37921  -0.37836  -0.37583  -0.37481
 Alpha  occ. eigenvalues --   -0.37122  -0.36441  -0.36397  -0.35582  -0.35523
 Alpha  occ. eigenvalues --   -0.35182  -0.34926  -0.34746  -0.34403  -0.34345
 Alpha  occ. eigenvalues --   -0.34203  -0.33949  -0.33764  -0.33676  -0.33193
 Alpha  occ. eigenvalues --   -0.32821  -0.32437  -0.32032  -0.31934  -0.31528
 Alpha  occ. eigenvalues --   -0.31181  -0.31116  -0.30867  -0.30581  -0.29880
 Alpha  occ. eigenvalues --   -0.28460  -0.28146  -0.27958  -0.27745  -0.27470
 Alpha  occ. eigenvalues --   -0.26679  -0.26017  -0.22770  -0.21763
 Alpha virt. eigenvalues --   -0.09342  -0.07276  -0.02271  -0.01074   0.00127
 Alpha virt. eigenvalues --    0.03248   0.03927   0.04079   0.04396   0.04748
 Alpha virt. eigenvalues --    0.05325   0.06220   0.07569   0.08600   0.08623

 Mulliken charges:
               1
     1  Mg   0.831757
     2  C    0.037747
     3  C   -0.211854
     4  C   -0.131599
     5  C   -0.154329
     6  N   -0.622510
     7  C    0.317045
     8  C   -0.101280
     9  C   -0.177033
    10  C    0.379625
    11  C   -0.319829
    12  C   -0.200150
    13  C   -0.269852
    14  C    0.624290
    15  O   -0.470176
    16  O   -0.414714
    17  N   -0.744061
    18  C    0.324045
    19  C    0.054978
    20  C   -0.001797
    21  C    0.339099
    22  C   -0.388515
    23  C    0.196796
    24  O   -0.444041
    25  N   -0.696909
    26  C    0.263894
    27  C   -0.010185
    28  C    0.035897
    29  C    0.302719
    30  C    0.228460
    31  C   -0.255132
    32  C   -0.284608
    33  N   -0.698776
    34  C    0.254823
    35  C    0.032205
    36  C   -0.023109
    37  C    0.322122
    38  C   -0.366663
    39  C    0.368797
    40  O   -0.450799
    41  C   -0.319075
    42  C    0.593346
    43  O   -0.465639
    44  O   -0.414127
    45  C   -0.087407
    46  C   -0.001880
    47  C   -0.173214
    48  C    0.128077
    49  C   -0.353166
    50  C   -0.222953
    51  C   -0.164932
    52  C   -0.156337
    53  C   -0.037065
    54  C   -0.292632
    55  C   -0.167700
    56  C   -0.164831
    57  C   -0.162586
    58  C   -0.049757
    59  C   -0.319620
    60  C   -0.199475
    61  C   -0.162693
    62  C   -0.154918
    63  C   -0.039503
    64  C   -0.313438
    65  C   -0.310657
    66  H    0.078889
    67  H    0.164469
    68  H    0.087164
    69  H    0.111151
    70  H    0.114647
    71  H    0.099206
    72  H    0.099263
    73  H    0.136043
    74  H    0.103238
    75  H    0.115042
    76  H    0.147532
    77  H    0.117407
    78  H    0.144538
    79  H    0.165501
    80  H    0.108552
    81  H    0.049574
    82  H    0.098547
    83  H    0.112390
    84  H    0.101610
    85  H    0.110379
    86  H    0.114212
    87  H    0.140785
    88  H    0.144513
    89  H    0.101246
    90  H    0.160475
    91  H    0.112222
    92  H    0.122175
    93  H    0.079761
    94  H    0.121309
    95  H    0.111829
    96  H    0.117999
    97  H    0.109395
    98  H    0.104390
    99  H    0.102918
   100  H    0.070105
   101  H    0.044902
   102  H    0.101137
   103  H    0.078399
   104  H    0.105306
   105  H    0.064943
   106  H    0.084122
   107  H    0.101259
   108  H    0.080131
   109  H    0.109198
   110  H    0.073756
   111  H    0.073116
   112  H    0.077246
   113  H    0.081920
   114  H    0.111784
   115  H    0.108422
   116  H    0.093995
   117  H    0.059746
   118  H    0.079289
   119  H    0.083495
   120  H    0.116145
   121  H    0.100919
   122  H    0.072893
   123  H    0.049435
   124  H    0.076297
   125  H    0.115674
   126  H    0.103992
   127  H    0.092686
   128  H    0.109910
   129  H    0.092450
   130  H    0.131925
   131  H    0.131497
   132  H    0.117628
   133  O   -0.454009
   134  H    0.087721
 Sum of Mulliken charges =   0.00000

 Dipole moment (field-independent basis, Debye):
    X=              1.3151    Y=             -7.1251    Z=             -1.3051  Tot=              7.3621
 Quadrupole moment (field-independent basis, Debye-Ang):
   XX=           -364.8614   YY=           -439.7536   ZZ=           -394.3139
   XY=             10.3617   XZ=             27.3787   YZ=            -39.9435

 Normal termination of Gaussian 09 at Wed Oct  9 11:37:15 2019.
