 Gaussian 09, Revision D.01,
 Gaussian 09:  ES64L-G09RevD.01 24-Apr-2013

 ----------------------------------------------------------------------
 # td=(NStates=1) iop(3/107=0140000000,3/108=0140000000) iop(3/107=0140
 000000,3/108=0140000000) CAM-B3LYP/6-31G(d,p)
 ----------------------------------------------------------------------

 --
 TD
 --
 Symbolic Z-matrix:
 Charge =  0 Multiplicity = 1

                         Standard orientation:
 ---------------------------------------------------------------------
 Center     Atomic      Atomic             Coordinates (Angstroms)
 Number     Number       Type             X           Y           Z
 ---------------------------------------------------------------------
      1         12           0       -5.635293    1.177386    0.203808
      2          6           0       -5.052488   -2.114224   -0.432616
      3          6           0       -3.327672    1.122262    2.786240
      4          6           0       -6.130353    4.555846    0.779333
      5          6           0       -8.072215    1.192247   -2.218074
      6          7           0       -4.425686   -0.344749    1.141612
      7          6           0       -4.244796   -1.624294    0.698666
      8          6           0       -3.310827   -2.351067    1.405692
      9          6           0       -2.894007   -1.546902    2.640442
     10          6           0       -3.492173   -0.126860    2.115343
     11          6           0       -3.421614   -1.987193    4.050376
     12          6           0       -2.007601   -2.825427    0.662042
     13          6           0       -1.039786   -3.678150    1.453752
     14          6           0        0.241607   -4.031822    0.610524
     15          8           0        0.471228   -3.519295   -0.498817
     16          8           0        0.952725   -4.896115    1.240450
     17          7           0       -4.839513    2.521322    1.496427
     18          6           0       -3.896247    2.319837    2.541265
     19          6           0       -3.548900    3.557084    3.160944
     20          6           0       -4.462846    4.531717    2.689250
     21          6           0       -5.194074    3.908236    1.614022
     22          6           0       -2.617739    3.798284    4.341914
     23          6           0       -4.579826    5.945273    3.115724
     24          8           0       -3.910210    6.622180    3.929153
     25          7           0       -6.836347    2.722954   -0.699880
     26          6           0       -6.802034    4.016162   -0.307009
     27          6           0       -7.650339    4.696810   -1.179033
     28          6           0       -8.276820    3.805324   -2.032206
     29          6           0       -7.771660    2.431051   -1.669488
     30          6           0       -8.171882    6.050865   -1.156671
     31          6           0       -9.466907    4.059488   -3.139526
     32          6           0       -8.818359    4.334723   -4.476801
     33          7           0       -6.439366   -0.136525   -1.024784
     34          6           0       -7.449703   -0.008659   -1.972190
     35          6           0       -7.455217   -1.194489   -2.769045
     36          6           0       -6.657208   -2.107158   -2.200139
     37          6           0       -5.959611   -1.369554   -1.203032
     38          6           0       -8.474494   -1.528358   -3.916068
     39          6           0       -6.158074   -3.498238   -2.075638
     40          8           0       -6.543710   -4.528464   -2.719916
     41          6           0       -5.006345   -3.496246   -0.968243
     42          6           0       -5.307823   -4.552183   -0.026919
     43          8           0       -5.965232   -4.376953    1.055211
     44          8           0       -5.103093   -5.752120   -0.431620
     45          6           0       -5.384715   -6.887893    0.479291
     46          6           0        2.262902   -5.242316    0.611974
     47          6           0        3.390175   -4.147787    0.937853
     48          6           0        3.953573   -3.382087    0.060632
     49          6           0        3.619530   -3.218993   -1.360156
     50          6           0        5.119587   -2.456297    0.603568
     51          6           0        6.407068   -2.824278    0.085516
     52          6           0        7.606536   -1.866549    0.622048
     53          6           0        9.006155   -1.958651   -0.064408
     54          6           0        9.494193   -3.371405    0.123793
     55          6           0        9.887838   -0.805152    0.563290
     56          6           0       11.214423   -0.795893   -0.185881
     57          6           0       12.052393    0.429322    0.132536
     58          6           0       13.494997    0.376008   -0.583554
     59          6           0       14.409577   -0.788549   -0.215586
     60          6           0       14.299046    1.808560   -0.220080
     61          6           0       15.462468    2.190274   -1.108295
     62          6           0       15.936202    3.635074   -0.720670
     63          6           0       17.280268    3.947367   -1.330867
     64          6           0       17.220565    4.041416   -2.943255
     65          6           0       17.752374    5.300689   -0.800818
     66          1           0       -2.631041    0.862541    3.632083
     67          1           0       -6.246319    5.553238    0.746064
     68          1           0       -8.706015    1.567394   -3.143898
     69          1           0       -3.656203   -3.220815    1.785212
     70          1           0       -1.898221   -1.423699    2.682434
     71          1           0       -2.830158   -2.907663    4.394938
     72          1           0       -3.199358   -0.947208    4.761111
     73          1           0       -4.656412   -2.200018    3.815769
     74          1           0       -2.369706   -3.436284   -0.250190
     75          1           0       -1.486312   -2.040744    0.182865
     76          1           0       -0.583988   -3.114283    2.222236
     77          1           0       -1.503081   -4.611127    1.614216
     78          1           0       -1.664138    3.099800    4.425079
     79          1           0       -2.207382    4.959903    4.359533
     80          1           0       -3.127272    3.620970    5.443434
     81          1           0       -5.320541    6.700763    2.620845
     82          1           0      -10.374903    3.364341   -3.218125
     83          1           0       -9.891288    5.034849   -2.933184
     84          1           0       -9.560234    4.624223   -5.175332
     85          1           0       -8.120033    5.116683   -4.369007
     86          1           0       -8.401387    3.282896   -4.907644
     87          1           0       -8.469939   -0.976353   -4.786466
     88          1           0       -8.193208   -2.679992   -4.163394
     89          1           0       -9.495666   -1.365116   -3.788850
     90          1           0       -3.892340   -3.622213   -1.477667
     91          1           0        2.487114   -6.206675    1.053604
     92          1           0        2.171669   -5.304788   -0.438077
     93          1           0        3.577594   -4.367219    1.936011
     94          1           0        2.584538   -3.786070   -1.489907
     95          1           0        3.679041   -2.123309   -1.481609
     96          1           0        4.401394   -3.849826   -1.811646
     97          1           0        5.118728   -1.415730    0.297947
     98          1           0        5.148591   -2.553844    1.656680
     99          1           0        6.839479   -3.740037    0.415885
    100          1           0        6.559255   -2.708064   -0.914404
    101          1           0        7.233657   -0.893743    0.737585
    102          1           0        7.786033   -2.135722    1.673172
    103          1           0        8.839314   -1.727174   -1.045446
    104          1           0        8.825365   -4.241891   -0.290337
    105          1           0       10.231990   -3.455672   -0.676022
    106          1           0        9.688524   -3.640905    1.183552
    107          1           0        9.633635    0.353782    0.439127
    108          1           0       10.198742   -0.930047    1.718277
    109          1           0       11.844428   -1.701309    0.156173
    110          1           0       11.045106   -0.934656   -1.162816
    111          1           0       11.366250    1.376442    0.030501
    112          1           0       12.244993    0.306484    1.131160
    113          1           0       13.439743    0.083523   -1.743232
    114          1           0       14.490469   -0.837043    1.007282
    115          1           0       14.198908   -1.947431   -0.620624
    116          1           0       15.495163   -0.482697   -0.438587
    117          1           0       13.495655    2.568267   -0.490820
    118          1           0       14.666683    1.736004    0.711802
    119          1           0       16.279836    1.396380   -0.992289
    120          1           0       15.001091    2.105599   -2.189501
    121          1           0       15.166183    4.526794   -0.958629
    122          1           0       16.006813    3.643733    0.436447
    123          1           0       17.924604    2.867134   -1.204373
    124          1           0       16.341519    4.559651   -3.386634
    125          1           0       18.215362    4.208062   -3.332785
    126          1           0       16.971064    2.983369   -3.481743
    127          1           0       17.850640    5.373566    0.349314
    128          1           0       18.847900    5.410058   -1.047796
    129          1           0       16.983851    6.038982   -1.075270
    130          1           0       -5.079755   -7.758329   -0.011720
    131          1           0       -6.393173   -7.144741    0.452874
    132          1           0       -4.954089   -6.765934    1.440633
    133          8           0       -7.601852    6.994801   -0.525808
    134          1           0       -9.000424    6.447564   -1.902902
 ---------------------------------------------------------------------

 SCF Done:  E(RCAM-B3LYP) =  -3043.37295431     A.U. after   16 cycles

 Excitation energies and oscillator strengths:

 Excited State   1:      Singlet-A      1.9865 eV  624.12 nm  f=0.1506  <S**2>=0.000
     243 -> 246       -0.31398
     244 -> 245        0.62297
 This state for optimization and/or second-order correction.
 Total Energy, E(TD-HF/TD-KS) =  -3043.29995020
 Copying the excited state density for this state as the 1-particle RhoCI density.

 The electronic state is 1-A.
 Alpha  occ. eigenvalues --  -46.81451 -19.24205 -19.23508 -19.18054 -19.16754
 Alpha  occ. eigenvalues --  -19.16376 -19.16363 -19.15368 -14.39593 -14.37092
 Alpha  occ. eigenvalues --  -14.36863 -14.36098 -10.35243 -10.34859 -10.33295
 Alpha  occ. eigenvalues --  -10.30646 -10.30487 -10.28391 -10.27919 -10.27833
 Alpha  occ. eigenvalues --  -10.27276 -10.27040 -10.26698 -10.26687 -10.26624
 Alpha  occ. eigenvalues --  -10.26507 -10.26394 -10.25931 -10.25633 -10.25579
 Alpha  occ. eigenvalues --  -10.25501 -10.25101 -10.25058 -10.24685 -10.24607
 Alpha  occ. eigenvalues --  -10.24536 -10.24161 -10.23871 -10.23721 -10.23638
 Alpha  occ. eigenvalues --  -10.23628 -10.23380 -10.23369 -10.23292 -10.23215
 Alpha  occ. eigenvalues --  -10.22960 -10.22906 -10.22763 -10.22642 -10.22527
 Alpha  occ. eigenvalues --  -10.22512 -10.22312 -10.22049 -10.22044 -10.21997
 Alpha  occ. eigenvalues --  -10.21914 -10.21661 -10.21444 -10.21409 -10.21327
 Alpha  occ. eigenvalues --  -10.21076 -10.21036 -10.20740 -10.19846 -10.19542
 Alpha  occ. eigenvalues --  -10.19507  -3.09992  -1.84935  -1.84451  -1.84411
 Alpha  occ. eigenvalues --   -1.15237  -1.14820  -1.04641  -1.04131  -1.03836
 Alpha  occ. eigenvalues --   -1.03497  -1.01622  -1.01015  -1.00541  -0.99326
 Alpha  occ. eigenvalues --   -0.97195  -0.89341  -0.87099  -0.86792  -0.85171
 Alpha  occ. eigenvalues --   -0.85118  -0.84077  -0.83968  -0.83593  -0.83388
 Alpha  occ. eigenvalues --   -0.82627  -0.82126  -0.81850  -0.81109  -0.80480
 Alpha  occ. eigenvalues --   -0.79554  -0.78942  -0.78833  -0.78044  -0.77000
 Alpha  occ. eigenvalues --   -0.75442  -0.74962  -0.74251  -0.73797  -0.71999
 Alpha  occ. eigenvalues --   -0.71330  -0.70491  -0.70117  -0.69700  -0.69293
 Alpha  occ. eigenvalues --   -0.68912  -0.68823  -0.66760  -0.66514  -0.65726
 Alpha  occ. eigenvalues --   -0.65629  -0.64519  -0.64333  -0.62931  -0.62268
 Alpha  occ. eigenvalues --   -0.61626  -0.61615  -0.60031  -0.59975  -0.59787
 Alpha  occ. eigenvalues --   -0.59344  -0.58120  -0.57816  -0.57535  -0.57087
 Alpha  occ. eigenvalues --   -0.56839  -0.56772  -0.55807  -0.55174  -0.54980
 Alpha  occ. eigenvalues --   -0.54166  -0.53902  -0.53373  -0.52870  -0.52518
 Alpha  occ. eigenvalues --   -0.52288  -0.51841  -0.51680  -0.51464  -0.50829
 Alpha  occ. eigenvalues --   -0.50651  -0.50403  -0.50020  -0.49787  -0.49375
 Alpha  occ. eigenvalues --   -0.49133  -0.48543  -0.48174  -0.47897  -0.47855
 Alpha  occ. eigenvalues --   -0.47589  -0.47408  -0.47365  -0.46871  -0.46524
 Alpha  occ. eigenvalues --   -0.46476  -0.46285  -0.45910  -0.45578  -0.45376
 Alpha  occ. eigenvalues --   -0.45306  -0.45132  -0.44831  -0.44664  -0.44402
 Alpha  occ. eigenvalues --   -0.44274  -0.44215  -0.43992  -0.43736  -0.43299
 Alpha  occ. eigenvalues --   -0.43186  -0.42936  -0.42880  -0.42376  -0.42100
 Alpha  occ. eigenvalues --   -0.42081  -0.41909  -0.41650  -0.41575  -0.41277
 Alpha  occ. eigenvalues --   -0.41044  -0.40978  -0.40887  -0.40800  -0.40739
 Alpha  occ. eigenvalues --   -0.40303  -0.40222  -0.40099  -0.39852  -0.39838
 Alpha  occ. eigenvalues --   -0.39731  -0.39608  -0.39461  -0.39353  -0.39151
 Alpha  occ. eigenvalues --   -0.39079  -0.38916  -0.38860  -0.38490  -0.38066
 Alpha  occ. eigenvalues --   -0.37887  -0.37859  -0.37719  -0.37301  -0.36975
 Alpha  occ. eigenvalues --   -0.36816  -0.36671  -0.35930  -0.35870  -0.35692
 Alpha  occ. eigenvalues --   -0.35570  -0.35475  -0.35117  -0.35045  -0.34347
 Alpha  occ. eigenvalues --   -0.34279  -0.33995  -0.33885  -0.33658  -0.32699
 Alpha  occ. eigenvalues --   -0.32600  -0.32565  -0.32513  -0.31901  -0.31366
 Alpha  occ. eigenvalues --   -0.31094  -0.30215  -0.29916  -0.29385  -0.29310
 Alpha  occ. eigenvalues --   -0.29219  -0.28589  -0.28450  -0.28172  -0.27344
 Alpha  occ. eigenvalues --   -0.27085  -0.26448  -0.22788  -0.21750
 Alpha virt. eigenvalues --   -0.08746  -0.06856  -0.02768  -0.00991  -0.00432
 Alpha virt. eigenvalues --    0.02287   0.02988   0.03734   0.04142   0.04483
 Alpha virt. eigenvalues --    0.04729   0.05097   0.07250   0.07362   0.08259

 Mulliken charges:
               1
     1  Mg   0.823024
     2  C    0.089302
     3  C   -0.200338
     4  C   -0.120146
     5  C   -0.147186
     6  N   -0.605422
     7  C    0.393566
     8  C   -0.177069
     9  C   -0.118664
    10  C    0.260699
    11  C   -0.277019
    12  C   -0.194964
    13  C   -0.252437
    14  C    0.582009
    15  O   -0.492641
    16  O   -0.430580
    17  N   -0.707606
    18  C    0.336670
    19  C    0.059199
    20  C   -0.003467
    21  C    0.298092
    22  C   -0.372004
    23  C    0.221784
    24  O   -0.432611
    25  N   -0.724918
    26  C    0.333159
    27  C   -0.015363
    28  C    0.006368
    29  C    0.277120
    30  C    0.208963
    31  C   -0.251917
    32  C   -0.295477
    33  N   -0.727666
    34  C    0.290141
    35  C   -0.049866
    36  C    0.128231
    37  C    0.257728
    38  C   -0.381524
    39  C    0.366202
    40  O   -0.475648
    41  C   -0.335759
    42  C    0.628904
    43  O   -0.528965
    44  O   -0.420965
    45  C   -0.084389
    46  C   -0.031774
    47  C   -0.139530
    48  C    0.139180
    49  C   -0.357147
    50  C   -0.220392
    51  C   -0.178732
    52  C   -0.205170
    53  C   -0.058931
    54  C   -0.309560
    55  C   -0.165649
    56  C   -0.179327
    57  C   -0.169939
    58  C   -0.054624
    59  C   -0.299543
    60  C   -0.174218
    61  C   -0.177171
    62  C   -0.143371
    63  C   -0.037669
    64  C   -0.312898
    65  C   -0.303017
    66  H    0.081699
    67  H    0.113295
    68  H    0.098484
    69  H    0.124868
    70  H    0.110729
    71  H    0.119208
    72  H    0.088998
    73  H    0.113191
    74  H    0.087872
    75  H    0.130962
    76  H    0.140406
    77  H    0.134954
    78  H    0.096916
    79  H    0.145877
    80  H    0.116285
    81  H    0.086109
    82  H    0.114580
    83  H    0.114744
    84  H    0.115522
    85  H    0.127199
    86  H    0.083912
    87  H    0.126534
    88  H    0.129117
    89  H    0.133713
    90  H    0.152000
    91  H    0.121272
    92  H    0.128575
    93  H    0.088143
    94  H    0.137517
    95  H    0.123204
    96  H    0.127427
    97  H    0.098283
    98  H    0.101605
    99  H    0.099348
   100  H    0.099832
   101  H    0.082685
   102  H    0.077581
   103  H    0.096977
   104  H    0.093257
   105  H    0.107362
   106  H    0.113416
   107  H    0.078135
   108  H    0.074255
   109  H    0.087292
   110  H    0.097304
   111  H    0.073223
   112  H    0.106600
   113  H    0.067286
   114  H    0.063435
   115  H    0.086194
   116  H    0.101463
   117  H    0.093748
   118  H    0.103462
   119  H    0.084378
   120  H    0.084941
   121  H    0.072384
   122  H    0.082291
   123  H    0.060264
   124  H    0.104622
   125  H    0.111841
   126  H    0.071985
   127  H    0.088228
   128  H    0.102236
   129  H    0.113825
   130  H    0.129316
   131  H    0.146617
   132  H    0.141654
   133  O   -0.442552
   134  H    0.074846
 Sum of Mulliken charges =   0.00000

 Dipole moment (field-independent basis, Debye):
    X=              4.2583    Y=             -7.3578    Z=             -1.0723  Tot=              8.5686
 Quadrupole moment (field-independent basis, Debye-Ang):
   XX=           -378.3569   YY=           -432.9730   ZZ=           -397.8915
   XY=              7.2854   XZ=             26.2723   YZ=            -39.1182

 Normal termination of Gaussian 09 at Sat Oct  5 10:35:22 2019.
