 Gaussian 09, Revision D.01,
 Gaussian 09:  ES64L-G09RevD.01 24-Apr-2013

 ----------------------------------------------------------------------
 # td=(NStates=1) iop(3/107=0140000000,3/108=0140000000) iop(3/107=0140
 000000,3/108=0140000000) CAM-B3LYP/6-31G(d,p)
 ----------------------------------------------------------------------

 --
 TD
 --
 Symbolic Z-matrix:
 Charge =  0 Multiplicity = 1

                         Standard orientation:
 ---------------------------------------------------------------------
 Center     Atomic      Atomic             Coordinates (Angstroms)
 Number     Number       Type             X           Y           Z
 ---------------------------------------------------------------------
      1         12           0       -5.577164    1.198804    0.117864
      2          6           0       -5.071899   -2.155750   -0.452888
      3          6           0       -3.501628    1.096274    2.746655
      4          6           0       -6.184653    4.526724    0.697788
      5          6           0       -7.963870    1.208600   -2.392847
      6          7           0       -4.386357   -0.332332    0.979181
      7          6           0       -4.292247   -1.612380    0.584221
      8          6           0       -3.193523   -2.305075    1.406771
      9          6           0       -2.874584   -1.356649    2.555361
     10          6           0       -3.654457   -0.106479    2.137074
     11          6           0       -3.327052   -1.919529    3.824125
     12          6           0       -2.043428   -2.735987    0.478371
     13          6           0       -1.011133   -3.661803    1.304763
     14          6           0        0.310275   -3.918768    0.681814
     15          8           0        0.706394   -3.384386   -0.403552
     16          8           0        1.118183   -4.733595    1.343494
     17          7           0       -4.941876    2.558440    1.453830
     18          6           0       -4.018215    2.446928    2.544954
     19          6           0       -3.809124    3.605204    3.276223
     20          6           0       -4.538480    4.636951    2.552443
     21          6           0       -5.401380    3.888613    1.597342
     22          6           0       -2.805381    3.664808    4.374196
     23          6           0       -4.736826    6.062781    2.993673
     24          8           0       -4.201652    6.609850    3.953054
     25          7           0       -7.047318    2.648096   -0.629936
     26          6           0       -6.992029    4.006662   -0.313350
     27          6           0       -7.951205    4.608470   -1.148984
     28          6           0       -8.462638    3.574068   -2.093015
     29          6           0       -7.785544    2.444484   -1.679074
     30          6           0       -8.456794    5.968213   -1.031549
     31          6           0       -9.398201    3.866744   -3.212675
     32          6           0       -8.728704    4.099188   -4.530774
     33          7           0       -6.391762   -0.246775   -1.180080
     34          6           0       -7.293507    0.000053   -2.140245
     35          6           0       -7.537793   -1.294337   -2.790253
     36          6           0       -6.678808   -2.143484   -2.205673
     37          6           0       -6.005584   -1.433769   -1.165231
     38          6           0       -8.477922   -1.597230   -3.831255
     39          6           0       -6.199586   -3.584574   -2.038865
     40          8           0       -6.637641   -4.554526   -2.667616
     41          6           0       -5.080251   -3.559257   -1.040645
     42          6           0       -5.445903   -4.669366    0.074042
     43          8           0       -5.794607   -4.410897    1.245103
     44          8           0       -5.142675   -5.873108   -0.417733
     45          6           0       -5.346656   -6.959519    0.508782
     46          6           0        2.359655   -5.121207    0.738915
     47          6           0        3.461642   -4.130596    1.094363
     48          6           0        4.040938   -3.222950    0.298868
     49          6           0        3.815875   -3.177731   -1.237510
     50          6           0        5.111533   -2.342649    0.841018
     51          6           0        6.484625   -2.572505    0.068611
     52          6           0        7.726145   -1.804260    0.657764
     53          6           0        9.137633   -1.931122   -0.061556
     54          6           0        9.644874   -3.344509    0.179167
     55          6           0       10.025589   -0.851410    0.493378
     56          6           0       11.419064   -0.809449   -0.143214
     57          6           0       12.352808    0.434578    0.179000
     58          6           0       13.657609    0.438027   -0.598896
     59          6           0       14.463608   -0.688489   -0.210457
     60          6           0       14.270759    1.833589   -0.316436
     61          6           0       15.458377    2.268896   -1.041856
     62          6           0       16.077031    3.560998   -0.683022
     63          6           0       17.426057    3.880927   -1.408785
     64          6           0       17.082127    3.904635   -2.995457
     65          6           0       17.954573    5.274856   -0.878195
     66          1           0       -2.881141    1.258485    3.679976
     67          1           0       -6.588533    5.501997    0.889218
     68          1           0       -8.668192    1.339695   -3.330762
     69          1           0       -3.576309   -3.372546    1.616388
     70          1           0       -1.848599   -1.185435    2.524669
     71          1           0       -2.637970   -2.830618    4.432849
     72          1           0       -3.432148   -1.326685    4.735618
     73          1           0       -4.495890   -2.225016    3.898993
     74          1           0       -2.255677   -3.122882   -0.512477
     75          1           0       -1.351220   -1.900312    0.122920
     76          1           0       -0.907313   -3.026633    2.222586
     77          1           0       -1.475675   -4.585620    1.516734
     78          1           0       -1.900445    3.275387    3.932788
     79          1           0       -2.653328    4.740585    4.868208
     80          1           0       -2.798795    2.799191    5.164136
     81          1           0       -5.416272    6.572512    2.278948
     82          1           0      -10.319861    3.114563   -3.156545
     83          1           0      -10.035880    4.621510   -3.042461
     84          1           0       -9.491280    4.219985   -5.304436
     85          1           0       -8.060779    4.970869   -4.513337
     86          1           0       -8.112298    3.356797   -4.669162
     87          1           0       -7.848564   -1.279123   -4.829226
     88          1           0       -8.650133   -2.697000   -3.871573
     89          1           0       -9.482515   -1.049844   -3.722324
     90          1           0       -3.995974   -3.740576   -1.541276
     91          1           0        2.641821   -6.064089    0.940598
     92          1           0        2.264576   -5.239192   -0.486281
     93          1           0        3.764281   -4.031103    2.255182
     94          1           0        2.819585   -3.661494   -1.500266
     95          1           0        3.621654   -1.916499   -1.461685
     96          1           0        4.861556   -3.453510   -1.833388
     97          1           0        4.799555   -1.206005    0.667692
     98          1           0        5.215918   -2.442204    2.000638
     99          1           0        6.849301   -3.623009    0.228747
    100          1           0        6.318287   -2.254931   -0.893345
    101          1           0        7.397314   -0.810681    0.785508
    102          1           0        7.712927   -2.104657    1.789331
    103          1           0        9.033459   -1.743733   -1.035071
    104          1           0        8.806197   -4.147611   -0.227789
    105          1           0       10.250691   -3.828973   -0.503148
    106          1           0        9.940077   -3.483449    1.170038
    107          1           0        9.659193    0.061162    0.198676
    108          1           0       10.004396   -0.807314    1.580713
    109          1           0       11.759679   -1.817350    0.259212
    110          1           0       11.420791   -1.002560   -1.153551
    111          1           0       11.729521    1.406559   -0.104652
    112          1           0       12.576686    0.522397    1.368025
    113          1           0       13.503477    0.465766   -1.764901
    114          1           0       14.327641   -0.505956    0.959109
    115          1           0       14.179370   -1.709114   -0.563629
    116          1           0       15.574201   -0.712616   -0.428522
    117          1           0       13.594105    2.781308   -0.636467
    118          1           0       14.525474    1.941772    0.796849
    119          1           0       16.194641    1.507643   -0.825657
    120          1           0       15.349098    2.163889   -2.163070
    121          1           0       15.371098    4.365379   -0.908052
    122          1           0       16.049852    3.563235    0.428783
    123          1           0       18.234161    3.121435   -1.181371
    124          1           0       16.355113    4.534695   -3.443119
    125          1           0       18.027180    4.021649   -3.609791
    126          1           0       16.850734    2.785383   -3.190741
    127          1           0       18.049352    4.818103    0.089700
    128          1           0       18.927462    5.598001   -1.430867
    129          1           0       17.300733    6.039186   -0.988548
    130          1           0       -4.752340   -7.815624   -0.108341
    131          1           0       -6.284449   -7.076721    0.619620
    132          1           0       -4.764500   -6.763344    1.510454
    133          8           0       -8.002215    6.880916   -0.310540
    134          1           0       -9.314967    6.300573   -1.791939
 ---------------------------------------------------------------------

 SCF Done:  E(RCAM-B3LYP) =  -3043.41319030     A.U. after   16 cycles

 Excitation energies and oscillator strengths:

 Excited State   1:      Singlet-A      2.1314 eV  581.70 nm  f=0.1118  <S**2>=0.000
     243 -> 245        0.31196
     243 -> 246       -0.27417
     244 -> 245        0.52137
     244 -> 246        0.21139
 This state for optimization and/or second-order correction.
 Total Energy, E(TD-HF/TD-KS) =  -3043.33486238
 Copying the excited state density for this state as the 1-particle RhoCI density.

 The electronic state is 1-A.
 Alpha  occ. eigenvalues --  -46.82617 -19.24434 -19.23623 -19.18731 -19.17667
 Alpha  occ. eigenvalues --  -19.17430 -19.16409 -19.16391 -14.39009 -14.37243
 Alpha  occ. eigenvalues --  -14.36203 -14.36066 -10.36965 -10.35672 -10.32255
 Alpha  occ. eigenvalues --  -10.30611 -10.30296 -10.28814 -10.28533 -10.28378
 Alpha  occ. eigenvalues --  -10.27968 -10.27208 -10.26959 -10.26725 -10.26564
 Alpha  occ. eigenvalues --  -10.25662 -10.25548 -10.25393 -10.25126 -10.25035
 Alpha  occ. eigenvalues --  -10.24889 -10.24781 -10.24670 -10.24653 -10.24481
 Alpha  occ. eigenvalues --  -10.24467 -10.24166 -10.24143 -10.24025 -10.23905
 Alpha  occ. eigenvalues --  -10.23799 -10.23719 -10.23431 -10.23348 -10.23238
 Alpha  occ. eigenvalues --  -10.23195 -10.23032 -10.23029 -10.22904 -10.22881
 Alpha  occ. eigenvalues --  -10.22393 -10.22203 -10.21758 -10.21563 -10.21284
 Alpha  occ. eigenvalues --  -10.21238 -10.21019 -10.20936 -10.20686 -10.20594
 Alpha  occ. eigenvalues --  -10.20494 -10.20358 -10.20305 -10.19667 -10.19357
 Alpha  occ. eigenvalues --  -10.19261  -3.10940  -1.85898  -1.85380  -1.85356
 Alpha  occ. eigenvalues --   -1.14758  -1.14239  -1.06530  -1.06035  -1.04973
 Alpha  occ. eigenvalues --   -1.04382  -1.03799  -1.02094  -1.00392  -1.00330
 Alpha  occ. eigenvalues --   -0.97463  -0.89285  -0.86597  -0.86310  -0.85881
 Alpha  occ. eigenvalues --   -0.85363  -0.85043  -0.84624  -0.84539  -0.83760
 Alpha  occ. eigenvalues --   -0.83145  -0.82878  -0.82004  -0.80683  -0.79575
 Alpha  occ. eigenvalues --   -0.78935  -0.78437  -0.78213  -0.77655  -0.76909
 Alpha  occ. eigenvalues --   -0.75379  -0.75249  -0.74181  -0.73931  -0.72492
 Alpha  occ. eigenvalues --   -0.70858  -0.70843  -0.69942  -0.69887  -0.69720
 Alpha  occ. eigenvalues --   -0.69156  -0.68840  -0.67792  -0.67258  -0.66428
 Alpha  occ. eigenvalues --   -0.66282  -0.65132  -0.64137  -0.62955  -0.61894
 Alpha  occ. eigenvalues --   -0.61763  -0.61613  -0.60395  -0.60092  -0.59915
 Alpha  occ. eigenvalues --   -0.59518  -0.58863  -0.58353  -0.57677  -0.57321
 Alpha  occ. eigenvalues --   -0.56771  -0.55948  -0.55213  -0.54462  -0.54401
 Alpha  occ. eigenvalues --   -0.54190  -0.53862  -0.53200  -0.52833  -0.52762
 Alpha  occ. eigenvalues --   -0.52287  -0.51918  -0.51820  -0.51662  -0.51120
 Alpha  occ. eigenvalues --   -0.51049  -0.50294  -0.49861  -0.49793  -0.49500
 Alpha  occ. eigenvalues --   -0.49467  -0.48988  -0.48142  -0.48065  -0.47852
 Alpha  occ. eigenvalues --   -0.47572  -0.47389  -0.47060  -0.46983  -0.46867
 Alpha  occ. eigenvalues --   -0.46663  -0.46374  -0.46215  -0.46060  -0.45732
 Alpha  occ. eigenvalues --   -0.45635  -0.45553  -0.45232  -0.44873  -0.44712
 Alpha  occ. eigenvalues --   -0.44506  -0.44295  -0.44195  -0.43675  -0.43495
 Alpha  occ. eigenvalues --   -0.43207  -0.43073  -0.42838  -0.42826  -0.42630
 Alpha  occ. eigenvalues --   -0.42507  -0.42380  -0.42202  -0.41944  -0.41849
 Alpha  occ. eigenvalues --   -0.41743  -0.41349  -0.41243  -0.40937  -0.40860
 Alpha  occ. eigenvalues --   -0.40641  -0.40626  -0.40367  -0.40227  -0.40168
 Alpha  occ. eigenvalues --   -0.39890  -0.39711  -0.39554  -0.39249  -0.39205
 Alpha  occ. eigenvalues --   -0.39007  -0.38686  -0.38383  -0.38165  -0.37597
 Alpha  occ. eigenvalues --   -0.37328  -0.37057  -0.36653  -0.36393  -0.36217
 Alpha  occ. eigenvalues --   -0.36130  -0.36110  -0.35852  -0.35693  -0.35602
 Alpha  occ. eigenvalues --   -0.35402  -0.35148  -0.35008  -0.34992  -0.34888
 Alpha  occ. eigenvalues --   -0.34495  -0.34353  -0.33893  -0.33505  -0.33349
 Alpha  occ. eigenvalues --   -0.32921  -0.32693  -0.32089  -0.31733  -0.31425
 Alpha  occ. eigenvalues --   -0.31351  -0.31027  -0.30539  -0.30504  -0.29912
 Alpha  occ. eigenvalues --   -0.28808  -0.28138  -0.28118  -0.27385  -0.27090
 Alpha  occ. eigenvalues --   -0.27089  -0.26646  -0.23050  -0.22587
 Alpha virt. eigenvalues --   -0.08868  -0.07041  -0.01673  -0.01080   0.00016
 Alpha virt. eigenvalues --    0.02091   0.02287   0.02455   0.04051   0.04308
 Alpha virt. eigenvalues --    0.04880   0.05384   0.08023   0.08213   0.09583

 Mulliken charges:
               1
     1  Mg   0.827130
     2  C    0.085074
     3  C   -0.179334
     4  C   -0.137950
     5  C   -0.166200
     6  N   -0.661255
     7  C    0.352335
     8  C   -0.147551
     9  C   -0.113250
    10  C    0.326317
    11  C   -0.307015
    12  C   -0.208525
    13  C   -0.260653
    14  C    0.595199
    15  O   -0.502039
    16  O   -0.434102
    17  N   -0.676729
    18  C    0.283157
    19  C    0.091145
    20  C   -0.065382
    21  C    0.281600
    22  C   -0.414762
    23  C    0.264741
    24  O   -0.423747
    25  N   -0.698166
    26  C    0.259854
    27  C   -0.041190
    28  C    0.027367
    29  C    0.341502
    30  C    0.217626
    31  C   -0.249018
    32  C   -0.301613
    33  N   -0.741416
    34  C    0.298860
    35  C   -0.013525
    36  C    0.026718
    37  C    0.333030
    38  C   -0.385702
    39  C    0.399643
    40  O   -0.464364
    41  C   -0.325814
    42  C    0.603779
    43  O   -0.473888
    44  O   -0.414230
    45  C   -0.077913
    46  C    0.013320
    47  C   -0.151187
    48  C    0.194764
    49  C   -0.347181
    50  C   -0.234170
    51  C   -0.175083
    52  C   -0.191498
    53  C   -0.035304
    54  C   -0.307066
    55  C   -0.182771
    56  C   -0.189601
    57  C   -0.156035
    58  C   -0.050650
    59  C   -0.280963
    60  C   -0.153830
    61  C   -0.174497
    62  C   -0.159280
    63  C   -0.072059
    64  C   -0.323984
    65  C   -0.292939
    66  H    0.058568
    67  H    0.131149
    68  H    0.104057
    69  H    0.126726
    70  H    0.127767
    71  H    0.073713
    72  H    0.120767
    73  H    0.114588
    74  H    0.117226
    75  H    0.118175
    76  H    0.139749
    77  H    0.137303
    78  H    0.139510
    79  H    0.154816
    80  H    0.118741
    81  H    0.089075
    82  H    0.084096
    83  H    0.121550
    84  H    0.110487
    85  H    0.117422
    86  H    0.119489
    87  H    0.118409
    88  H    0.151674
    89  H    0.119256
    90  H    0.158455
    91  H    0.127716
    92  H    0.097972
    93  H    0.067040
    94  H    0.145608
    95  H    0.070027
    96  H    0.104180
    97  H    0.083808
    98  H    0.082959
    99  H    0.102821
   100  H    0.107222
   101  H    0.090006
   102  H    0.068136
   103  H    0.089369
   104  H    0.059876
   105  H    0.112357
   106  H    0.116030
   107  H    0.097637
   108  H    0.089033
   109  H    0.086559
   110  H    0.097459
   111  H    0.078571
   112  H    0.074188
   113  H    0.069696
   114  H    0.078225
   115  H    0.111036
   116  H    0.096667
   117  H    0.064442
   118  H    0.070368
   119  H    0.081968
   120  H    0.082612
   121  H    0.087854
   122  H    0.078953
   123  H    0.087940
   124  H    0.114557
   125  H    0.087534
   126  H    0.093792
   127  H    0.109468
   128  H    0.084343
   129  H    0.113665
   130  H    0.117606
   131  H    0.153592
   132  H    0.124055
   133  O   -0.441131
   134  H    0.051683
 Sum of Mulliken charges =   0.00000

 Dipole moment (field-independent basis, Debye):
    X=              2.4368    Y=             -6.9576    Z=             -1.8843  Tot=              7.6090
 Quadrupole moment (field-independent basis, Debye-Ang):
   XX=           -392.5698   YY=           -438.5616   ZZ=           -395.4158
   XY=             17.7344   XZ=             20.3215   YZ=            -35.3459

 Normal termination of Gaussian 09 at Fri Oct  4 08:55:37 2019.
