 Gaussian 09, Revision D.01,
 Gaussian 09:  ES64L-G09RevD.01 24-Apr-2013

 ----------------------------------------------------------------------
 # td=(NStates=1) iop(3/107=0140000000,3/108=0140000000) iop(3/107=0140
 000000,3/108=0140000000) CAM-B3LYP/6-31G(d,p)
 ----------------------------------------------------------------------

 --
 TD
 --
 Symbolic Z-matrix:
 Charge =  0 Multiplicity = 1

                         Standard orientation:
 ---------------------------------------------------------------------
 Center     Atomic      Atomic             Coordinates (Angstroms)
 Number     Number       Type             X           Y           Z
 ---------------------------------------------------------------------
      1         12           0       -5.447490    1.243036    0.124633
      2          6           0       -4.986595   -2.154417   -0.239783
      3          6           0       -3.349172    1.217194    2.716450
      4          6           0       -6.172429    4.635309    0.563514
      5          6           0       -7.863116    1.093195   -2.380982
      6          7           0       -4.294505   -0.236286    1.148959
      7          6           0       -4.141204   -1.552322    0.682480
      8          6           0       -3.156055   -2.320402    1.553360
      9          6           0       -2.725662   -1.238578    2.640008
     10          6           0       -3.424690    0.045671    2.108687
     11          6           0       -3.258256   -1.589759    4.019668
     12          6           0       -1.964590   -2.803693    0.695105
     13          6           0       -0.987295   -3.603936    1.418945
     14          6           0        0.279840   -3.956520    0.516243
     15          8           0        0.451938   -3.578666   -0.605176
     16          8           0        1.138755   -4.805517    1.202389
     17          7           0       -4.752154    2.700235    1.234823
     18          6           0       -3.913648    2.514029    2.383994
     19          6           0       -3.707917    3.746056    3.163875
     20          6           0       -4.482755    4.665882    2.530624
     21          6           0       -5.132021    3.986443    1.401876
     22          6           0       -2.789947    3.760106    4.263186
     23          6           0       -4.752364    6.082925    3.017030
     24          8           0       -4.174355    6.500054    4.155044
     25          7           0       -6.833520    2.638348   -0.653102
     26          6           0       -6.902954    3.946454   -0.478442
     27          6           0       -7.978077    4.607218   -1.314007
     28          6           0       -8.389987    3.599942   -2.117607
     29          6           0       -7.602384    2.423090   -1.818318
     30          6           0       -8.409261    6.009697   -1.182686
     31          6           0       -9.394949    3.812327   -3.182718
     32          6           0       -8.800841    4.077292   -4.519811
     33          7           0       -6.184602   -0.096239   -1.145900
     34          6           0       -7.272526   -0.051522   -2.111197
     35          6           0       -7.473178   -1.403438   -2.783825
     36          6           0       -6.661461   -2.187182   -2.098275
     37          6           0       -5.946319   -1.397118   -1.050136
     38          6           0       -8.576531   -1.684835   -3.803117
     39          6           0       -6.107580   -3.564470   -1.929233
     40          8           0       -6.534774   -4.648661   -2.435967
     41          6           0       -5.034947   -3.584134   -0.774017
     42          6           0       -5.357888   -4.680401    0.199134
     43          8           0       -5.886436   -4.510970    1.340968
     44          8           0       -4.968361   -5.907683   -0.282714
     45          6           0       -5.283038   -7.040218    0.531717
     46          6           0        2.391204   -4.992576    0.570031
     47          6           0        3.468358   -4.142532    0.902108
     48          6           0        4.006504   -3.180375    0.137308
     49          6           0        3.706073   -3.171974   -1.334289
     50          6           0        5.145146   -2.257153    0.676570
     51          6           0        6.480796   -2.796197    0.151714
     52          6           0        7.664786   -1.881527    0.628944
     53          6           0        9.007105   -2.156963   -0.112255
     54          6           0        9.568952   -3.630647    0.217755
     55          6           0        9.924381   -0.998621    0.364978
     56          6           0       11.345335   -0.973695   -0.267573
     57          6           0       12.085289    0.383996    0.112267
     58          6           0       13.429571    0.450501   -0.707351
     59          6           0       14.382223   -0.789608   -0.291945
     60          6           0       14.092778    1.890665   -0.343612
     61          6           0       15.235749    2.173769   -1.181138
     62          6           0       15.828790    3.559595   -0.642852
     63          6           0       17.121657    4.058523   -1.326176
     64          6           0       16.980118    4.380445   -2.828044
     65          6           0       17.520723    5.386956   -0.596082
     66          1           0       -2.580724    1.222451    3.597875
     67          1           0       -6.282016    5.684884    0.849294
     68          1           0       -8.762039    1.212414   -2.853252
     69          1           0       -3.652476   -3.191727    1.805986
     70          1           0       -1.458825   -1.066818    2.687854
     71          1           0       -2.715971   -2.320084    4.531165
     72          1           0       -3.256085   -0.527121    4.749432
     73          1           0       -4.196600   -1.813926    4.179758
     74          1           0       -2.525609   -3.535922   -0.033418
     75          1           0       -1.478092   -1.997307    0.095047
     76          1           0       -0.594424   -3.173221    2.340192
     77          1           0       -1.161030   -4.393176    1.695543
     78          1           0       -1.789542    3.402284    3.742524
     79          1           0       -2.488290    4.848214    4.808386
     80          1           0       -2.648348    2.939408    4.969646
     81          1           0       -5.508227    6.615402    2.455977
     82          1           0      -10.012866    2.955014   -3.265498
     83          1           0      -10.095902    4.565500   -3.095049
     84          1           0       -9.633801    4.193216   -5.265806
     85          1           0       -8.148720    5.112206   -4.506401
     86          1           0       -8.329186    3.182532   -4.796989
     87          1           0       -8.613235   -0.841107   -4.654491
     88          1           0       -8.349778   -2.686791   -4.235832
     89          1           0       -9.707092   -1.685653   -3.342244
     90          1           0       -4.123573   -4.088366   -1.241395
     91          1           0        2.729978   -6.061717    0.816560
     92          1           0        2.059329   -5.202431   -0.547955
     93          1           0        3.600322   -3.949542    2.023738
     94          1           0        2.864177   -3.494256   -1.577207
     95          1           0        3.934903   -2.176056   -1.766880
     96          1           0        4.275880   -4.165058   -1.896728
     97          1           0        4.942630   -1.233113    0.373609
     98          1           0        4.925629   -2.245119    1.849628
     99          1           0        6.695708   -3.788676    0.597183
    100          1           0        6.458762   -2.676874   -0.892732
    101          1           0        7.490775   -0.853065    0.355385
    102          1           0        7.917083   -2.045151    1.620270
    103          1           0        8.851466   -2.181932   -1.195335
    104          1           0        8.703179   -4.225908   -0.053259
    105          1           0       10.539194   -3.932780   -0.345117
    106          1           0        9.779131   -3.680794    1.447297
    107          1           0        9.266973   -0.011721    0.067825
    108          1           0       10.075130   -0.872128    1.456606
    109          1           0       11.893790   -1.892118   -0.004528
    110          1           0       11.318547   -1.137942   -1.413203
    111          1           0       11.438456    1.144974   -0.273450
    112          1           0       12.277086    0.416401    1.147757
    113          1           0       13.152754    0.235065   -1.805624
    114          1           0       14.690543   -0.558461    0.891418
    115          1           0       13.785857   -1.787064   -0.301766
    116          1           0       15.203722   -0.689084   -0.862865
    117          1           0       13.279404    2.490846   -0.495581
    118          1           0       14.388957    1.879054    0.652774
    119          1           0       16.192038    1.610558   -0.928277
    120          1           0       15.171326    1.997971   -2.129049
    121          1           0       14.891328    4.210428   -0.788748
    122          1           0       16.057224    3.405779    0.462681
    123          1           0       17.986047    3.204735   -1.078209
    124          1           0       15.912838    4.972183   -3.023046
    125          1           0       17.912868    4.872201   -3.305874
    126          1           0       16.835987    3.418745   -3.394949
    127          1           0       17.858871    5.027766    0.326831
    128          1           0       18.513598    5.977717   -1.165017
    129          1           0       16.791154    6.206588   -0.657746
    130          1           0       -5.090475   -7.938071   -0.096965
    131          1           0       -6.368164   -6.911819    0.795115
    132          1           0       -4.750378   -7.055167    1.449392
    133          8           0       -7.930873    6.762317   -0.362986
    134          1           0       -9.279412    6.302088   -1.746396
 ---------------------------------------------------------------------

 SCF Done:  E(RCAM-B3LYP) =  -3043.35383762     A.U. after   16 cycles

 Excitation energies and oscillator strengths:

 Excited State   1:      Singlet-A      1.9649 eV  631.00 nm  f=0.1924  <S**2>=0.000
     243 -> 246        0.23935
     244 -> 245        0.65678
 This state for optimization and/or second-order correction.
 Total Energy, E(TD-HF/TD-KS) =  -3043.28162913
 Copying the excited state density for this state as the 1-particle RhoCI density.

 The electronic state is 1-A.
 Alpha  occ. eigenvalues --  -46.81802 -19.23319 -19.22203 -19.18284 -19.17791
 Alpha  occ. eigenvalues --  -19.17657 -19.17395 -19.16991 -14.38712 -14.38173
 Alpha  occ. eigenvalues --  -14.37763 -14.37489 -10.36111 -10.35467 -10.32975
 Alpha  occ. eigenvalues --  -10.31714 -10.30220 -10.28164 -10.27759 -10.27753
 Alpha  occ. eigenvalues --  -10.27548 -10.27519 -10.26967 -10.26878 -10.26797
 Alpha  occ. eigenvalues --  -10.26763 -10.26750 -10.26618 -10.26505 -10.26432
 Alpha  occ. eigenvalues --  -10.26105 -10.24903 -10.24869 -10.24410 -10.24082
 Alpha  occ. eigenvalues --  -10.23996 -10.23863 -10.23861 -10.23767 -10.23735
 Alpha  occ. eigenvalues --  -10.23552 -10.23532 -10.23140 -10.22929 -10.22928
 Alpha  occ. eigenvalues --  -10.22507 -10.22465 -10.22382 -10.22334 -10.22246
 Alpha  occ. eigenvalues --  -10.22110 -10.21969 -10.21949 -10.21940 -10.21926
 Alpha  occ. eigenvalues --  -10.21765 -10.21599 -10.21273 -10.21230 -10.21127
 Alpha  occ. eigenvalues --  -10.20877 -10.20849 -10.20220 -10.20030 -10.19421
 Alpha  occ. eigenvalues --  -10.19259  -3.10506  -1.85421  -1.84979  -1.84944
 Alpha  occ. eigenvalues --   -1.13468  -1.12656  -1.07199  -1.06012  -1.04816
 Alpha  occ. eigenvalues --   -1.03084  -1.00709  -1.00424  -0.99821  -0.99575
 Alpha  occ. eigenvalues --   -0.98613  -0.88393  -0.86836  -0.86470  -0.85897
 Alpha  occ. eigenvalues --   -0.85199  -0.84829  -0.84657  -0.83943  -0.83558
 Alpha  occ. eigenvalues --   -0.83118  -0.82163  -0.81856  -0.80273  -0.79839
 Alpha  occ. eigenvalues --   -0.79475  -0.78418  -0.77917  -0.77208  -0.76223
 Alpha  occ. eigenvalues --   -0.75261  -0.74811  -0.73990  -0.72974  -0.72408
 Alpha  occ. eigenvalues --   -0.71046  -0.69740  -0.69656  -0.69641  -0.69383
 Alpha  occ. eigenvalues --   -0.69176  -0.68726  -0.67653  -0.66655  -0.66457
 Alpha  occ. eigenvalues --   -0.66186  -0.64784  -0.64564  -0.63013  -0.62571
 Alpha  occ. eigenvalues --   -0.61972  -0.60723  -0.60557  -0.59247  -0.59013
 Alpha  occ. eigenvalues --   -0.58613  -0.58145  -0.57874  -0.56798  -0.56443
 Alpha  occ. eigenvalues --   -0.56301  -0.56068  -0.55803  -0.55215  -0.54892
 Alpha  occ. eigenvalues --   -0.53903  -0.53745  -0.53377  -0.52921  -0.52640
 Alpha  occ. eigenvalues --   -0.52331  -0.51753  -0.51711  -0.51290  -0.51078
 Alpha  occ. eigenvalues --   -0.50808  -0.50162  -0.49921  -0.49773  -0.49235
 Alpha  occ. eigenvalues --   -0.48947  -0.48417  -0.48058  -0.47975  -0.47789
 Alpha  occ. eigenvalues --   -0.47380  -0.46980  -0.46960  -0.46816  -0.46581
 Alpha  occ. eigenvalues --   -0.46457  -0.46122  -0.45917  -0.45768  -0.45671
 Alpha  occ. eigenvalues --   -0.45533  -0.45404  -0.45250  -0.45164  -0.44931
 Alpha  occ. eigenvalues --   -0.44641  -0.44448  -0.44286  -0.43746  -0.43640
 Alpha  occ. eigenvalues --   -0.43337  -0.43195  -0.43120  -0.42933  -0.42730
 Alpha  occ. eigenvalues --   -0.42569  -0.42319  -0.42034  -0.41912  -0.41732
 Alpha  occ. eigenvalues --   -0.41393  -0.41246  -0.40978  -0.40740  -0.40646
 Alpha  occ. eigenvalues --   -0.40503  -0.40330  -0.40065  -0.40028  -0.39879
 Alpha  occ. eigenvalues --   -0.39637  -0.39593  -0.39451  -0.39432  -0.39146
 Alpha  occ. eigenvalues --   -0.39056  -0.38794  -0.38746  -0.38566  -0.38298
 Alpha  occ. eigenvalues --   -0.38175  -0.37910  -0.37553  -0.37225  -0.37109
 Alpha  occ. eigenvalues --   -0.36893  -0.36530  -0.36142  -0.35890  -0.35389
 Alpha  occ. eigenvalues --   -0.34945  -0.34847  -0.34803  -0.34666  -0.34610
 Alpha  occ. eigenvalues --   -0.34378  -0.33993  -0.33792  -0.33651  -0.33384
 Alpha  occ. eigenvalues --   -0.33331  -0.33189  -0.33050  -0.32613  -0.31312
 Alpha  occ. eigenvalues --   -0.31126  -0.30909  -0.30754  -0.30453  -0.29625
 Alpha  occ. eigenvalues --   -0.28521  -0.28418  -0.28354  -0.28147  -0.28036
 Alpha  occ. eigenvalues --   -0.27774  -0.26689  -0.23326  -0.21198
 Alpha virt. eigenvalues --   -0.08457  -0.06781  -0.02663  -0.01636  -0.00100
 Alpha virt. eigenvalues --    0.01537   0.02537   0.03010   0.03471   0.04124
 Alpha virt. eigenvalues --    0.04599   0.05259   0.06770   0.07910   0.09146

 Mulliken charges:
               1
     1  Mg   0.843061
     2  C    0.090372
     3  C   -0.205609
     4  C   -0.160685
     5  C   -0.193646
     6  N   -0.645100
     7  C    0.293709
     8  C   -0.148530
     9  C   -0.135737
    10  C    0.378785
    11  C   -0.290752
    12  C   -0.182928
    13  C   -0.193507
    14  C    0.569682
    15  O   -0.437719
    16  O   -0.472219
    17  N   -0.689615
    18  C    0.236208
    19  C    0.167793
    20  C   -0.061951
    21  C    0.296176
    22  C   -0.416714
    23  C    0.243872
    24  O   -0.458058
    25  N   -0.618520
    26  C    0.269781
    27  C   -0.001759
    28  C    0.024420
    29  C    0.216164
    30  C    0.250134
    31  C   -0.259803
    32  C   -0.289546
    33  N   -0.700638
    34  C    0.255018
    35  C    0.047498
    36  C    0.057796
    37  C    0.302161
    38  C   -0.366905
    39  C    0.353754
    40  O   -0.467879
    41  C   -0.327369
    42  C    0.635942
    43  O   -0.499232
    44  O   -0.446399
    45  C   -0.085286
    46  C    0.000087
    47  C   -0.109595
    48  C    0.109948
    49  C   -0.331238
    50  C   -0.226989
    51  C   -0.168487
    52  C   -0.169253
    53  C   -0.071813
    54  C   -0.303933
    55  C   -0.154110
    56  C   -0.197395
    57  C   -0.164067
    58  C   -0.089640
    59  C   -0.292911
    60  C   -0.151263
    61  C   -0.174470
    62  C   -0.169528
    63  C   -0.051683
    64  C   -0.290369
    65  C   -0.277269
    66  H    0.070902
    67  H    0.123219
    68  H    0.085315
    69  H    0.128534
    70  H    0.083548
    71  H    0.118816
    72  H    0.058925
    73  H    0.145037
    74  H    0.087759
    75  H    0.125672
    76  H    0.123158
    77  H    0.117723
    78  H    0.111387
    79  H    0.151547
    80  H    0.139672
    81  H    0.118745
    82  H    0.107067
    83  H    0.119893
    84  H    0.100067
    85  H    0.094845
    86  H    0.116697
    87  H    0.113690
    88  H    0.152146
    89  H    0.127657
    90  H    0.171598
    91  H    0.099651
    92  H    0.104026
    93  H    0.071146
    94  H    0.147831
    95  H    0.101309
    96  H    0.073259
    97  H    0.102022
    98  H    0.079900
    99  H    0.110651
   100  H    0.111889
   101  H    0.089942
   102  H    0.102471
   103  H    0.085139
   104  H    0.109974
   105  H    0.098847
   106  H    0.068666
   107  H    0.054634
   108  H    0.091918
   109  H    0.095575
   110  H    0.073346
   111  H    0.098295
   112  H    0.097805
   113  H    0.072016
   114  H    0.060206
   115  H    0.095678
   116  H    0.117660
   117  H    0.100723
   118  H    0.097797
   119  H    0.078508
   120  H    0.099760
   121  H    0.080615
   122  H    0.086668
   123  H    0.060220
   124  H    0.080012
   125  H    0.101943
   126  H    0.095277
   127  H    0.109819
   128  H    0.045330
   129  H    0.113470
   130  H    0.130001
   131  H    0.135136
   132  H    0.131833
   133  O   -0.417476
   134  H    0.070647
 Sum of Mulliken charges =   0.00000

 Dipole moment (field-independent basis, Debye):
    X=              1.2283    Y=             -4.2695    Z=             -2.4477  Tot=              5.0723
 Quadrupole moment (field-independent basis, Debye-Ang):
   XX=           -384.6944   YY=           -441.4009   ZZ=           -399.8942
   XY=              7.0754   XZ=             31.7245   YZ=            -34.3857

 Normal termination of Gaussian 09 at Tue Oct  8 03:16:26 2019.
