 Gaussian 09, Revision D.01,
 Gaussian 09:  ES64L-G09RevD.01 24-Apr-2013

 ----------------------------------------------------------------------
 # td=(NStates=1) iop(3/107=0140000000,3/108=0140000000) iop(3/107=0140
 000000,3/108=0140000000) CAM-B3LYP/6-31G(d,p)
 ----------------------------------------------------------------------

 --
 TD
 --
 Symbolic Z-matrix:
 Charge =  0 Multiplicity = 1

                         Standard orientation:
 ---------------------------------------------------------------------
 Center     Atomic      Atomic             Coordinates (Angstroms)
 Number     Number       Type             X           Y           Z
 ---------------------------------------------------------------------
      1         12           0       -5.645733    1.250050    0.173343
      2          6           0       -5.012831   -2.105509   -0.347989
      3          6           0       -3.378188    1.181588    2.782862
      4          6           0       -6.121948    4.623661    0.588769
      5          6           0       -7.926807    1.206827   -2.402443
      6          7           0       -4.329150   -0.284142    0.958214
      7          6           0       -4.291483   -1.586511    0.680303
      8          6           0       -3.216324   -2.391831    1.501040
      9          6           0       -2.828128   -1.324150    2.599638
     10          6           0       -3.496098   -0.046372    2.143876
     11          6           0       -3.462138   -1.822270    3.967027
     12          6           0       -2.012310   -2.588033    0.726145
     13          6           0       -0.950966   -3.537646    1.362083
     14          6           0        0.244090   -3.792121    0.528283
     15          8           0        0.471065   -3.413889   -0.624490
     16          8           0        0.997939   -4.672526    1.190611
     17          7           0       -4.906460    2.761408    1.443702
     18          6           0       -4.004781    2.400915    2.433750
     19          6           0       -3.738058    3.661484    3.178835
     20          6           0       -4.469305    4.619938    2.566939
     21          6           0       -5.245315    4.080592    1.489714
     22          6           0       -2.886149    3.709579    4.313350
     23          6           0       -4.666325    6.099662    2.962649
     24          8           0       -4.039459    6.535584    3.957802
     25          7           0       -6.771766    2.678969   -0.796254
     26          6           0       -6.905501    3.984504   -0.370372
     27          6           0       -7.940248    4.635928   -1.202301
     28          6           0       -8.368060    3.660524   -2.079497
     29          6           0       -7.687795    2.383745   -1.744882
     30          6           0       -8.320695    6.031716   -1.189264
     31          6           0       -9.326235    3.862357   -3.188234
     32          6           0       -8.615778    3.906076   -4.643601
     33          7           0       -6.368920   -0.107203   -1.127081
     34          6           0       -7.277381   -0.000365   -2.095024
     35          6           0       -7.513885   -1.304269   -2.700306
     36          6           0       -6.626462   -2.186893   -2.099785
     37          6           0       -5.903196   -1.412267   -1.107973
     38          6           0       -8.635930   -1.684521   -3.667399
     39          6           0       -6.302952   -3.560653   -1.950252
     40          8           0       -6.566502   -4.426244   -2.670964
     41          6           0       -5.180710   -3.569028   -0.761618
     42          6           0       -5.382071   -4.666459    0.294764
     43          8           0       -6.022007   -4.534940    1.347742
     44          8           0       -5.036279   -5.879032   -0.197584
     45          6           0       -5.225474   -7.110765    0.600162
     46          6           0        2.205613   -5.101710    0.591093
     47          6           0        3.310293   -4.176963    0.931522
     48          6           0        4.069112   -3.348042    0.121125
     49          6           0        3.736904   -3.202783   -1.407479
     50          6           0        5.206277   -2.443900    0.676443
     51          6           0        6.453973   -2.647990    0.003220
     52          6           0        7.540765   -1.812951    0.655652
     53          6           0        8.939320   -1.994592   -0.097589
     54          6           0        9.471526   -3.402994    0.116909
     55          6           0        9.946895   -0.938917    0.461664
     56          6           0       11.319900   -0.814750   -0.229990
     57          6           0       12.143367    0.358646    0.223189
     58          6           0       13.481668    0.519200   -0.636140
     59          6           0       14.422676   -0.786763   -0.543144
     60          6           0       14.281894    1.838714   -0.198178
     61          6           0       15.446906    2.203777   -1.109097
     62          6           0       16.195860    3.383917   -0.531014
     63          6           0       17.401126    3.863083   -1.246647
     64          6           0       17.118101    3.953958   -2.791456
     65          6           0       18.016492    5.114483   -0.610852
     66          1           0       -2.721306    1.177124    3.686565
     67          1           0       -6.353505    5.653656    0.717808
     68          1           0       -8.515596    1.197562   -3.443646
     69          1           0       -3.804102   -3.145708    2.013446
     70          1           0       -1.664488   -1.193357    2.550111
     71          1           0       -3.025393   -2.698657    4.430818
     72          1           0       -3.568375   -1.134451    4.785269
     73          1           0       -4.529475   -2.037171    3.624810
     74          1           0       -2.193969   -3.206696   -0.090914
     75          1           0       -1.458491   -1.769494    0.080045
     76          1           0       -0.566364   -3.037964    2.218525
     77          1           0       -1.446907   -4.510457    1.693069
     78          1           0       -1.791275    3.320942    3.880510
     79          1           0       -2.837547    4.826442    4.641197
     80          1           0       -2.842166    2.946968    5.204087
     81          1           0       -5.063641    6.884953    2.222580
     82          1           0      -10.035569    2.929797   -3.117280
     83          1           0       -9.898011    4.787955   -3.013516
     84          1           0       -9.254117    4.141080   -5.362990
     85          1           0       -7.806341    4.730206   -4.730562
     86          1           0       -8.204066    2.837741   -4.944086
     87          1           0       -8.331525   -1.347671   -4.674885
     88          1           0       -8.827354   -2.753420   -3.760263
     89          1           0       -9.553748   -1.191593   -3.381772
     90          1           0       -4.215442   -3.903540   -1.292604
     91          1           0        2.276390   -6.195832    0.878993
     92          1           0        2.089987   -5.065634   -0.508672
     93          1           0        3.712584   -3.985871    1.888187
     94          1           0        2.761865   -3.127231   -1.351992
     95          1           0        4.169383   -2.078123   -1.712560
     96          1           0        4.229307   -4.041634   -1.933745
     97          1           0        4.801722   -1.372414    0.710058
     98          1           0        5.292010   -2.496654    1.849165
     99          1           0        6.746843   -3.684915   -0.179471
    100          1           0        6.496639   -2.418100   -1.060725
    101          1           0        7.441408   -0.745828    0.579703
    102          1           0        7.542200   -1.917358    1.715930
    103          1           0        8.745241   -1.694747   -1.094468
    104          1           0        8.650751   -4.124449   -0.048865
    105          1           0       10.504586   -3.678578   -0.277259
    106          1           0        9.836200   -3.505355    1.170116
    107          1           0        9.536286    0.099675    0.539244
    108          1           0       10.071182   -1.212778    1.573046
    109          1           0       11.758595   -1.858575   -0.124654
    110          1           0       11.265395   -0.782237   -1.361511
    111          1           0       11.539453    1.295160    0.090949
    112          1           0       12.398731    0.426333    1.200072
    113          1           0       13.184641    0.704627   -1.635245
    114          1           0       14.862665   -0.878610    0.441173
    115          1           0       13.926516   -1.739508   -0.637260
    116          1           0       15.330265   -0.657681   -1.311758
    117          1           0       13.526968    2.746176   -0.201664
    118          1           0       14.631033    1.780503    0.832497
    119          1           0       16.203177    1.329105   -0.972034
    120          1           0       15.167303    2.262896   -2.202628
    121          1           0       15.432836    4.233836   -0.480115
    122          1           0       16.393457    3.347973    0.539259
    123          1           0       18.108103    3.040608   -1.082364
    124          1           0       16.407624    4.782068   -3.041671
    125          1           0       17.950204    4.240497   -3.547776
    126          1           0       16.486257    3.162912   -3.274446
    127          1           0       18.520356    4.720339    0.401639
    128          1           0       18.819352    5.561227   -1.254334
    129          1           0       17.373885    5.862002   -0.527296
    130          1           0       -4.893072   -7.985521   -0.025929
    131          1           0       -6.258526   -7.022841    0.873408
    132          1           0       -4.500628   -7.217431    1.520442
    133          8           0       -7.893211    6.928694   -0.479032
    134          1           0       -9.139277    6.205566   -1.805492
 ---------------------------------------------------------------------

 SCF Done:  E(RCAM-B3LYP) =  -3043.58373122     A.U. after   15 cycles

 Excitation energies and oscillator strengths:

 Excited State   1:      Singlet-A      2.0004 eV  619.81 nm  f=0.2326  <S**2>=0.000
     243 -> 246       -0.23051
     244 -> 245        0.66356
 This state for optimization and/or second-order correction.
 Total Energy, E(TD-HF/TD-KS) =  -3043.51021892
 Copying the excited state density for this state as the 1-particle RhoCI density.

 The electronic state is 1-A.
 Alpha  occ. eigenvalues --  -46.81613 -19.22717 -19.22698 -19.17683 -19.17675
 Alpha  occ. eigenvalues --  -19.17063 -19.17038 -19.16900 -14.39359 -14.36923
 Alpha  occ. eigenvalues --  -14.36531 -14.36405 -10.35633 -10.35444 -10.31289
 Alpha  occ. eigenvalues --  -10.31142 -10.29547 -10.29114 -10.28191 -10.28053
 Alpha  occ. eigenvalues --  -10.27245 -10.26738 -10.26350 -10.26118 -10.26091
 Alpha  occ. eigenvalues --  -10.25569 -10.25501 -10.25476 -10.25404 -10.25236
 Alpha  occ. eigenvalues --  -10.24853 -10.24757 -10.24433 -10.24303 -10.24028
 Alpha  occ. eigenvalues --  -10.23956 -10.23754 -10.23741 -10.23368 -10.23221
 Alpha  occ. eigenvalues --  -10.23130 -10.22962 -10.22952 -10.22866 -10.22822
 Alpha  occ. eigenvalues --  -10.22807 -10.22620 -10.22558 -10.22112 -10.21815
 Alpha  occ. eigenvalues --  -10.21719 -10.21693 -10.21454 -10.21408 -10.21361
 Alpha  occ. eigenvalues --  -10.21258 -10.21150 -10.20938 -10.20928 -10.20928
 Alpha  occ. eigenvalues --  -10.20900 -10.20867 -10.20438 -10.20403 -10.20297
 Alpha  occ. eigenvalues --  -10.20252  -3.10069  -1.85022  -1.84539  -1.84462
 Alpha  occ. eigenvalues --   -1.14538  -1.12305  -1.10886  -1.06488  -1.04779
 Alpha  occ. eigenvalues --   -1.04685  -1.03297  -1.00630  -0.99458  -0.99007
 Alpha  occ. eigenvalues --   -0.98258  -0.88793  -0.86952  -0.86150  -0.85340
 Alpha  occ. eigenvalues --   -0.84914  -0.84453  -0.84140  -0.83880  -0.83067
 Alpha  occ. eigenvalues --   -0.82807  -0.82520  -0.81812  -0.80501  -0.79676
 Alpha  occ. eigenvalues --   -0.78732  -0.78224  -0.77544  -0.77308  -0.76517
 Alpha  occ. eigenvalues --   -0.74889  -0.74698  -0.73977  -0.72982  -0.71896
 Alpha  occ. eigenvalues --   -0.71194  -0.70898  -0.70303  -0.70062  -0.69818
 Alpha  occ. eigenvalues --   -0.69413  -0.69119  -0.68123  -0.67047  -0.66671
 Alpha  occ. eigenvalues --   -0.65235  -0.64913  -0.64311  -0.63149  -0.62608
 Alpha  occ. eigenvalues --   -0.62027  -0.61282  -0.60973  -0.59901  -0.59422
 Alpha  occ. eigenvalues --   -0.58842  -0.58591  -0.58408  -0.57585  -0.57007
 Alpha  occ. eigenvalues --   -0.55953  -0.55740  -0.55359  -0.55116  -0.54693
 Alpha  occ. eigenvalues --   -0.53765  -0.53304  -0.52705  -0.52345  -0.52193
 Alpha  occ. eigenvalues --   -0.52049  -0.51664  -0.51470  -0.50591  -0.50205
 Alpha  occ. eigenvalues --   -0.49989  -0.49829  -0.49713  -0.49558  -0.49104
 Alpha  occ. eigenvalues --   -0.48744  -0.48387  -0.48151  -0.47977  -0.47555
 Alpha  occ. eigenvalues --   -0.47356  -0.47351  -0.46989  -0.46910  -0.46865
 Alpha  occ. eigenvalues --   -0.46661  -0.46235  -0.46015  -0.45903  -0.45851
 Alpha  occ. eigenvalues --   -0.45758  -0.45620  -0.45446  -0.45017  -0.44738
 Alpha  occ. eigenvalues --   -0.44513  -0.44378  -0.44281  -0.44023  -0.43843
 Alpha  occ. eigenvalues --   -0.43556  -0.43422  -0.43346  -0.43205  -0.42943
 Alpha  occ. eigenvalues --   -0.42614  -0.42469  -0.42220  -0.42027  -0.41784
 Alpha  occ. eigenvalues --   -0.41581  -0.41431  -0.41314  -0.41197  -0.40923
 Alpha  occ. eigenvalues --   -0.40848  -0.40779  -0.40632  -0.40283  -0.40060
 Alpha  occ. eigenvalues --   -0.39831  -0.39719  -0.39644  -0.39432  -0.39204
 Alpha  occ. eigenvalues --   -0.38932  -0.38643  -0.38621  -0.38406  -0.38274
 Alpha  occ. eigenvalues --   -0.38047  -0.37964  -0.37885  -0.37672  -0.37130
 Alpha  occ. eigenvalues --   -0.37040  -0.36726  -0.36566  -0.35600  -0.35286
 Alpha  occ. eigenvalues --   -0.35198  -0.34872  -0.34747  -0.34515  -0.34414
 Alpha  occ. eigenvalues --   -0.34185  -0.33765  -0.33583  -0.33244  -0.33165
 Alpha  occ. eigenvalues --   -0.33030  -0.32652  -0.32364  -0.31710  -0.31694
 Alpha  occ. eigenvalues --   -0.31360  -0.31108  -0.30861  -0.30809  -0.29758
 Alpha  occ. eigenvalues --   -0.28569  -0.28318  -0.28105  -0.27904  -0.27271
 Alpha  occ. eigenvalues --   -0.27092  -0.27002  -0.23278  -0.21155
 Alpha virt. eigenvalues --   -0.08410  -0.06073  -0.01913  -0.00882   0.00450
 Alpha virt. eigenvalues --    0.02071   0.02783   0.03437   0.03638   0.04273
 Alpha virt. eigenvalues --    0.04775   0.05769   0.07464   0.09097   0.09437

 Mulliken charges:
               1
     1  Mg   0.823156
     2  C    0.116317
     3  C   -0.182947
     4  C   -0.167643
     5  C   -0.180319
     6  N   -0.621218
     7  C    0.287651
     8  C   -0.139999
     9  C   -0.158415
    10  C    0.324380
    11  C   -0.324999
    12  C   -0.197480
    13  C   -0.263382
    14  C    0.602380
    15  O   -0.483385
    16  O   -0.438666
    17  N   -0.738500
    18  C    0.329969
    19  C    0.101316
    20  C   -0.065069
    21  C    0.351470
    22  C   -0.424711
    23  C    0.233402
    24  O   -0.418253
    25  N   -0.707139
    26  C    0.287530
    27  C   -0.011232
    28  C    0.026027
    29  C    0.343286
    30  C    0.261540
    31  C   -0.265240
    32  C   -0.309102
    33  N   -0.745606
    34  C    0.312781
    35  C   -0.009601
    36  C    0.031426
    37  C    0.254732
    38  C   -0.379374
    39  C    0.363391
    40  O   -0.395465
    41  C   -0.330675
    42  C    0.586636
    43  O   -0.489009
    44  O   -0.451583
    45  C   -0.081702
    46  C   -0.017746
    47  C   -0.098956
    48  C    0.062730
    49  C   -0.353084
    50  C   -0.222832
    51  C   -0.161750
    52  C   -0.184761
    53  C   -0.054634
    54  C   -0.311360
    55  C   -0.187394
    56  C   -0.167677
    57  C   -0.172705
    58  C   -0.057547
    59  C   -0.322237
    60  C   -0.178908
    61  C   -0.163465
    62  C   -0.160443
    63  C   -0.038223
    64  C   -0.331339
    65  C   -0.305335
    66  H    0.093081
    67  H    0.117877
    68  H    0.099649
    69  H    0.139808
    70  H    0.104399
    71  H    0.119386
    72  H    0.115281
    73  H    0.120225
    74  H    0.123204
    75  H    0.133261
    76  H    0.138794
    77  H    0.138000
    78  H    0.091386
    79  H    0.159645
    80  H    0.126360
    81  H    0.105981
    82  H    0.104274
    83  H    0.112571
    84  H    0.131471
    85  H    0.111235
    86  H    0.097141
    87  H    0.128547
    88  H    0.146773
    89  H    0.127036
    90  H    0.148121
    91  H    0.115343
    92  H    0.128799
    93  H    0.070522
    94  H    0.163830
    95  H    0.079099
    96  H    0.122586
    97  H    0.105241
    98  H    0.081281
    99  H    0.102476
   100  H    0.102590
   101  H    0.095896
   102  H    0.092493
   103  H    0.092832
   104  H    0.100092
   105  H    0.095240
   106  H    0.099220
   107  H    0.075674
   108  H    0.077660
   109  H    0.082730
   110  H    0.084300
   111  H    0.083914
   112  H    0.101139
   113  H    0.090594
   114  H    0.104728
   115  H    0.106855
   116  H    0.088318
   117  H    0.068297
   118  H    0.091968
   119  H    0.080849
   120  H    0.094880
   121  H    0.067475
   122  H    0.089317
   123  H    0.088954
   124  H    0.091769
   125  H    0.089454
   126  H    0.100909
   127  H    0.085189
   128  H    0.097233
   129  H    0.118785
   130  H    0.136716
   131  H    0.153208
   132  H    0.112860
   133  O   -0.433427
   134  H    0.059598
 Sum of Mulliken charges =   0.00000

 Dipole moment (field-independent basis, Debye):
    X=              1.6098    Y=             -5.4107    Z=             -0.9363  Tot=              5.7222
 Quadrupole moment (field-independent basis, Debye-Ang):
   XX=           -384.3081   YY=           -429.2252   ZZ=           -395.3065
   XY=             12.1833   XZ=             29.3974   YZ=            -36.5640

 Normal termination of Gaussian 09 at Fri Oct  4 02:42:33 2019.
