 Gaussian 09, Revision D.01,
 Gaussian 09:  ES64L-G09RevD.01 24-Apr-2013

 ----------------------------------------------------------------------
 # td=(NStates=1) iop(3/107=0140000000,3/108=0140000000) iop(3/107=0140
 000000,3/108=0140000000) CAM-B3LYP/6-31G(d,p)
 ----------------------------------------------------------------------

 --
 TD
 --
 Symbolic Z-matrix:
 Charge =  0 Multiplicity = 1

                         Standard orientation:
 ---------------------------------------------------------------------
 Center     Atomic      Atomic             Coordinates (Angstroms)
 Number     Number       Type             X           Y           Z
 ---------------------------------------------------------------------
      1         12           0       -5.607529    1.249851    0.190030
      2          6           0       -5.115043   -2.142610   -0.323405
      3          6           0       -3.349128    1.114376    2.761383
      4          6           0       -6.115852    4.599093    0.657644
      5          6           0       -8.025544    1.283616   -2.332276
      6          7           0       -4.293626   -0.312876    1.019054
      7          6           0       -4.250181   -1.604088    0.704757
      8          6           0       -3.199426   -2.359608    1.449867
      9          6           0       -2.887327   -1.431573    2.691442
     10          6           0       -3.537875   -0.044534    2.132162
     11          6           0       -3.525926   -1.983820    4.042823
     12          6           0       -1.974035   -2.642386    0.584226
     13          6           0       -1.045249   -3.593920    1.321188
     14          6           0        0.273666   -3.887956    0.581098
     15          8           0        0.440585   -3.556504   -0.539794
     16          8           0        1.028147   -4.786383    1.270227
     17          7           0       -4.848500    2.621300    1.413329
     18          6           0       -3.898392    2.374754    2.446542
     19          6           0       -3.615057    3.524994    3.210201
     20          6           0       -4.370975    4.612229    2.682332
     21          6           0       -5.122978    3.969968    1.526061
     22          6           0       -2.652134    3.677204    4.319966
     23          6           0       -4.480747    5.889118    3.021014
     24          8           0       -3.943823    6.447654    4.035542
     25          7           0       -6.806580    2.707009   -0.627194
     26          6           0       -6.864944    3.981445   -0.336287
     27          6           0       -7.827021    4.721721   -1.242846
     28          6           0       -8.316166    3.745368   -1.985312
     29          6           0       -7.700932    2.390103   -1.754716
     30          6           0       -8.046802    6.235900   -1.227519
     31          6           0       -9.299447    4.003710   -3.129961
     32          6           0       -8.546672    4.354767   -4.397127
     33          7           0       -6.340844   -0.138760   -1.073204
     34          6           0       -7.448344   -0.004189   -2.027559
     35          6           0       -7.635905   -1.272602   -2.650185
     36          6           0       -6.709352   -2.195090   -2.117659
     37          6           0       -5.915726   -1.413902   -1.122673
     38          6           0       -8.553023   -1.540242   -3.834219
     39          6           0       -6.290515   -3.552126   -2.129927
     40          8           0       -6.562372   -4.550742   -2.727262
     41          6           0       -5.132875   -3.582680   -0.934920
     42          6           0       -5.303371   -4.645264    0.125985
     43          8           0       -5.745036   -4.480578    1.207377
     44          8           0       -5.085549   -5.875096   -0.438373
     45          6           0       -5.253275   -6.995919    0.440681
     46          6           0        2.281935   -5.025715    0.537865
     47          6           0        3.346437   -4.130881    0.957302
     48          6           0        4.036896   -3.233823    0.046386
     49          6           0        3.612964   -3.232588   -1.374760
     50          6           0        5.035591   -2.363204    0.594062
     51          6           0        6.410778   -2.592610    0.023786
     52          6           0        7.550141   -1.766071    0.661173
     53          6           0        8.879939   -1.970110   -0.021139
     54          6           0        9.311105   -3.433938    0.324315
     55          6           0        9.976034   -0.958456    0.451416
     56          6           0       11.297496   -0.896011   -0.251597
     57          6           0       12.186319    0.230114    0.109406
     58          6           0       13.551067    0.399781   -0.612773
     59          6           0       14.407942   -0.888389   -0.469754
     60          6           0       14.147523    1.658294   -0.124612
     61          6           0       15.408648    2.109436   -0.870159
     62          6           0       15.828243    3.550143   -0.587982
     63          6           0       17.142432    3.980094   -1.316811
     64          6           0       17.056903    4.083728   -2.795663
     65          6           0       17.697210    5.293780   -0.832922
     66          1           0       -2.617985    1.179790    3.406055
     67          1           0       -6.246444    5.742603    0.774455
     68          1           0       -8.945786    1.189533   -2.965727
     69          1           0       -3.292699   -3.492738    1.803052
     70          1           0       -1.825669   -1.446348    2.840331
     71          1           0       -3.117388   -2.951344    4.335833
     72          1           0       -3.478842   -1.185796    4.684581
     73          1           0       -4.607346   -2.214374    3.886776
     74          1           0       -2.192589   -3.096694   -0.338236
     75          1           0       -1.253608   -1.735272    0.556643
     76          1           0       -0.847617   -3.326752    2.448554
     77          1           0       -1.348028   -4.669776    1.521295
     78          1           0       -1.647748    3.286497    3.989483
     79          1           0       -2.713831    4.607005    4.667397
     80          1           0       -3.019475    3.143076    5.124728
     81          1           0       -5.001490    6.663639    2.414796
     82          1           0       -9.761779    3.059246   -3.378686
     83          1           0      -10.006287    4.732304   -2.682397
     84          1           0       -9.292072    4.308789   -5.179437
     85          1           0       -7.993845    5.255069   -4.330970
     86          1           0       -7.971134    3.519212   -4.786732
     87          1           0       -8.497813   -0.858591   -4.609232
     88          1           0       -8.329541   -2.638275   -4.115465
     89          1           0       -9.653368   -1.395967   -3.483295
     90          1           0       -4.178746   -3.793036   -1.437415
     91          1           0        2.552245   -6.002234    0.822334
     92          1           0        2.211693   -4.990210   -0.632935
     93          1           0        3.678028   -3.997478    2.028353
     94          1           0        2.524045   -3.521049   -1.534839
     95          1           0        3.611466   -2.084469   -1.739028
     96          1           0        4.420053   -3.596275   -2.056445
     97          1           0        4.772444   -1.360174    0.652009
     98          1           0        5.213291   -2.576111    1.584833
     99          1           0        6.643436   -3.623088    0.038151
    100          1           0        6.453901   -2.356494   -1.115008
    101          1           0        7.251721   -0.593750    0.636248
    102          1           0        7.685562   -1.936131    1.716812
    103          1           0        8.793239   -1.999908   -1.208343
    104          1           0        8.590122   -4.155465    0.185594
    105          1           0       10.279402   -3.562960   -0.153750
    106          1           0        9.475204   -3.764839    1.205581
    107          1           0        9.650493    0.086522    0.419669
    108          1           0       10.260253   -1.418171    1.437179
    109          1           0       12.136254   -1.898179   -0.215673
    110          1           0       10.928070   -0.828662   -1.403304
    111          1           0       11.592749    1.097349   -0.056300
    112          1           0       12.314619   -0.177012    1.170417
    113          1           0       13.268536    0.687048   -1.569143
    114          1           0       14.753614   -1.041490    0.665193
    115          1           0       13.800326   -1.657572   -1.016279
    116          1           0       15.280975   -0.802108   -1.298085
    117          1           0       13.350581    2.501172   -0.434491
    118          1           0       14.223382    1.605462    1.069711
    119          1           0       16.332389    1.483602   -0.849924
    120          1           0       15.145498    2.291086   -2.067116
    121          1           0       14.970851    4.207908   -1.162816
    122          1           0       15.924577    3.789951    0.414135
    123          1           0       17.933342    3.390258   -1.254800
    124          1           0       16.361552    4.735386   -3.042256
    125          1           0       18.072686    4.311223   -3.234916
    126          1           0       16.631530    3.193596   -3.404155
    127          1           0       17.874382    5.219560    0.319136
    128          1           0       18.637045    5.756595   -1.226947
    129          1           0       16.962714    6.107267   -0.907627
    130          1           0       -4.733659   -7.924228    0.043551
    131          1           0       -6.360985   -7.242822    0.495373
    132          1           0       -4.656289   -7.012994    1.324666
    133          8           0       -7.541283    6.996079   -0.432537
    134          1           0       -8.952537    6.691170   -1.798778
 ---------------------------------------------------------------------

 SCF Done:  E(RCAM-B3LYP) =  -3043.45114021     A.U. after   16 cycles

 Excitation energies and oscillator strengths:

 Excited State   1:      Singlet-A      1.8899 eV  656.03 nm  f=0.3217  <S**2>=0.000
     243 -> 246       -0.19669
     244 -> 245        0.67314
 This state for optimization and/or second-order correction.
 Total Energy, E(TD-HF/TD-KS) =  -3043.38168698
 Copying the excited state density for this state as the 1-particle RhoCI density.

 The electronic state is 1-A.
 Alpha  occ. eigenvalues --  -46.81557 -19.22489 -19.21767 -19.19058 -19.17761
 Alpha  occ. eigenvalues --  -19.17464 -19.17008 -19.14616 -14.39851 -14.37727
 Alpha  occ. eigenvalues --  -14.37587 -14.37082 -10.34911 -10.34312 -10.32929
 Alpha  occ. eigenvalues --  -10.31686 -10.28360 -10.27906 -10.27823 -10.27681
 Alpha  occ. eigenvalues --  -10.27256 -10.27245 -10.27132 -10.27034 -10.27006
 Alpha  occ. eigenvalues --  -10.26593 -10.25748 -10.25702 -10.25083 -10.24968
 Alpha  occ. eigenvalues --  -10.24844 -10.24800 -10.24651 -10.24591 -10.24409
 Alpha  occ. eigenvalues --  -10.24279 -10.23924 -10.23915 -10.23660 -10.23626
 Alpha  occ. eigenvalues --  -10.23569 -10.23472 -10.23014 -10.22982 -10.22895
 Alpha  occ. eigenvalues --  -10.22887 -10.22648 -10.22507 -10.22277 -10.22270
 Alpha  occ. eigenvalues --  -10.22178 -10.21941 -10.21900 -10.21794 -10.21734
 Alpha  occ. eigenvalues --  -10.21539 -10.21505 -10.21501 -10.20944 -10.20523
 Alpha  occ. eigenvalues --  -10.20457 -10.20321 -10.20030 -10.20029 -10.19111
 Alpha  occ. eigenvalues --  -10.17836  -3.10193  -1.85125  -1.84672  -1.84602
 Alpha  occ. eigenvalues --   -1.14091  -1.13313  -1.08931  -1.08239  -1.06103
 Alpha  occ. eigenvalues --   -1.05407  -1.02134  -1.00963  -0.99652  -0.98353
 Alpha  occ. eigenvalues --   -0.97846  -0.87996  -0.86876  -0.86365  -0.86183
 Alpha  occ. eigenvalues --   -0.86019  -0.85217  -0.84893  -0.84403  -0.84057
 Alpha  occ. eigenvalues --   -0.83976  -0.83271  -0.81345  -0.80520  -0.79769
 Alpha  occ. eigenvalues --   -0.79396  -0.78879  -0.77937  -0.77223  -0.76887
 Alpha  occ. eigenvalues --   -0.76306  -0.75753  -0.74176  -0.72827  -0.72423
 Alpha  occ. eigenvalues --   -0.72212  -0.71012  -0.70765  -0.70279  -0.70184
 Alpha  occ. eigenvalues --   -0.69643  -0.68668  -0.67721  -0.66946  -0.66436
 Alpha  occ. eigenvalues --   -0.66173  -0.64685  -0.64337  -0.62924  -0.62677
 Alpha  occ. eigenvalues --   -0.61701  -0.60583  -0.60213  -0.59499  -0.58746
 Alpha  occ. eigenvalues --   -0.58406  -0.57652  -0.57525  -0.57319  -0.56948
 Alpha  occ. eigenvalues --   -0.56677  -0.56116  -0.55537  -0.55340  -0.54574
 Alpha  occ. eigenvalues --   -0.53920  -0.53373  -0.52844  -0.52603  -0.52533
 Alpha  occ. eigenvalues --   -0.52240  -0.52105  -0.51596  -0.51021  -0.50723
 Alpha  occ. eigenvalues --   -0.50664  -0.50351  -0.50084  -0.49757  -0.49599
 Alpha  occ. eigenvalues --   -0.49389  -0.48882  -0.48732  -0.48362  -0.48265
 Alpha  occ. eigenvalues --   -0.48170  -0.48011  -0.47594  -0.47487  -0.47422
 Alpha  occ. eigenvalues --   -0.47163  -0.46981  -0.46721  -0.46395  -0.46191
 Alpha  occ. eigenvalues --   -0.46071  -0.45829  -0.45566  -0.45329  -0.45102
 Alpha  occ. eigenvalues --   -0.44941  -0.44723  -0.44395  -0.44143  -0.43916
 Alpha  occ. eigenvalues --   -0.43636  -0.43565  -0.43345  -0.43190  -0.43006
 Alpha  occ. eigenvalues --   -0.42863  -0.42763  -0.42450  -0.42322  -0.42202
 Alpha  occ. eigenvalues --   -0.42046  -0.41926  -0.41622  -0.41319  -0.40958
 Alpha  occ. eigenvalues --   -0.40857  -0.40698  -0.40641  -0.40512  -0.40197
 Alpha  occ. eigenvalues --   -0.40007  -0.39711  -0.39558  -0.39360  -0.39050
 Alpha  occ. eigenvalues --   -0.38862  -0.38830  -0.38448  -0.38343  -0.38244
 Alpha  occ. eigenvalues --   -0.37903  -0.37582  -0.36965  -0.36827  -0.36775
 Alpha  occ. eigenvalues --   -0.36346  -0.36321  -0.36243  -0.36141  -0.35558
 Alpha  occ. eigenvalues --   -0.35462  -0.35396  -0.35061  -0.34855  -0.34511
 Alpha  occ. eigenvalues --   -0.34293  -0.33879  -0.33619  -0.33429  -0.33153
 Alpha  occ. eigenvalues --   -0.33067  -0.32743  -0.32346  -0.32265  -0.31811
 Alpha  occ. eigenvalues --   -0.31568  -0.31005  -0.30983  -0.30974  -0.30398
 Alpha  occ. eigenvalues --   -0.29606  -0.29106  -0.28180  -0.27785  -0.27681
 Alpha  occ. eigenvalues --   -0.26048  -0.25642  -0.23685  -0.21597
 Alpha virt. eigenvalues --   -0.09906  -0.06099  -0.02367  -0.01468   0.00489
 Alpha virt. eigenvalues --    0.02134   0.03344   0.03685   0.03921   0.04298
 Alpha virt. eigenvalues --    0.04410   0.06118   0.08045   0.08622   0.08650

 Mulliken charges:
               1
     1  Mg   0.828836
     2  C    0.090908
     3  C   -0.135134
     4  C   -0.200350
     5  C   -0.186321
     6  N   -0.616341
     7  C    0.340224
     8  C   -0.152167
     9  C   -0.146072
    10  C    0.307280
    11  C   -0.312954
    12  C   -0.151580
    13  C   -0.302221
    14  C    0.615366
    15  O   -0.442379
    16  O   -0.471415
    17  N   -0.706790
    18  C    0.283439
    19  C    0.036959
    20  C    0.094777
    21  C    0.282657
    22  C   -0.363952
    23  C    0.127653
    24  O   -0.467912
    25  N   -0.718845
    26  C    0.341837
    27  C    0.017683
    28  C   -0.046566
    29  C    0.350515
    30  C    0.248759
    31  C   -0.230278
    32  C   -0.312074
    33  N   -0.731292
    34  C    0.242644
    35  C    0.017413
    36  C    0.045829
    37  C    0.274145
    38  C   -0.377575
    39  C    0.347496
    40  O   -0.434781
    41  C   -0.344353
    42  C    0.617069
    43  O   -0.443627
    44  O   -0.452284
    45  C   -0.087716
    46  C   -0.017399
    47  C   -0.136023
    48  C    0.152980
    49  C   -0.398005
    50  C   -0.223223
    51  C   -0.185467
    52  C   -0.156387
    53  C   -0.051716
    54  C   -0.330548
    55  C   -0.152677
    56  C   -0.172896
    57  C   -0.145743
    58  C   -0.036401
    59  C   -0.310819
    60  C   -0.144478
    61  C   -0.167695
    62  C   -0.159501
    63  C   -0.042415
    64  C   -0.308121
    65  C   -0.319957
    66  H    0.071737
    67  H    0.140997
    68  H    0.108181
    69  H    0.111182
    70  H    0.103002
    71  H    0.116226
    72  H    0.118593
    73  H    0.125730
    74  H    0.129587
    75  H    0.109752
    76  H    0.116164
    77  H    0.131024
    78  H    0.118924
    79  H    0.158952
    80  H    0.133151
    81  H    0.084520
    82  H    0.098686
    83  H    0.112548
    84  H    0.112124
    85  H    0.122991
    86  H    0.117410
    87  H    0.138432
    88  H    0.143742
    89  H    0.113596
    90  H    0.147669
    91  H    0.116073
    92  H    0.126067
    93  H    0.077691
    94  H    0.158452
    95  H    0.087670
    96  H    0.123422
    97  H    0.113874
    98  H    0.105099
    99  H    0.107013
   100  H    0.080158
   101  H    0.056368
   102  H    0.096455
   103  H    0.068612
   104  H    0.098119
   105  H    0.104878
   106  H    0.108574
   107  H    0.092901
   108  H    0.091847
   109  H    0.043978
   110  H    0.044421
   111  H    0.085872
   112  H    0.079752
   113  H    0.093910
   114  H    0.101649
   115  H    0.119526
   116  H    0.087962
   117  H    0.070200
   118  H    0.070415
   119  H    0.097902
   120  H    0.064981
   121  H    0.063020
   122  H    0.099092
   123  H    0.102390
   124  H    0.110771
   125  H    0.092117
   126  H    0.075928
   127  H    0.076667
   128  H    0.100778
   129  H    0.099154
   130  H    0.108280
   131  H    0.128811
   132  H    0.125255
   133  O   -0.383275
   134  H    0.072225
 Sum of Mulliken charges =   0.00000

 Dipole moment (field-independent basis, Debye):
    X=              1.3205    Y=             -3.6945    Z=             -1.9234  Tot=              4.3695
 Quadrupole moment (field-independent basis, Debye-Ang):
   XX=           -362.6008   YY=           -444.5420   ZZ=           -399.2275
   XY=             -5.8224   XZ=             31.3625   YZ=            -45.7000

 Normal termination of Gaussian 09 at Sat Oct  5 08:15:21 2019.
