 Gaussian 09, Revision D.01,
 Gaussian 09:  ES64L-G09RevD.01 24-Apr-2013

 ----------------------------------------------------------------------
 # td=(NStates=1) iop(3/107=0140000000,3/108=0140000000) iop(3/107=0140
 000000,3/108=0140000000) CAM-B3LYP/6-31G(d,p)
 ----------------------------------------------------------------------

 --
 TD
 --
 Symbolic Z-matrix:
 Charge =  0 Multiplicity = 1

                         Standard orientation:
 ---------------------------------------------------------------------
 Center     Atomic      Atomic             Coordinates (Angstroms)
 Number     Number       Type             X           Y           Z
 ---------------------------------------------------------------------
      1         12           0       -5.629873    1.202759    0.147145
      2          6           0       -5.076682   -2.071778   -0.372625
      3          6           0       -3.415889    1.059989    2.802988
      4          6           0       -6.187955    4.460533    0.712980
      5          6           0       -8.019737    1.192065   -2.297183
      6          7           0       -4.361681   -0.315096    1.084391
      7          6           0       -4.301529   -1.593154    0.694268
      8          6           0       -3.248097   -2.372258    1.509773
      9          6           0       -2.982206   -1.333183    2.562926
     10          6           0       -3.546698   -0.102957    2.188133
     11          6           0       -3.373166   -1.836924    4.047349
     12          6           0       -2.080011   -2.705193    0.624097
     13          6           0       -1.074301   -3.483634    1.410336
     14          6           0        0.176059   -3.853110    0.586176
     15          8           0        0.483113   -3.360587   -0.476038
     16          8           0        1.096159   -4.751351    1.303896
     17          7           0       -4.833157    2.631306    1.469701
     18          6           0       -3.944784    2.435447    2.451444
     19          6           0       -3.665005    3.673194    3.152979
     20          6           0       -4.498875    4.655883    2.613207
     21          6           0       -5.176911    3.985672    1.534753
     22          6           0       -2.814962    3.675259    4.263996
     23          6           0       -4.560043    6.023647    2.998909
     24          8           0       -3.962092    6.530288    3.915316
     25          7           0       -6.857978    2.561428   -0.687525
     26          6           0       -6.922437    3.860481   -0.331824
     27          6           0       -7.840628    4.531600   -1.219183
     28          6           0       -8.397586    3.750715   -2.122592
     29          6           0       -7.813792    2.374290   -1.692308
     30          6           0       -8.235250    5.994923   -1.253844
     31          6           0       -9.461553    3.868296   -3.217340
     32          6           0       -8.886266    4.077036   -4.618039
     33          7           0       -6.363211   -0.129366   -1.139405
     34          6           0       -7.402452    0.026997   -2.057462
     35          6           0       -7.641057   -1.315416   -2.723491
     36          6           0       -6.656371   -2.185995   -2.137539
     37          6           0       -5.954372   -1.388005   -1.227467
     38          6           0       -8.646840   -1.569866   -3.789860
     39          6           0       -6.195020   -3.545150   -1.964766
     40          8           0       -6.570210   -4.550915   -2.561565
     41          6           0       -5.130233   -3.529127   -0.812660
     42          6           0       -5.408799   -4.639918    0.219990
     43          8           0       -5.804962   -4.470046    1.406713
     44          8           0       -5.166277   -5.844705   -0.287986
     45          6           0       -5.409856   -6.999253    0.576695
     46          6           0        2.382141   -4.995627    0.651747
     47          6           0        3.379099   -3.906871    1.024158
     48          6           0        4.054899   -3.181586    0.097794
     49          6           0        3.673303   -3.072955   -1.349097
     50          6           0        5.064399   -2.263082    0.592991
     51          6           0        6.455911   -2.466290   -0.127925
     52          6           0        7.553457   -1.629374    0.507124
     53          6           0        9.023282   -1.922941   -0.186674
     54          6           0        9.518130   -3.256412    0.135517
     55          6           0        9.993644   -0.800584    0.375458
     56          6           0       11.402902   -0.942084   -0.224891
     57          6           0       12.349317    0.240613    0.282647
     58          6           0       13.531151    0.425894   -0.656225
     59          6           0       14.596086   -0.816512   -0.517272
     60          6           0       14.284244    1.743385   -0.229183
     61          6           0       15.471100    2.001894   -1.021540
     62          6           0       16.078511    3.460090   -0.639602
     63          6           0       17.444774    3.733135   -1.225813
     64          6           0       17.429957    3.878224   -2.706619
     65          6           0       17.970933    5.074525   -0.621385
     66          1           0       -2.733261    1.257169    3.720463
     67          1           0       -6.232595    5.634365    0.514940
     68          1           0       -8.768075    1.314754   -3.201813
     69          1           0       -3.706224   -3.339734    1.817659
     70          1           0       -1.836667   -1.179702    2.683963
     71          1           0       -2.978006   -2.810700    4.322429
     72          1           0       -3.107200   -1.131003    4.831177
     73          1           0       -4.505015   -1.962839    4.056333
     74          1           0       -2.474607   -3.343027   -0.220280
     75          1           0       -1.819217   -1.703251    0.190040
     76          1           0       -0.791895   -3.232531    2.392252
     77          1           0       -1.579024   -4.235223    1.527942
     78          1           0       -1.714080    3.409285    3.832501
     79          1           0       -2.833872    4.818037    4.677476
     80          1           0       -3.165046    3.147693    5.131707
     81          1           0       -5.199185    6.581942    2.220678
     82          1           0      -10.165029    3.113473   -3.249905
     83          1           0      -10.026052    4.850133   -2.846768
     84          1           0       -9.819134    4.099208   -5.347208
     85          1           0       -8.261658    4.963779   -4.798782
     86          1           0       -8.341179    3.122126   -4.752791
     87          1           0       -8.446010   -1.194389   -4.900157
     88          1           0       -8.728302   -2.716396   -3.792244
     89          1           0       -9.531868   -1.169979   -3.439906
     90          1           0       -4.227075   -4.229053   -1.387110
     91          1           0        2.716209   -5.930350    1.099175
     92          1           0        2.196841   -5.050719   -0.429680
     93          1           0        3.655348   -3.978687    2.018855
     94          1           0        2.491246   -2.938839   -1.441792
     95          1           0        4.049597   -2.056620   -1.584882
     96          1           0        4.245369   -3.866913   -1.980738
     97          1           0        4.813803   -1.159597    0.344617
     98          1           0        5.354810   -2.440985    1.792788
     99          1           0        6.631837   -3.621115   -0.159433
    100          1           0        6.260078   -2.233300   -1.264315
    101          1           0        7.211664   -0.555088    0.290740
    102          1           0        7.730809   -1.692890    1.582975
    103          1           0        8.984357   -1.785220   -1.360762
    104          1           0        8.750603   -4.054966   -0.272586
    105          1           0       10.400739   -3.529287   -0.492807
    106          1           0        9.587300   -3.315072    1.141232
    107          1           0        9.665265    0.165338    0.340459
    108          1           0       10.164519   -1.169357    1.598993
    109          1           0       11.843773   -1.686130   -0.024724
    110          1           0       11.357025   -0.859052   -1.440297
    111          1           0       11.715828    1.137135    0.414584
    112          1           0       12.836730   -0.120673    1.296721
    113          1           0       13.374535    0.393200   -1.776236
    114          1           0       15.080737   -0.479356    0.613396
    115          1           0       13.927025   -1.728216   -0.676290
    116          1           0       15.252640   -0.828226   -1.425970
    117          1           0       13.597712    2.511158   -0.288025
    118          1           0       14.546731    1.414215    0.818854
    119          1           0       16.191118    1.336796   -1.010692
    120          1           0       15.107075    1.808971   -2.087232
    121          1           0       15.376415    4.200122   -0.907750
    122          1           0       16.126943    3.481134    0.484149
    123          1           0       18.005212    2.917098   -0.967242
    124          1           0       16.373939    4.281667   -3.237644
    125          1           0       18.174446    4.435073   -3.202236
    126          1           0       17.519065    2.916602   -3.262162
    127          1           0       18.016825    4.991864    0.450431
    128          1           0       18.863239    5.430468   -1.037809
    129          1           0       17.382659    5.878462   -0.881685
    130          1           0       -5.214829   -7.672048   -0.153331
    131          1           0       -6.657061   -6.961804    0.644872
    132          1           0       -4.973959   -6.773732    1.497294
    133          8           0       -7.805909    6.801119   -0.444722
    134          1           0       -8.615472    6.076098   -2.391343
 ---------------------------------------------------------------------

 SCF Done:  E(RCAM-B3LYP) =  -3043.40827791     A.U. after   15 cycles

 Excitation energies and oscillator strengths:

 Excited State   1:      Singlet-A      1.9749 eV  627.79 nm  f=0.2495  <S**2>=0.000
     243 -> 246       -0.21856
     244 -> 245        0.66707
 This state for optimization and/or second-order correction.
 Total Energy, E(TD-HF/TD-KS) =  -3043.33570091
 Copying the excited state density for this state as the 1-particle RhoCI density.

 The electronic state is 1-A.
 Alpha  occ. eigenvalues --  -46.81819 -19.22900 -19.20310 -19.19212 -19.18588
 Alpha  occ. eigenvalues --  -19.17306 -19.16767 -19.16604 -14.38421 -14.37561
 Alpha  occ. eigenvalues --  -14.37268 -14.36532 -10.35712 -10.35440 -10.32342
 Alpha  occ. eigenvalues --  -10.31307 -10.30155 -10.28101 -10.27548 -10.26731
 Alpha  occ. eigenvalues --  -10.26678 -10.26562 -10.26497 -10.26454 -10.26431
 Alpha  occ. eigenvalues --  -10.26380 -10.26349 -10.26216 -10.25733 -10.25207
 Alpha  occ. eigenvalues --  -10.25168 -10.24302 -10.24219 -10.24189 -10.23925
 Alpha  occ. eigenvalues --  -10.23892 -10.23834 -10.23724 -10.23573 -10.23508
 Alpha  occ. eigenvalues --  -10.23465 -10.23029 -10.22781 -10.22768 -10.22670
 Alpha  occ. eigenvalues --  -10.22669 -10.22666 -10.22557 -10.22550 -10.22546
 Alpha  occ. eigenvalues --  -10.22386 -10.22077 -10.21991 -10.21927 -10.21838
 Alpha  occ. eigenvalues --  -10.21543 -10.21504 -10.20586 -10.20422 -10.20308
 Alpha  occ. eigenvalues --  -10.19999 -10.19962 -10.19730 -10.19362 -10.19241
 Alpha  occ. eigenvalues --  -10.18381  -3.10383  -1.85326  -1.84854  -1.84789
 Alpha  occ. eigenvalues --   -1.13471  -1.10645  -1.08112  -1.07515  -1.06061
 Alpha  occ. eigenvalues --   -1.03065  -1.02623  -1.01199  -1.00361  -1.00015
 Alpha  occ. eigenvalues --   -0.99188  -0.88804  -0.87611  -0.86136  -0.85514
 Alpha  occ. eigenvalues --   -0.85102  -0.84876  -0.84570  -0.84372  -0.84065
 Alpha  occ. eigenvalues --   -0.83198  -0.82811  -0.82121  -0.80548  -0.80129
 Alpha  occ. eigenvalues --   -0.79616  -0.79020  -0.77824  -0.77535  -0.75751
 Alpha  occ. eigenvalues --   -0.75522  -0.74744  -0.73990  -0.73124  -0.72084
 Alpha  occ. eigenvalues --   -0.71100  -0.70373  -0.69665  -0.69391  -0.69234
 Alpha  occ. eigenvalues --   -0.68995  -0.68400  -0.67327  -0.66958  -0.66874
 Alpha  occ. eigenvalues --   -0.66186  -0.65080  -0.64540  -0.62370  -0.61935
 Alpha  occ. eigenvalues --   -0.61720  -0.60475  -0.60429  -0.60039  -0.58806
 Alpha  occ. eigenvalues --   -0.58512  -0.58407  -0.58001  -0.56723  -0.56644
 Alpha  occ. eigenvalues --   -0.55819  -0.55493  -0.55239  -0.55152  -0.54868
 Alpha  occ. eigenvalues --   -0.53929  -0.53421  -0.53167  -0.52871  -0.52558
 Alpha  occ. eigenvalues --   -0.51571  -0.51386  -0.50891  -0.50597  -0.50507
 Alpha  occ. eigenvalues --   -0.49830  -0.49692  -0.49576  -0.49370  -0.49087
 Alpha  occ. eigenvalues --   -0.48765  -0.48630  -0.48545  -0.48045  -0.47981
 Alpha  occ. eigenvalues --   -0.47638  -0.47511  -0.47138  -0.47114  -0.46784
 Alpha  occ. eigenvalues --   -0.46616  -0.46279  -0.46035  -0.45986  -0.45771
 Alpha  occ. eigenvalues --   -0.45688  -0.45478  -0.45170  -0.44812  -0.44720
 Alpha  occ. eigenvalues --   -0.44535  -0.44345  -0.44168  -0.44040  -0.43843
 Alpha  occ. eigenvalues --   -0.43772  -0.43515  -0.43480  -0.43384  -0.42869
 Alpha  occ. eigenvalues --   -0.42519  -0.42340  -0.42328  -0.42154  -0.41981
 Alpha  occ. eigenvalues --   -0.41662  -0.41579  -0.41464  -0.41269  -0.41050
 Alpha  occ. eigenvalues --   -0.40720  -0.40647  -0.40301  -0.40213  -0.39904
 Alpha  occ. eigenvalues --   -0.39591  -0.39059  -0.38958  -0.38931  -0.38831
 Alpha  occ. eigenvalues --   -0.38705  -0.38666  -0.38524  -0.38380  -0.38358
 Alpha  occ. eigenvalues --   -0.38252  -0.37721  -0.37470  -0.37365  -0.37147
 Alpha  occ. eigenvalues --   -0.37093  -0.36986  -0.36694  -0.36415  -0.36260
 Alpha  occ. eigenvalues --   -0.35593  -0.35109  -0.34906  -0.34794  -0.34470
 Alpha  occ. eigenvalues --   -0.34192  -0.33983  -0.33885  -0.33452  -0.32975
 Alpha  occ. eigenvalues --   -0.32847  -0.32438  -0.32044  -0.31623  -0.31543
 Alpha  occ. eigenvalues --   -0.30950  -0.30641  -0.30490  -0.30218  -0.29242
 Alpha  occ. eigenvalues --   -0.29158  -0.28393  -0.28083  -0.27976  -0.27676
 Alpha  occ. eigenvalues --   -0.27559  -0.26075  -0.23199  -0.21509
 Alpha virt. eigenvalues --   -0.09014  -0.06034  -0.01636  -0.01351  -0.00058
 Alpha virt. eigenvalues --    0.02296   0.02452   0.03267   0.03902   0.04164
 Alpha virt. eigenvalues --    0.04678   0.05166   0.06413   0.07863   0.08689

 Mulliken charges:
               1
     1  Mg   0.831645
     2  C    0.066838
     3  C   -0.216011
     4  C   -0.187277
     5  C   -0.199610
     6  N   -0.656609
     7  C    0.318075
     8  C   -0.152613
     9  C   -0.180579
    10  C    0.440255
    11  C   -0.318115
    12  C   -0.179737
    13  C   -0.223744
    14  C    0.581075
    15  O   -0.430632
    16  O   -0.515774
    17  N   -0.671276
    18  C    0.304018
    19  C    0.065807
    20  C    0.024678
    21  C    0.269481
    22  C   -0.430804
    23  C    0.246861
    24  O   -0.419257
    25  N   -0.703811
    26  C    0.341621
    27  C   -0.067492
    28  C    0.074151
    29  C    0.254681
    30  C    0.254042
    31  C   -0.247548
    32  C   -0.301055
    33  N   -0.741651
    34  C    0.305721
    35  C   -0.000433
    36  C    0.061027
    37  C    0.289988
    38  C   -0.379964
    39  C    0.354078
    40  O   -0.468009
    41  C   -0.329154
    42  C    0.616024
    43  O   -0.510680
    44  O   -0.439987
    45  C   -0.069268
    46  C    0.002526
    47  C   -0.122590
    48  C    0.164695
    49  C   -0.384785
    50  C   -0.224359
    51  C   -0.177581
    52  C   -0.162286
    53  C   -0.059150
    54  C   -0.287865
    55  C   -0.154673
    56  C   -0.132233
    57  C   -0.172346
    58  C   -0.090436
    59  C   -0.303008
    60  C   -0.144015
    61  C   -0.174593
    62  C   -0.171844
    63  C   -0.042627
    64  C   -0.307775
    65  C   -0.323283
    66  H    0.082256
    67  H    0.130418
    68  H    0.083460
    69  H    0.126935
    70  H    0.104491
    71  H    0.114182
    72  H    0.114886
    73  H    0.120547
    74  H    0.112136
    75  H    0.113973
    76  H    0.146648
    77  H    0.142465
    78  H    0.111783
    79  H    0.144711
    80  H    0.142908
    81  H    0.062965
    82  H    0.133426
    83  H    0.096126
    84  H    0.100860
    85  H    0.126817
    86  H    0.115317
    87  H    0.125028
    88  H    0.144052
    89  H    0.135766
    90  H    0.139964
    91  H    0.112791
    92  H    0.118262
    93  H    0.079088
    94  H    0.155875
    95  H    0.104768
    96  H    0.115387
    97  H    0.092285
    98  H    0.068880
    99  H    0.081947
   100  H    0.083758
   101  H    0.083745
   102  H    0.095710
   103  H    0.064869
   104  H    0.084106
   105  H    0.105862
   106  H    0.110508
   107  H    0.098716
   108  H    0.035108
   109  H    0.102848
   110  H    0.054979
   111  H    0.089272
   112  H    0.076085
   113  H    0.074458
   114  H    0.078105
   115  H    0.099017
   116  H    0.105933
   117  H    0.096743
   118  H    0.071102
   119  H    0.100322
   120  H    0.072544
   121  H    0.096484
   122  H    0.082090
   123  H    0.097257
   124  H    0.065551
   125  H    0.108751
   126  H    0.093371
   127  H    0.096472
   128  H    0.098695
   129  H    0.110959
   130  H    0.149208
   131  H    0.112723
   132  H    0.151937
   133  O   -0.407431
   134  H    0.067999
 Sum of Mulliken charges =   0.00000

 Dipole moment (field-independent basis, Debye):
    X=              0.1805    Y=             -3.5548    Z=             -2.3053  Tot=              4.2408
 Quadrupole moment (field-independent basis, Debye-Ang):
   XX=           -372.6836   YY=           -434.2481   ZZ=           -394.0014
   XY=              2.4599   XZ=             24.9643   YZ=            -35.7520

 Normal termination of Gaussian 09 at Fri Oct  4 13:40:27 2019.
