 Gaussian 09, Revision D.01,
 Gaussian 09:  ES64L-G09RevD.01 24-Apr-2013

 ----------------------------------------------------------------------
 # td=(NStates=1) iop(3/107=0140000000,3/108=0140000000) iop(3/107=0140
 000000,3/108=0140000000) CAM-B3LYP/6-31G(d,p)
 ----------------------------------------------------------------------

 --
 TD
 --
 Symbolic Z-matrix:
 Charge =  0 Multiplicity = 1

                         Standard orientation:
 ---------------------------------------------------------------------
 Center     Atomic      Atomic             Coordinates (Angstroms)
 Number     Number       Type             X           Y           Z
 ---------------------------------------------------------------------
      1         12           0       -5.599327    1.230569    0.141966
      2          6           0       -5.162563   -2.174479   -0.306969
      3          6           0       -3.381010    1.185044    2.680196
      4          6           0       -6.197772    4.573042    0.597359
      5          6           0       -8.189643    1.115326   -2.317668
      6          7           0       -4.408393   -0.304577    0.998718
      7          6           0       -4.266748   -1.666625    0.616878
      8          6           0       -3.320642   -2.421712    1.480994
      9          6           0       -2.986405   -1.369483    2.653421
     10          6           0       -3.620643   -0.153177    2.126382
     11          6           0       -3.551717   -1.739550    3.936900
     12          6           0       -2.017806   -2.729225    0.610263
     13          6           0       -0.942196   -3.519190    1.420165
     14          6           0        0.204337   -3.769063    0.591028
     15          8           0        0.386149   -3.383575   -0.534642
     16          8           0        1.033804   -4.631575    1.194265
     17          7           0       -4.818262    2.576935    1.408378
     18          6           0       -3.920080    2.381717    2.427930
     19          6           0       -3.686374    3.649215    3.134391
     20          6           0       -4.539395    4.558630    2.505582
     21          6           0       -5.208192    3.905991    1.447431
     22          6           0       -2.790706    3.868042    4.263024
     23          6           0       -4.620856    5.942707    2.945413
     24          8           0       -4.102483    6.555636    3.853833
     25          7           0       -6.955313    2.750514   -0.774579
     26          6           0       -6.957843    4.025675   -0.410133
     27          6           0       -7.916592    4.672561   -1.188236
     28          6           0       -8.389132    3.646870   -2.075707
     29          6           0       -7.833218    2.466199   -1.696752
     30          6           0       -8.203682    6.070002   -1.054402
     31          6           0       -9.480271    3.850526   -3.253064
     32          6           0       -8.706549    4.016430   -4.609979
     33          7           0       -6.395411   -0.130832   -1.055050
     34          6           0       -7.409184   -0.016499   -1.978137
     35          6           0       -7.709169   -1.308229   -2.556769
     36          6           0       -6.705600   -2.212090   -1.984861
     37          6           0       -6.031923   -1.384974   -1.068489
     38          6           0       -8.686979   -1.577101   -3.642075
     39          6           0       -6.304826   -3.653332   -2.037521
     40          8           0       -6.603788   -4.670220   -2.604215
     41          6           0       -5.109319   -3.577746   -0.869157
     42          6           0       -5.351599   -4.678209    0.091760
     43          8           0       -5.786207   -4.492640    1.229427
     44          8           0       -4.932340   -5.829532   -0.465190
     45          6           0       -5.044130   -6.972257    0.397249
     46          6           0        2.278114   -4.901779    0.563701
     47          6           0        3.353551   -3.988947    1.003871
     48          6           0        4.073001   -3.152479    0.212473
     49          6           0        3.652369   -2.955983   -1.187679
     50          6           0        5.226153   -2.340600    0.634584
     51          6           0        6.487798   -2.726936    0.034734
     52          6           0        7.653043   -1.888661    0.578929
     53          6           0        9.011220   -1.977780    0.020116
     54          6           0        9.689594   -3.310831    0.289457
     55          6           0       10.000101   -0.938012    0.569675
     56          6           0       11.352778   -0.817350   -0.278388
     57          6           0       12.271006    0.300194    0.158793
     58          6           0       13.533910    0.406532   -0.536571
     59          6           0       14.575508   -0.808822   -0.337908
     60          6           0       14.323742    1.791137   -0.221856
     61          6           0       15.615623    2.033416   -0.955274
     62          6           0       16.145981    3.436505   -0.624002
     63          6           0       17.392018    3.851217   -1.423823
     64          6           0       17.124502    3.934669   -2.953227
     65          6           0       17.906267    5.239205   -0.863345
     66          1           0       -2.639122    0.985756    3.519769
     67          1           0       -6.294482    5.595247    0.754366
     68          1           0       -8.937614    0.931526   -3.052778
     69          1           0       -3.631848   -3.404002    1.899941
     70          1           0       -1.893221   -1.337750    2.759176
     71          1           0       -3.143589   -2.777454    4.282334
     72          1           0       -3.053885   -1.010902    4.726094
     73          1           0       -4.655473   -2.035665    4.199003
     74          1           0       -2.448055   -3.427560   -0.255014
     75          1           0       -1.571816   -1.890884    0.314517
     76          1           0       -0.511017   -2.829992    2.228854
     77          1           0       -1.193342   -4.467715    1.771476
     78          1           0       -1.773276    3.854681    3.927576
     79          1           0       -3.048527    4.795595    4.867106
     80          1           0       -3.058365    2.885404    5.010649
     81          1           0       -5.240292    6.533387    2.534309
     82          1           0      -10.062685    2.886493   -3.223169
     83          1           0      -10.137032    4.623037   -3.144661
     84          1           0       -9.485613    4.055712   -5.279746
     85          1           0       -8.185111    4.885263   -4.658318
     86          1           0       -8.013734    3.009899   -4.890633
     87          1           0       -8.179194   -0.905334   -4.361723
     88          1           0       -8.477959   -2.562157   -3.948931
     89          1           0       -9.618025   -1.578463   -3.103925
     90          1           0       -4.323632   -3.869476   -1.556530
     91          1           0        2.707607   -5.876625    1.010209
     92          1           0        2.037710   -4.889336   -0.594913
     93          1           0        3.432693   -4.068326    1.852406
     94          1           0        2.647040   -3.255332   -1.334202
     95          1           0        3.574196   -1.871080   -1.633774
     96          1           0        4.421922   -3.438054   -2.093599
     97          1           0        5.088723   -1.382101    0.322897
     98          1           0        5.229045   -2.587732    1.700019
     99          1           0        6.715664   -3.793524    0.330722
    100          1           0        6.450126   -2.789704   -1.106699
    101          1           0        7.323563   -0.871090    0.309502
    102          1           0        7.748474   -1.888749    1.819217
    103          1           0        8.830870   -1.800183   -1.042376
    104          1           0        9.101272   -4.281756   -0.025506
    105          1           0       10.660708   -3.202185   -0.136216
    106          1           0        9.797536   -3.480130    1.340324
    107          1           0        9.542788    0.017826    0.533049
    108          1           0       10.255146   -1.234974    1.574820
    109          1           0       11.958676   -1.855197   -0.324693
    110          1           0       11.056613   -0.578963   -1.361516
    111          1           0       11.804179    1.300370    0.130595
    112          1           0       12.413221    0.010975    1.080801
    113          1           0       13.488496    0.589328   -1.636893
    114          1           0       15.070195   -0.802199    0.778407
    115          1           0       13.916091   -1.780522   -0.306921
    116          1           0       15.465473   -0.687189   -1.141003
    117          1           0       13.628196    2.647566   -0.593287
    118          1           0       14.479396    1.928888    0.912183
    119          1           0       16.439991    1.563945   -0.514833
    120          1           0       15.138317    2.085185   -2.018396
    121          1           0       15.380755    4.235987   -0.729783
    122          1           0       16.573946    3.438964    0.446023
    123          1           0       18.432578    3.183035   -1.200314
    124          1           0       16.497858    4.719844   -3.192299
    125          1           0       18.125770    4.105678   -3.376522
    126          1           0       16.662114    2.948371   -3.330900
    127          1           0       18.008237    5.345341    0.318547
    128          1           0       18.784293    5.714881   -1.199374
    129          1           0       16.930782    5.845838   -1.171675
    130          1           0       -5.064062   -7.978667   -0.270496
    131          1           0       -6.119370   -7.044861    0.956743
    132          1           0       -4.373017   -7.005783    1.138248
    133          8           0       -7.782933    6.865669   -0.277129
    134          1           0       -8.918048    6.357978   -1.819165
 ---------------------------------------------------------------------

 SCF Done:  E(RCAM-B3LYP) =  -3043.38014573     A.U. after   16 cycles

 Excitation energies and oscillator strengths:

 Excited State   1:      Singlet-A      2.0112 eV  616.48 nm  f=0.1465  <S**2>=0.000
     243 -> 245        0.10645
     243 -> 246        0.24192
     244 -> 245        0.63818
     244 -> 246       -0.12557
 This state for optimization and/or second-order correction.
 Total Energy, E(TD-HF/TD-KS) =  -3043.30623653
 Copying the excited state density for this state as the 1-particle RhoCI density.

 The electronic state is 1-A.
 Alpha  occ. eigenvalues --  -46.81885 -19.23828 -19.22272 -19.19159 -19.17231
 Alpha  occ. eigenvalues --  -19.17132 -19.16125 -19.15966 -14.39449 -14.37288
 Alpha  occ. eigenvalues --  -14.36748 -14.35524 -10.35118 -10.34652 -10.33248
 Alpha  occ. eigenvalues --  -10.28672 -10.28510 -10.28450 -10.28226 -10.27687
 Alpha  occ. eigenvalues --  -10.27628 -10.26778 -10.26699 -10.26305 -10.26303
 Alpha  occ. eigenvalues --  -10.26236 -10.25952 -10.25781 -10.25007 -10.24791
 Alpha  occ. eigenvalues --  -10.24356 -10.24332 -10.24262 -10.24135 -10.24125
 Alpha  occ. eigenvalues --  -10.24058 -10.23799 -10.23610 -10.23497 -10.23440
 Alpha  occ. eigenvalues --  -10.23389 -10.23282 -10.23257 -10.23051 -10.23029
 Alpha  occ. eigenvalues --  -10.22956 -10.22949 -10.22527 -10.22440 -10.22012
 Alpha  occ. eigenvalues --  -10.21921 -10.21783 -10.21734 -10.21723 -10.21621
 Alpha  occ. eigenvalues --  -10.21489 -10.21319 -10.21087 -10.21038 -10.20896
 Alpha  occ. eigenvalues --  -10.20833 -10.20248 -10.20247 -10.19782 -10.19442
 Alpha  occ. eigenvalues --  -10.19285  -3.10402  -1.85346  -1.84862  -1.84821
 Alpha  occ. eigenvalues --   -1.14787  -1.13914  -1.09101  -1.07523  -1.06463
 Alpha  occ. eigenvalues --   -1.05628  -1.04730  -1.02188  -1.01551  -0.99608
 Alpha  occ. eigenvalues --   -0.98651  -0.88744  -0.87802  -0.86553  -0.85896
 Alpha  occ. eigenvalues --   -0.85511  -0.84914  -0.84455  -0.84197  -0.83571
 Alpha  occ. eigenvalues --   -0.83405  -0.82845  -0.82436  -0.81353  -0.80128
 Alpha  occ. eigenvalues --   -0.79552  -0.79105  -0.77774  -0.77607  -0.76961
 Alpha  occ. eigenvalues --   -0.75669  -0.75211  -0.74444  -0.72858  -0.72557
 Alpha  occ. eigenvalues --   -0.71410  -0.70625  -0.70564  -0.70005  -0.69655
 Alpha  occ. eigenvalues --   -0.68859  -0.68575  -0.67610  -0.66933  -0.66582
 Alpha  occ. eigenvalues --   -0.65909  -0.64998  -0.64482  -0.62918  -0.62498
 Alpha  occ. eigenvalues --   -0.61869  -0.61737  -0.60157  -0.59553  -0.58662
 Alpha  occ. eigenvalues --   -0.58383  -0.58276  -0.58226  -0.58166  -0.57319
 Alpha  occ. eigenvalues --   -0.56817  -0.56707  -0.56525  -0.56055  -0.54683
 Alpha  occ. eigenvalues --   -0.54418  -0.53926  -0.53483  -0.52892  -0.52347
 Alpha  occ. eigenvalues --   -0.52299  -0.52189  -0.51778  -0.51700  -0.51461
 Alpha  occ. eigenvalues --   -0.50960  -0.50792  -0.50600  -0.50419  -0.49953
 Alpha  occ. eigenvalues --   -0.49778  -0.48909  -0.48588  -0.48196  -0.48098
 Alpha  occ. eigenvalues --   -0.47935  -0.47651  -0.47439  -0.47302  -0.47161
 Alpha  occ. eigenvalues --   -0.47014  -0.46865  -0.46629  -0.46439  -0.46190
 Alpha  occ. eigenvalues --   -0.45858  -0.45695  -0.45655  -0.45225  -0.45181
 Alpha  occ. eigenvalues --   -0.44905  -0.44877  -0.44718  -0.44494  -0.44047
 Alpha  occ. eigenvalues --   -0.43768  -0.43528  -0.43313  -0.43123  -0.42905
 Alpha  occ. eigenvalues --   -0.42608  -0.42546  -0.42429  -0.42033  -0.41856
 Alpha  occ. eigenvalues --   -0.41633  -0.41513  -0.41413  -0.41268  -0.41088
 Alpha  occ. eigenvalues --   -0.40941  -0.40862  -0.40506  -0.40393  -0.40164
 Alpha  occ. eigenvalues --   -0.39853  -0.39694  -0.39587  -0.39162  -0.38951
 Alpha  occ. eigenvalues --   -0.38922  -0.38814  -0.38790  -0.38408  -0.38174
 Alpha  occ. eigenvalues --   -0.38020  -0.37943  -0.37426  -0.37131  -0.36919
 Alpha  occ. eigenvalues --   -0.36824  -0.36552  -0.36301  -0.35810  -0.35661
 Alpha  occ. eigenvalues --   -0.35542  -0.35256  -0.35087  -0.34761  -0.34743
 Alpha  occ. eigenvalues --   -0.34361  -0.34258  -0.33925  -0.33735  -0.33099
 Alpha  occ. eigenvalues --   -0.32635  -0.32534  -0.32036  -0.31803  -0.31793
 Alpha  occ. eigenvalues --   -0.31429  -0.31106  -0.30913  -0.30244  -0.30125
 Alpha  occ. eigenvalues --   -0.28849  -0.28057  -0.27851  -0.27012  -0.26973
 Alpha  occ. eigenvalues --   -0.26743  -0.26489  -0.23696  -0.21150
 Alpha virt. eigenvalues --   -0.08368  -0.07088  -0.02278   0.00013   0.00880
 Alpha virt. eigenvalues --    0.02644   0.02945   0.03566   0.03900   0.04068
 Alpha virt. eigenvalues --    0.04640   0.05922   0.07744   0.08734   0.09329

 Mulliken charges:
               1
     1  Mg   0.831304
     2  C    0.091852
     3  C   -0.222946
     4  C   -0.146681
     5  C   -0.146808
     6  N   -0.614205
     7  C    0.299665
     8  C   -0.170716
     9  C   -0.138046
    10  C    0.336850
    11  C   -0.304519
    12  C   -0.160935
    13  C   -0.276652
    14  C    0.613703
    15  O   -0.471783
    16  O   -0.460657
    17  N   -0.745396
    18  C    0.361297
    19  C    0.069800
    20  C   -0.043385
    21  C    0.316911
    22  C   -0.378823
    23  C    0.270843
    24  O   -0.431292
    25  N   -0.702044
    26  C    0.329354
    27  C   -0.040259
    28  C   -0.030897
    29  C    0.316096
    30  C    0.254914
    31  C   -0.235848
    32  C   -0.300021
    33  N   -0.750710
    34  C    0.301874
    35  C   -0.055130
    36  C    0.004336
    37  C    0.340153
    38  C   -0.365663
    39  C    0.365126
    40  O   -0.429529
    41  C   -0.371630
    42  C    0.655839
    43  O   -0.495526
    44  O   -0.436135
    45  C   -0.093891
    46  C   -0.017492
    47  C   -0.069665
    48  C    0.151058
    49  C   -0.379428
    50  C   -0.191982
    51  C   -0.181195
    52  C   -0.144665
    53  C   -0.050190
    54  C   -0.306852
    55  C   -0.172383
    56  C   -0.198237
    57  C   -0.143945
    58  C   -0.040821
    59  C   -0.305406
    60  C   -0.183195
    61  C   -0.150998
    62  C   -0.173096
    63  C   -0.058112
    64  C   -0.303171
    65  C   -0.295211
    66  H    0.072186
    67  H    0.125078
    68  H    0.109486
    69  H    0.127253
    70  H    0.114709
    71  H    0.095511
    72  H    0.097635
    73  H    0.135567
    74  H    0.109194
    75  H    0.129563
    76  H    0.132864
    77  H    0.145799
    78  H    0.139280
    79  H    0.163768
    80  H    0.083008
    81  H    0.066383
    82  H    0.098467
    83  H    0.121031
    84  H    0.117875
    85  H    0.131679
    86  H    0.077374
    87  H    0.145737
    88  H    0.151853
    89  H    0.149261
    90  H    0.164159
    91  H    0.107831
    92  H    0.121377
    93  H    0.033724
    94  H    0.146687
    95  H    0.098569
    96  H    0.071794
    97  H    0.109041
    98  H    0.095125
    99  H    0.087095
   100  H    0.092263
   101  H    0.078545
   102  H    0.050527
   103  H    0.080892
   104  H    0.079794
   105  H    0.105389
   106  H    0.101385
   107  H    0.093194
   108  H    0.095212
   109  H    0.078737
   110  H    0.081532
   111  H    0.089456
   112  H    0.106387
   113  H    0.075383
   114  H    0.076717
   115  H    0.090746
   116  H    0.103703
   117  H    0.066237
   118  H    0.070597
   119  H    0.113094
   120  H    0.091402
   121  H    0.083420
   122  H    0.084518
   123  H    0.049544
   124  H    0.110382
   125  H    0.105243
   126  H    0.097766
   127  H    0.082404
   128  H    0.110541
   129  H    0.074765
   130  H    0.115972
   131  H    0.116734
   132  H    0.139564
   133  O   -0.426709
   134  H    0.033905
 Sum of Mulliken charges =   0.00000

 Dipole moment (field-independent basis, Debye):
    X=              1.9205    Y=             -5.7359    Z=             -1.2024  Tot=              6.1672
 Quadrupole moment (field-independent basis, Debye-Ang):
   XX=           -387.0709   YY=           -447.2358   ZZ=           -395.4754
   XY=             26.2229   XZ=             28.6379   YZ=            -38.4397

 Normal termination of Gaussian 09 at Wed Oct  9 10:41:46 2019.
