 Gaussian 09, Revision D.01,
 Gaussian 09:  ES64L-G09RevD.01 24-Apr-2013

 ----------------------------------------------------------------------
 # td=(NStates=1) iop(3/107=0140000000,3/108=0140000000) iop(3/107=0140
 000000,3/108=0140000000) CAM-B3LYP/6-31G(d,p)
 ----------------------------------------------------------------------

 --
 TD
 --
 Symbolic Z-matrix:
 Charge =  0 Multiplicity = 1

                         Standard orientation:
 ---------------------------------------------------------------------
 Center     Atomic      Atomic             Coordinates (Angstroms)
 Number     Number       Type             X           Y           Z
 ---------------------------------------------------------------------
      1         12           0       -5.539944    1.315965    0.115789
      2          6           0       -4.959333   -2.093295   -0.423322
      3          6           0       -3.327792    1.221729    2.839628
      4          6           0       -6.060742    4.643018    0.616726
      5          6           0       -7.889820    1.224148   -2.435066
      6          7           0       -4.331970   -0.222039    1.068991
      7          6           0       -4.288321   -1.509510    0.695818
      8          6           0       -3.208391   -2.263923    1.565367
      9          6           0       -2.912739   -1.281727    2.764060
     10          6           0       -3.475330    0.069331    2.212594
     11          6           0       -3.484193   -1.727894    4.118279
     12          6           0       -1.996474   -2.711788    0.729808
     13          6           0       -1.083153   -3.565000    1.545210
     14          6           0        0.168808   -4.054751    0.600088
     15          8           0        0.386943   -3.673009   -0.470759
     16          8           0        0.989154   -4.758400    1.413847
     17          7           0       -4.774851    2.652768    1.433129
     18          6           0       -4.029799    2.417870    2.553229
     19          6           0       -3.759016    3.630492    3.214671
     20          6           0       -4.517804    4.628623    2.587913
     21          6           0       -5.176982    3.996180    1.518489
     22          6           0       -2.855575    3.741229    4.428364
     23          6           0       -4.569268    6.026427    2.971501
     24          8           0       -3.899405    6.683130    3.771759
     25          7           0       -6.657356    2.720298   -0.810372
     26          6           0       -6.807634    4.058656   -0.490884
     27          6           0       -7.945939    4.617093   -1.318444
     28          6           0       -8.376920    3.728107   -2.161038
     29          6           0       -7.686143    2.439395   -1.838954
     30          6           0       -8.088645    6.071048   -1.267022
     31          6           0       -9.458736    3.787731   -3.204229
     32          6           0       -8.877652    4.095354   -4.588413
     33          7           0       -6.251805   -0.091769   -1.169758
     34          6           0       -7.207734    0.035640   -2.132509
     35          6           0       -7.558935   -1.379134   -2.648477
     36          6           0       -6.617642   -2.200851   -2.006818
     37          6           0       -5.920044   -1.504888   -1.102158
     38          6           0       -8.545218   -1.643206   -3.691387
     39          6           0       -6.120443   -3.568791   -1.900221
     40          8           0       -6.451889   -4.556359   -2.560617
     41          6           0       -4.922872   -3.519222   -0.894016
     42          6           0       -5.240716   -4.612657    0.200146
     43          8           0       -5.720805   -4.565691    1.303364
     44          8           0       -4.913109   -5.813726   -0.411205
     45          6           0       -5.303426   -6.975451    0.338525
     46          6           0        2.254073   -5.195940    0.747066
     47          6           0        3.308529   -4.151886    1.045315
     48          6           0        4.014781   -3.373092    0.228400
     49          6           0        3.702648   -3.339090   -1.248542
     50          6           0        5.091581   -2.474133    0.735340
     51          6           0        6.461140   -2.752656    0.115946
     52          6           0        7.561903   -1.863090    0.583078
     53          6           0        8.889852   -2.041032   -0.236649
     54          6           0        9.488394   -3.358515   -0.135899
     55          6           0        9.926232   -1.032196    0.255692
     56          6           0       11.261477   -0.989134   -0.452733
     57          6           0       12.155636    0.235575   -0.050419
     58          6           0       13.485965    0.412175   -0.793674
     59          6           0       14.273597   -0.872188   -0.615956
     60          6           0       14.090183    1.685177   -0.242247
     61          6           0       15.451792    2.188434   -0.830529
     62          6           0       15.915164    3.619238   -0.583015
     63          6           0       17.229190    4.125806   -1.198227
     64          6           0       16.969933    4.236182   -2.658897
     65          6           0       17.719001    5.492563   -0.538785
     66          1           0       -2.710872    1.211182    3.822400
     67          1           0       -6.277469    5.538243    0.513841
     68          1           0       -8.503953    1.189164   -3.233625
     69          1           0       -3.613771   -3.273959    1.766459
     70          1           0       -1.861281   -1.074788    2.892834
     71          1           0       -3.091502   -2.630323    4.398070
     72          1           0       -3.415192   -1.127800    4.839468
     73          1           0       -4.482403   -1.963978    3.835701
     74          1           0       -2.379485   -3.205217   -0.257803
     75          1           0       -1.491498   -1.955725    0.038836
     76          1           0       -0.563436   -3.203026    2.320663
     77          1           0       -1.686179   -4.555048    1.514302
     78          1           0       -1.943383    3.433829    4.037473
     79          1           0       -2.743154    4.870059    4.970806
     80          1           0       -3.022748    2.980595    5.118243
     81          1           0       -5.285547    6.630193    2.242485
     82          1           0      -10.032269    2.847392   -3.239411
     83          1           0      -10.069593    4.713411   -2.687873
     84          1           0       -9.804520    4.116144   -5.227300
     85          1           0       -8.390270    5.170898   -4.685561
     86          1           0       -8.105924    3.419106   -5.112053
     87          1           0       -8.319900   -1.056720   -4.693290
     88          1           0       -8.403507   -2.715987   -3.935833
     89          1           0       -9.468506   -1.367606   -3.149447
     90          1           0       -3.912024   -3.642368   -1.470872
     91          1           0        2.521869   -6.036078    1.289228
     92          1           0        1.915280   -5.625654   -0.286339
     93          1           0        3.690133   -4.263174    2.128180
     94          1           0        2.595726   -3.706296   -1.429356
     95          1           0        3.888396   -2.337101   -1.735079
     96          1           0        4.381799   -4.022469   -1.670518
     97          1           0        4.875627   -1.414711    0.540496
     98          1           0        5.255517   -2.539036    1.859149
     99          1           0        6.883211   -3.812412    0.395273
    100          1           0        6.485554   -2.721018   -1.092036
    101          1           0        7.288544   -0.877999    0.500075
    102          1           0        7.962074   -1.868622    1.650521
    103          1           0        8.779817   -2.029022   -1.344216
    104          1           0        8.913839   -4.283629   -0.412209
    105          1           0       10.453253   -3.464782   -0.559598
    106          1           0        9.790773   -3.364900    0.955671
    107          1           0        9.609223   -0.082377    0.195637
    108          1           0        9.999009   -0.921522    1.509681
    109          1           0       12.023741   -2.005654   -0.371668
    110          1           0       11.066735   -0.795953   -1.631373
    111          1           0       11.368626    1.073143   -0.172263
    112          1           0       12.417728    0.108314    0.942784
    113          1           0       13.186668    0.488149   -1.929025
    114          1           0       14.411172   -1.040718    0.481781
    115          1           0       13.711382   -1.757017   -0.992461
    116          1           0       15.167412   -0.776734   -1.236885
    117          1           0       13.277818    2.487807   -0.477415
    118          1           0       14.026342    1.617185    1.011164
    119          1           0       16.161488    1.376927   -0.619484
    120          1           0       15.447642    2.037088   -2.019978
    121          1           0       14.924209    4.297484   -0.865862
    122          1           0       16.069257    3.567978    0.656426
    123          1           0       17.977109    3.295675   -1.037167
    124          1           0       16.003538    5.071173   -2.642421
    125          1           0       17.696692    4.631423   -3.228399
    126          1           0       16.660643    3.263446   -3.209661
    127          1           0       17.978938    5.428560    0.523765
    128          1           0       18.748722    5.671459   -1.133694
    129          1           0       16.971669    6.295532   -0.608635
    130          1           0       -4.993704   -7.789278   -0.131648
    131          1           0       -6.276218   -7.144830    0.330539
    132          1           0       -4.896960   -7.039729    1.306591
    133          8           0       -7.709741    6.774891   -0.328961
    134          1           0       -8.578580    6.495552   -1.977264
 ---------------------------------------------------------------------

 SCF Done:  E(RCAM-B3LYP) =  -3043.40376813     A.U. after   16 cycles

 Excitation energies and oscillator strengths:

 Excited State   1:      Singlet-A      1.8397 eV  673.92 nm  f=0.2474  <S**2>=0.000
     243 -> 246        0.20286
     244 -> 245        0.67499
 This state for optimization and/or second-order correction.
 Total Energy, E(TD-HF/TD-KS) =  -3043.33615909
 Copying the excited state density for this state as the 1-particle RhoCI density.

 The electronic state is 1-A.
 Alpha  occ. eigenvalues --  -46.80413 -19.22258 -19.21736 -19.18890 -19.17911
 Alpha  occ. eigenvalues --  -19.17484 -19.17457 -19.16048 -14.38997 -14.37188
 Alpha  occ. eigenvalues --  -14.36635 -14.36149 -10.36344 -10.34361 -10.31851
 Alpha  occ. eigenvalues --  -10.29613 -10.29543 -10.28276 -10.28066 -10.26786
 Alpha  occ. eigenvalues --  -10.26770 -10.26745 -10.26703 -10.26688 -10.26266
 Alpha  occ. eigenvalues --  -10.26160 -10.25924 -10.25467 -10.24803 -10.24586
 Alpha  occ. eigenvalues --  -10.24456 -10.24285 -10.24143 -10.24019 -10.23995
 Alpha  occ. eigenvalues --  -10.23530 -10.23412 -10.23366 -10.23304 -10.23299
 Alpha  occ. eigenvalues --  -10.23264 -10.23246 -10.23121 -10.23111 -10.23110
 Alpha  occ. eigenvalues --  -10.23025 -10.23009 -10.22811 -10.22468 -10.22362
 Alpha  occ. eigenvalues --  -10.22284 -10.22219 -10.22040 -10.22014 -10.21985
 Alpha  occ. eigenvalues --  -10.21822 -10.21559 -10.21536 -10.21515 -10.21268
 Alpha  occ. eigenvalues --  -10.21235 -10.20704 -10.20582 -10.20514 -10.19238
 Alpha  occ. eigenvalues --  -10.19178  -3.09043  -1.83984  -1.83511  -1.83454
 Alpha  occ. eigenvalues --   -1.14118  -1.13321  -1.06748  -1.06464  -1.06210
 Alpha  occ. eigenvalues --   -1.05384  -1.04504  -0.99335  -0.98853  -0.97371
 Alpha  occ. eigenvalues --   -0.96592  -0.90300  -0.86686  -0.86058  -0.85630
 Alpha  occ. eigenvalues --   -0.85050  -0.84804  -0.84663  -0.83561  -0.83531
 Alpha  occ. eigenvalues --   -0.83172  -0.82484  -0.81616  -0.80528  -0.79652
 Alpha  occ. eigenvalues --   -0.79377  -0.78548  -0.78162  -0.77518  -0.76784
 Alpha  occ. eigenvalues --   -0.75575  -0.75421  -0.74044  -0.74033  -0.71983
 Alpha  occ. eigenvalues --   -0.71757  -0.70740  -0.70623  -0.70565  -0.69700
 Alpha  occ. eigenvalues --   -0.69002  -0.68722  -0.67583  -0.66733  -0.66141
 Alpha  occ. eigenvalues --   -0.65270  -0.64887  -0.64359  -0.62099  -0.62022
 Alpha  occ. eigenvalues --   -0.61694  -0.61079  -0.59364  -0.59180  -0.58615
 Alpha  occ. eigenvalues --   -0.58445  -0.57833  -0.57290  -0.56948  -0.56066
 Alpha  occ. eigenvalues --   -0.55943  -0.55783  -0.55581  -0.55222  -0.54483
 Alpha  occ. eigenvalues --   -0.54251  -0.53288  -0.53165  -0.52376  -0.51983
 Alpha  occ. eigenvalues --   -0.51683  -0.51427  -0.51346  -0.51186  -0.51100
 Alpha  occ. eigenvalues --   -0.50442  -0.50082  -0.49958  -0.49537  -0.49273
 Alpha  occ. eigenvalues --   -0.49176  -0.48839  -0.48589  -0.48418  -0.48098
 Alpha  occ. eigenvalues --   -0.47707  -0.47675  -0.47277  -0.47100  -0.46962
 Alpha  occ. eigenvalues --   -0.46875  -0.46614  -0.46353  -0.45901  -0.45660
 Alpha  occ. eigenvalues --   -0.45438  -0.45271  -0.45105  -0.44939  -0.44868
 Alpha  occ. eigenvalues --   -0.44759  -0.44471  -0.44007  -0.43896  -0.43665
 Alpha  occ. eigenvalues --   -0.43451  -0.43250  -0.43088  -0.42945  -0.42700
 Alpha  occ. eigenvalues --   -0.42583  -0.42435  -0.42261  -0.42082  -0.41788
 Alpha  occ. eigenvalues --   -0.41634  -0.41599  -0.41136  -0.41030  -0.40966
 Alpha  occ. eigenvalues --   -0.40678  -0.40590  -0.40096  -0.40027  -0.39903
 Alpha  occ. eigenvalues --   -0.39705  -0.39467  -0.39284  -0.39192  -0.39006
 Alpha  occ. eigenvalues --   -0.38971  -0.38799  -0.38638  -0.38432  -0.38284
 Alpha  occ. eigenvalues --   -0.38067  -0.37688  -0.37444  -0.37218  -0.37083
 Alpha  occ. eigenvalues --   -0.36890  -0.36670  -0.36256  -0.35744  -0.35348
 Alpha  occ. eigenvalues --   -0.35189  -0.35145  -0.34541  -0.34449  -0.34131
 Alpha  occ. eigenvalues --   -0.34086  -0.33828  -0.33731  -0.33586  -0.33211
 Alpha  occ. eigenvalues --   -0.33017  -0.32546  -0.32281  -0.32028  -0.31919
 Alpha  occ. eigenvalues --   -0.31886  -0.31441  -0.31055  -0.30146  -0.30031
 Alpha  occ. eigenvalues --   -0.29000  -0.28561  -0.28221  -0.27867  -0.27508
 Alpha  occ. eigenvalues --   -0.27119  -0.26298  -0.23603  -0.20618
 Alpha virt. eigenvalues --   -0.08730  -0.06464  -0.01780  -0.00845   0.00445
 Alpha virt. eigenvalues --    0.02855   0.03547   0.04184   0.04553   0.04788
 Alpha virt. eigenvalues --    0.05841   0.06068   0.07370   0.08411   0.09139

 Mulliken charges:
               1
     1  Mg   0.808933
     2  C    0.048882
     3  C   -0.179455
     4  C   -0.056951
     5  C   -0.165003
     6  N   -0.630012
     7  C    0.329279
     8  C   -0.146449
     9  C   -0.148027
    10  C    0.306083
    11  C   -0.292515
    12  C   -0.198875
    13  C   -0.234951
    14  C    0.558691
    15  O   -0.412335
    16  O   -0.473260
    17  N   -0.696925
    18  C    0.304815
    19  C    0.028959
    20  C    0.008015
    21  C    0.295455
    22  C   -0.381924
    23  C    0.232315
    24  O   -0.432325
    25  N   -0.669911
    26  C    0.220597
    27  C   -0.039949
    28  C    0.073921
    29  C    0.265678
    30  C    0.265704
    31  C   -0.239463
    32  C   -0.310373
    33  N   -0.718763
    34  C    0.306483
    35  C   -0.028986
    36  C    0.080324
    37  C    0.280813
    38  C   -0.379497
    39  C    0.354127
    40  O   -0.460666
    41  C   -0.316222
    42  C    0.610809
    43  O   -0.453458
    44  O   -0.449452
    45  C   -0.080336
    46  C   -0.011526
    47  C   -0.153542
    48  C    0.176580
    49  C   -0.382714
    50  C   -0.237306
    51  C   -0.175962
    52  C   -0.159448
    53  C   -0.061140
    54  C   -0.299509
    55  C   -0.157778
    56  C   -0.172241
    57  C   -0.167666
    58  C   -0.052593
    59  C   -0.305732
    60  C   -0.138874
    61  C   -0.182685
    62  C   -0.130012
    63  C   -0.054865
    64  C   -0.269333
    65  C   -0.302699
    66  H    0.089929
    67  H    0.067068
    68  H    0.071879
    69  H    0.110472
    70  H    0.105161
    71  H    0.119389
    72  H    0.111752
    73  H    0.125005
    74  H    0.087414
    75  H    0.111409
    76  H    0.142664
    77  H    0.129760
    78  H    0.133303
    79  H    0.142929
    80  H    0.125050
    81  H    0.055724
    82  H    0.125384
    83  H    0.100601
    84  H    0.113283
    85  H    0.104929
    86  H    0.121522
    87  H    0.124369
    88  H    0.151882
    89  H    0.140243
    90  H    0.173915
    91  H    0.125581
    92  H    0.121214
    93  H    0.079930
    94  H    0.137918
    95  H    0.104948
    96  H    0.131271
    97  H    0.109931
    98  H    0.097769
    99  H    0.091751
   100  H    0.079950
   101  H    0.097826
   102  H    0.083577
   103  H    0.081980
   104  H    0.090700
   105  H    0.112082
   106  H    0.079521
   107  H    0.104435
   108  H    0.050141
   109  H    0.059264
   110  H    0.071528
   111  H    0.076397
   112  H    0.099530
   113  H    0.070941
   114  H    0.097608
   115  H    0.105983
   116  H    0.102654
   117  H    0.082673
   118  H    0.057441
   119  H    0.097569
   120  H    0.064120
   121  H    0.067284
   122  H    0.052221
   123  H    0.087080
   124  H    0.056858
   125  H    0.108137
   126  H    0.097474
   127  H    0.111771
   128  H    0.084160
   129  H    0.111662
   130  H    0.122021
   131  H    0.132599
   132  H    0.122548
   133  O   -0.421761
   134  H    0.071923
 Sum of Mulliken charges =   0.00000

 Dipole moment (field-independent basis, Debye):
    X=              1.7112    Y=             -5.3922    Z=             -3.0080  Tot=              6.4072
 Quadrupole moment (field-independent basis, Debye-Ang):
   XX=           -350.2644   YY=           -440.0821   ZZ=           -391.7807
   XY=              7.4518   XZ=             30.2404   YZ=            -39.2772

 Normal termination of Gaussian 09 at Sat Oct  5 01:45:19 2019.
