 Gaussian 09, Revision D.01,
 Gaussian 09:  ES64L-G09RevD.01 24-Apr-2013

 ----------------------------------------------------------------------
 # td=(NStates=1) iop(3/107=0140000000,3/108=0140000000) iop(3/107=0140
 000000,3/108=0140000000) CAM-B3LYP/6-31G(d,p)
 ----------------------------------------------------------------------

 --
 TD
 --
 Symbolic Z-matrix:
 Charge =  0 Multiplicity = 1

                         Standard orientation:
 ---------------------------------------------------------------------
 Center     Atomic      Atomic             Coordinates (Angstroms)
 Number     Number       Type             X           Y           Z
 ---------------------------------------------------------------------
      1         12           0       -5.538362    1.204149    0.115415
      2          6           0       -5.032423   -2.076497   -0.344898
      3          6           0       -3.560885    1.145682    2.775531
      4          6           0       -6.091187    4.614353    0.544073
      5          6           0       -7.911340    1.132649   -2.446551
      6          7           0       -4.458699   -0.245455    1.059212
      7          6           0       -4.293960   -1.546009    0.703333
      8          6           0       -3.196795   -2.272268    1.543887
      9          6           0       -2.982961   -1.437198    2.659168
     10          6           0       -3.626816   -0.069566    2.174493
     11          6           0       -3.710007   -1.840886    3.956484
     12          6           0       -2.028735   -2.694588    0.638044
     13          6           0       -0.960662   -3.613843    1.464135
     14          6           0        0.272674   -3.855031    0.697139
     15          8           0        0.520006   -3.398202   -0.393233
     16          8           0        1.110805   -4.664238    1.440529
     17          7           0       -4.881317    2.659927    1.486767
     18          6           0       -4.051474    2.463976    2.517301
     19          6           0       -3.752578    3.687153    3.252733
     20          6           0       -4.422264    4.685710    2.507119
     21          6           0       -5.209643    4.036458    1.392621
     22          6           0       -3.004131    3.711137    4.481605
     23          6           0       -4.373241    6.007919    2.922233
     24          8           0       -3.820376    6.560416    3.872104
     25          7           0       -6.767890    2.639193   -0.775497
     26          6           0       -6.861404    3.987263   -0.443344
     27          6           0       -7.859271    4.684734   -1.276576
     28          6           0       -8.394472    3.763892   -2.078963
     29          6           0       -7.618980    2.476597   -1.822884
     30          6           0       -8.296677    6.092639   -1.110234
     31          6           0       -9.456527    3.871909   -3.215420
     32          6           0       -8.718358    3.921532   -4.639915
     33          7           0       -6.435336   -0.093752   -1.046144
     34          6           0       -7.455289   -0.036312   -2.027964
     35          6           0       -7.622498   -1.317692   -2.730663
     36          6           0       -6.737090   -2.083590   -2.028234
     37          6           0       -6.054572   -1.424820   -0.986968
     38          6           0       -8.662928   -1.651630   -3.716727
     39          6           0       -6.287311   -3.598031   -2.014598
     40          8           0       -6.723126   -4.540519   -2.629303
     41          6           0       -5.128251   -3.496354   -0.955548
     42          6           0       -5.391748   -4.683406    0.105892
     43          8           0       -5.765964   -4.526128    1.211360
     44          8           0       -5.112876   -5.830522   -0.440787
     45          6           0       -5.352323   -7.013321    0.328563
     46          6           0        2.317937   -5.023809    0.714873
     47          6           0        3.473521   -4.161954    1.003316
     48          6           0        4.112043   -3.400075    0.145253
     49          6           0        3.861432   -3.402555   -1.355351
     50          6           0        5.175792   -2.399192    0.608341
     51          6           0        6.473031   -2.736509    0.025809
     52          6           0        7.641636   -1.780174    0.523684
     53          6           0        9.065469   -2.052473   -0.076072
     54          6           0        9.700130   -3.396545    0.199731
     55          6           0       10.043674   -0.808962    0.329801
     56          6           0       11.331575   -0.758765   -0.376737
     57          6           0       12.201632    0.325762    0.141357
     58          6           0       13.569481    0.439720   -0.554491
     59          6           0       14.374986   -0.828403   -0.294854
     60          6           0       14.358095    1.740119   -0.113294
     61          6           0       15.405395    2.121582   -1.026043
     62          6           0       16.047608    3.483623   -0.594874
     63          6           0       17.357318    3.869445   -1.446561
     64          6           0       17.086011    4.174300   -2.876579
     65          6           0       18.051754    5.170248   -0.806753
     66          1           0       -3.166165    1.202023    3.874103
     67          1           0       -6.253795    5.679194    0.790071
     68          1           0       -8.547565    1.050871   -3.345465
     69          1           0       -3.659685   -3.304601    1.848413
     70          1           0       -1.911038   -1.182908    2.592323
     71          1           0       -3.222107   -2.749914    4.371861
     72          1           0       -3.622153   -1.068322    4.655617
     73          1           0       -4.766060   -1.936604    3.586558
     74          1           0       -2.706271   -3.296737   -0.159038
     75          1           0       -1.805084   -1.586673    0.259700
     76          1           0       -0.758900   -2.888961    2.260347
     77          1           0       -1.340006   -4.726931    1.779625
     78          1           0       -1.871772    3.448040    4.381737
     79          1           0       -3.075162    4.604488    4.936886
     80          1           0       -3.326173    2.941227    5.395246
     81          1           0       -5.029864    6.686946    2.206760
     82          1           0      -10.062292    2.895103   -3.346597
     83          1           0      -10.186721    4.782321   -2.867282
     84          1           0       -9.452149    4.058580   -5.464787
     85          1           0       -8.055064    4.879876   -4.748365
     86          1           0       -7.947780    3.077549   -4.829426
     87          1           0       -8.447902   -1.125475   -4.584394
     88          1           0       -8.478604   -2.786424   -3.981734
     89          1           0       -9.757082   -1.459770   -3.154952
     90          1           0       -4.098701   -3.860409   -1.476365
     91          1           0        2.541171   -6.121094    1.039081
     92          1           0        2.116710   -5.139748   -0.321096
     93          1           0        4.140819   -4.208943    2.126801
     94          1           0        2.961971   -3.569298   -1.551382
     95          1           0        3.997673   -2.250155   -1.600115
     96          1           0        4.731283   -3.871592   -1.952237
     97          1           0        5.009289   -1.333122    0.383984
     98          1           0        5.025438   -2.185609    1.694810
     99          1           0        6.580397   -3.846546    0.401278
    100          1           0        6.311858   -2.658522   -1.097753
    101          1           0        7.399004   -0.669831    0.402319
    102          1           0        7.765227   -1.706580    1.685715
    103          1           0        8.808257   -2.115249   -1.193215
    104          1           0        8.884579   -4.089951   -0.054970
    105          1           0       10.521957   -3.757355   -0.503461
    106          1           0       10.066020   -3.620794    1.388636
    107          1           0        9.575282    0.237531    0.114938
    108          1           0       10.100638   -0.770493    1.481522
    109          1           0       11.855885   -1.686980   -0.346699
    110          1           0       11.296446   -0.838841   -1.509780
    111          1           0       11.772698    1.319953   -0.012083
    112          1           0       12.437385    0.354955    1.395464
    113          1           0       13.385184    0.609296   -1.485930
    114          1           0       14.846638   -0.806791    0.735917
    115          1           0       13.837010   -1.865936   -0.497712
    116          1           0       15.318314   -1.016939   -0.798706
    117          1           0       13.676168    2.652399    0.193881
    118          1           0       14.772754    1.556074    1.026578
    119          1           0       16.172316    1.339304   -1.164882
    120          1           0       14.900731    2.367977   -2.148492
    121          1           0       15.431271    4.395356   -0.773905
    122          1           0       16.494103    3.392128    0.483840
    123          1           0       18.072182    3.105511   -1.228838
    124          1           0       16.151912    4.863434   -2.808518
    125          1           0       17.965006    4.410674   -3.319717
    126          1           0       16.720433    3.114871   -3.419571
    127          1           0       18.503741    4.822904    0.125641
    128          1           0       18.840875    5.508285   -1.543665
    129          1           0       17.305919    5.932674   -0.817664
    130          1           0       -4.925668   -7.810658   -0.465573
    131          1           0       -6.357393   -7.073953    0.697094
    132          1           0       -4.764173   -6.761823    1.291305
    133          8           0       -7.979383    6.901857   -0.271626
    134          1           0       -9.155226    6.382846   -1.773897
 ---------------------------------------------------------------------

 SCF Done:  E(RCAM-B3LYP) =  -3043.41919744     A.U. after   15 cycles

 Excitation energies and oscillator strengths:

 Excited State   1:      Singlet-A      2.0798 eV  596.13 nm  f=0.1812  <S**2>=0.000
     243 -> 246        0.27072
     244 -> 245        0.64594
 This state for optimization and/or second-order correction.
 Total Energy, E(TD-HF/TD-KS) =  -3043.34276587
 Copying the excited state density for this state as the 1-particle RhoCI density.

 The electronic state is 1-A.
 Alpha  occ. eigenvalues --  -46.81098 -19.23286 -19.22602 -19.18978 -19.17954
 Alpha  occ. eigenvalues --  -19.17827 -19.17652 -19.15904 -14.39088 -14.37914
 Alpha  occ. eigenvalues --  -14.36988 -14.36281 -10.35373 -10.35330 -10.32920
 Alpha  occ. eigenvalues --  -10.30827 -10.29523 -10.28979 -10.28200 -10.27955
 Alpha  occ. eigenvalues --  -10.27393 -10.27331 -10.26898 -10.26426 -10.26283
 Alpha  occ. eigenvalues --  -10.26280 -10.26217 -10.26129 -10.26068 -10.25976
 Alpha  occ. eigenvalues --  -10.25734 -10.25188 -10.24874 -10.24783 -10.24484
 Alpha  occ. eigenvalues --  -10.24455 -10.24207 -10.23988 -10.23860 -10.23839
 Alpha  occ. eigenvalues --  -10.23517 -10.23055 -10.23038 -10.23000 -10.22954
 Alpha  occ. eigenvalues --  -10.22930 -10.22789 -10.22751 -10.22725 -10.22717
 Alpha  occ. eigenvalues --  -10.22700 -10.22383 -10.22265 -10.22160 -10.22082
 Alpha  occ. eigenvalues --  -10.21910 -10.21850 -10.21519 -10.21243 -10.21023
 Alpha  occ. eigenvalues --  -10.21015 -10.20899 -10.20819 -10.20445 -10.20169
 Alpha  occ. eigenvalues --  -10.20074  -3.09815  -1.84737  -1.84310  -1.84218
 Alpha  occ. eigenvalues --   -1.16483  -1.13122  -1.08684  -1.07654  -1.07262
 Alpha  occ. eigenvalues --   -1.05400  -1.04843  -1.00520  -0.99410  -0.98894
 Alpha  occ. eigenvalues --   -0.98119  -0.88359  -0.87210  -0.86544  -0.85488
 Alpha  occ. eigenvalues --   -0.84642  -0.84102  -0.84038  -0.83652  -0.83531
 Alpha  occ. eigenvalues --   -0.83022  -0.82628  -0.81837  -0.80641  -0.80090
 Alpha  occ. eigenvalues --   -0.78889  -0.78336  -0.77925  -0.77083  -0.76447
 Alpha  occ. eigenvalues --   -0.75832  -0.75258  -0.74512  -0.72509  -0.72182
 Alpha  occ. eigenvalues --   -0.71245  -0.70136  -0.69803  -0.69579  -0.69262
 Alpha  occ. eigenvalues --   -0.68833  -0.68713  -0.67554  -0.66827  -0.66065
 Alpha  occ. eigenvalues --   -0.65523  -0.64367  -0.63013  -0.62295  -0.61818
 Alpha  occ. eigenvalues --   -0.61037  -0.60855  -0.59955  -0.59133  -0.59108
 Alpha  occ. eigenvalues --   -0.58991  -0.57731  -0.57376  -0.57246  -0.57159
 Alpha  occ. eigenvalues --   -0.55968  -0.55318  -0.55185  -0.54742  -0.54550
 Alpha  occ. eigenvalues --   -0.53902  -0.53522  -0.52709  -0.52447  -0.52240
 Alpha  occ. eigenvalues --   -0.51952  -0.51435  -0.51156  -0.50568  -0.50504
 Alpha  occ. eigenvalues --   -0.50357  -0.49907  -0.49401  -0.49387  -0.49181
 Alpha  occ. eigenvalues --   -0.48917  -0.48417  -0.48176  -0.47592  -0.47369
 Alpha  occ. eigenvalues --   -0.47163  -0.47087  -0.46734  -0.46719  -0.46551
 Alpha  occ. eigenvalues --   -0.46379  -0.45992  -0.45941  -0.45731  -0.45706
 Alpha  occ. eigenvalues --   -0.45298  -0.45237  -0.44926  -0.44814  -0.44662
 Alpha  occ. eigenvalues --   -0.44573  -0.44395  -0.44298  -0.44131  -0.43880
 Alpha  occ. eigenvalues --   -0.43498  -0.43420  -0.43240  -0.42852  -0.42619
 Alpha  occ. eigenvalues --   -0.42534  -0.42271  -0.42081  -0.41901  -0.41818
 Alpha  occ. eigenvalues --   -0.41741  -0.41689  -0.41377  -0.41160  -0.40968
 Alpha  occ. eigenvalues --   -0.40881  -0.40735  -0.40535  -0.40530  -0.40313
 Alpha  occ. eigenvalues --   -0.40050  -0.39824  -0.39723  -0.39388  -0.39323
 Alpha  occ. eigenvalues --   -0.39251  -0.39082  -0.38693  -0.38399  -0.38106
 Alpha  occ. eigenvalues --   -0.37782  -0.37522  -0.37461  -0.37226  -0.36919
 Alpha  occ. eigenvalues --   -0.36421  -0.36345  -0.35959  -0.35719  -0.35565
 Alpha  occ. eigenvalues --   -0.35378  -0.35264  -0.35044  -0.34942  -0.34246
 Alpha  occ. eigenvalues --   -0.34218  -0.33958  -0.33637  -0.33244  -0.33138
 Alpha  occ. eigenvalues --   -0.32894  -0.32488  -0.32424  -0.32084  -0.31815
 Alpha  occ. eigenvalues --   -0.31566  -0.31363  -0.31124  -0.30131  -0.30008
 Alpha  occ. eigenvalues --   -0.29211  -0.28398  -0.28263  -0.27958  -0.27558
 Alpha  occ. eigenvalues --   -0.27424  -0.26368  -0.23122  -0.21486
 Alpha virt. eigenvalues --   -0.08104  -0.06363  -0.01536  -0.00898   0.00491
 Alpha virt. eigenvalues --    0.02719   0.03074   0.03411   0.03702   0.04711
 Alpha virt. eigenvalues --    0.05234   0.05904   0.07077   0.08232   0.08532

 Mulliken charges:
               1
     1  Mg   0.827625
     2  C    0.043379
     3  C   -0.220500
     4  C   -0.161713
     5  C   -0.190141
     6  N   -0.625846
     7  C    0.336425
     8  C   -0.159380
     9  C   -0.116283
    10  C    0.298310
    11  C   -0.292427
    12  C   -0.148096
    13  C   -0.266063
    14  C    0.617593
    15  O   -0.453916
    16  O   -0.473572
    17  N   -0.700016
    18  C    0.302049
    19  C    0.115434
    20  C   -0.025612
    21  C    0.320683
    22  C   -0.394997
    23  C    0.210152
    24  O   -0.441333
    25  N   -0.641690
    26  C    0.266736
    27  C    0.023663
    28  C   -0.002391
    29  C    0.258421
    30  C    0.250663
    31  C   -0.229894
    32  C   -0.315104
    33  N   -0.734026
    34  C    0.287310
    35  C    0.044335
    36  C   -0.062313
    37  C    0.326545
    38  C   -0.374831
    39  C    0.416702
    40  O   -0.436165
    41  C   -0.345075
    42  C    0.587795
    43  O   -0.452993
    44  O   -0.408654
    45  C   -0.092009
    46  C   -0.009303
    47  C   -0.115533
    48  C    0.133754
    49  C   -0.349415
    50  C   -0.226140
    51  C   -0.162531
    52  C   -0.180882
    53  C   -0.049710
    54  C   -0.293673
    55  C   -0.165769
    56  C   -0.169328
    57  C   -0.155651
    58  C   -0.032496
    59  C   -0.317463
    60  C   -0.168531
    61  C   -0.145821
    62  C   -0.163294
    63  C   -0.085712
    64  C   -0.269099
    65  C   -0.310878
    66  H    0.067796
    67  H    0.141363
    68  H    0.086144
    69  H    0.110881
    70  H    0.105323
    71  H    0.112699
    72  H    0.124234
    73  H    0.132750
    74  H    0.091399
    75  H    0.108172
    76  H    0.151355
    77  H    0.135734
    78  H    0.122987
    79  H    0.161627
    80  H    0.097296
    81  H    0.032502
    82  H    0.111385
    83  H    0.100698
    84  H    0.115559
    85  H    0.103004
    86  H    0.115256
    87  H    0.142003
    88  H    0.144271
    89  H    0.125321
    90  H    0.147235
    91  H    0.100582
    92  H    0.133851
    93  H    0.058489
    94  H    0.135226
    95  H    0.093617
    96  H    0.119500
    97  H    0.098227
    98  H    0.092215
    99  H    0.093172
   100  H    0.097599
   101  H    0.090893
   102  H    0.077797
   103  H    0.074647
   104  H    0.104032
   105  H    0.102144
   106  H    0.071020
   107  H    0.073216
   108  H    0.088291
   109  H    0.101016
   110  H    0.084436
   111  H    0.088536
   112  H    0.050230
   113  H    0.094423
   114  H    0.097935
   115  H    0.088437
   116  H    0.097556
   117  H    0.079084
   118  H    0.058622
   119  H    0.101898
   120  H    0.062419
   121  H    0.087187
   122  H    0.077614
   123  H    0.084976
   124  H    0.091442
   125  H    0.115152
   126  H    0.064886
   127  H    0.103805
   128  H    0.088180
   129  H    0.104856
   130  H    0.132582
   131  H    0.149777
   132  H    0.119561
   133  O   -0.402847
   134  H    0.055420
 Sum of Mulliken charges =   0.00000

 Dipole moment (field-independent basis, Debye):
    X=              1.4499    Y=             -7.2448    Z=             -2.9574  Tot=              7.9584
 Quadrupole moment (field-independent basis, Debye-Ang):
   XX=           -377.0534   YY=           -440.2811   ZZ=           -396.3034
   XY=             19.8352   XZ=             22.3548   YZ=            -33.7838

 Normal termination of Gaussian 09 at Mon Oct  7 10:46:08 2019.
