 Gaussian 09, Revision D.01,
 Gaussian 09:  ES64L-G09RevD.01 24-Apr-2013

 ----------------------------------------------------------------------
 # td=(NStates=1) iop(3/107=0140000000,3/108=0140000000) iop(3/107=0140
 000000,3/108=0140000000) CAM-B3LYP/6-31G(d,p)
 ----------------------------------------------------------------------

 --
 TD
 --
 Symbolic Z-matrix:
 Charge =  0 Multiplicity = 1

                         Standard orientation:
 ---------------------------------------------------------------------
 Center     Atomic      Atomic             Coordinates (Angstroms)
 Number     Number       Type             X           Y           Z
 ---------------------------------------------------------------------
      1         12           0       -5.637442    1.304834    0.168490
      2          6           0       -4.964960   -2.144154   -0.402039
      3          6           0       -3.418761    1.207777    2.720971
      4          6           0       -6.255301    4.517600    0.606215
      5          6           0       -8.032780    1.108064   -2.390691
      6          7           0       -4.380322   -0.273303    0.897050
      7          6           0       -4.219708   -1.610896    0.514095
      8          6           0       -3.174229   -2.269473    1.445538
      9          6           0       -2.867800   -1.335576    2.500770
     10          6           0       -3.590976   -0.105760    2.045265
     11          6           0       -3.275357   -1.790383    3.926147
     12          6           0       -1.948495   -2.808271    0.669333
     13          6           0       -0.952360   -3.542895    1.396308
     14          6           0        0.291099   -3.833033    0.640806
     15          8           0        0.527577   -3.420981   -0.472525
     16          8           0        1.080898   -4.679326    1.332685
     17          7           0       -5.013594    2.638285    1.523117
     18          6           0       -4.082002    2.381562    2.478911
     19          6           0       -3.862418    3.639722    3.224173
     20          6           0       -4.633949    4.613427    2.612344
     21          6           0       -5.360085    3.947343    1.510105
     22          6           0       -2.870058    3.643240    4.420551
     23          6           0       -4.687308    5.986983    2.967234
     24          8           0       -3.853868    6.522331    3.729945
     25          7           0       -6.888852    2.555023   -0.676794
     26          6           0       -7.024359    3.967729   -0.332576
     27          6           0       -8.089631    4.614510   -1.139896
     28          6           0       -8.537897    3.631397   -1.947020
     29          6           0       -7.841509    2.363389   -1.721722
     30          6           0       -8.580231    5.963294   -1.024319
     31          6           0       -9.569551    3.693028   -3.041316
     32          6           0       -8.901520    4.241219   -4.436931
     33          7           0       -6.395520   -0.140076   -1.078672
     34          6           0       -7.321392   -0.000247   -2.128486
     35          6           0       -7.435926   -1.295496   -2.820002
     36          6           0       -6.596853   -2.190501   -2.156244
     37          6           0       -5.980264   -1.409603   -1.180316
     38          6           0       -8.389009   -1.672795   -3.911694
     39          6           0       -6.147298   -3.644709   -2.039823
     40          8           0       -6.464202   -4.670716   -2.547082
     41          6           0       -5.002669   -3.578338   -0.862123
     42          6           0       -5.373914   -4.611874    0.161391
     43          8           0       -5.855530   -4.429438    1.279603
     44          8           0       -5.043049   -5.882371   -0.288622
     45          6           0       -5.318883   -6.903131    0.616371
     46          6           0        2.377733   -5.192461    0.598069
     47          6           0        3.444048   -4.197472    0.961641
     48          6           0        4.174180   -3.345520    0.160286
     49          6           0        3.777272   -3.178033   -1.367879
     50          6           0        5.274823   -2.432370    0.678314
     51          6           0        6.623660   -2.662461    0.087111
     52          6           0        7.703215   -1.724958    0.576473
     53          6           0        9.023629   -1.873541   -0.115673
     54          6           0        9.537677   -3.307399    0.129923
     55          6           0       10.001274   -0.847145    0.331729
     56          6           0       11.425755   -0.938578   -0.306095
     57          6           0       12.200677    0.340269    0.165625
     58          6           0       13.625785    0.519742   -0.525090
     59          6           0       14.564195   -0.664630   -0.154636
     60          6           0       14.221811    1.862343   -0.078644
     61          6           0       15.379413    2.214331   -0.962910
     62          6           0       15.982354    3.638711   -0.683649
     63          6           0       17.274429    4.003459   -1.328034
     64          6           0       17.191034    4.000758   -2.865889
     65          6           0       17.968644    5.251551   -0.791031
     66          1           0       -3.065735    1.157581    3.836522
     67          1           0       -6.481494    5.580181    0.666869
     68          1           0       -8.796564    1.219075   -3.320848
     69          1           0       -3.936819   -3.102531    1.685662
     70          1           0       -1.942778   -1.128943    2.598077
     71          1           0       -2.740298   -2.762909    4.246594
     72          1           0       -3.007257   -1.072466    4.762976
     73          1           0       -4.477601   -2.101549    4.019148
     74          1           0       -2.509118   -3.446342   -0.084747
     75          1           0       -1.540594   -1.885307    0.159470
     76          1           0       -0.840246   -3.145221    2.449082
     77          1           0       -1.405026   -4.521935    1.429870
     78          1           0       -1.881570    3.502395    3.867203
     79          1           0       -2.913347    4.858092    4.817818
     80          1           0       -2.953364    3.071903    5.214000
     81          1           0       -5.750456    6.425801    2.564108
     82          1           0      -10.151751    2.654357   -3.121558
     83          1           0      -10.284339    4.509664   -2.879874
     84          1           0       -9.699085    4.324272   -5.284247
     85          1           0       -8.378831    5.275262   -4.486285
     86          1           0       -8.307364    3.499280   -4.898556
     87          1           0       -8.267281   -1.322804   -4.788566
     88          1           0       -8.221528   -2.661678   -4.065768
     89          1           0       -9.564674   -1.496895   -3.502590
     90          1           0       -4.213645   -3.956895   -1.419712
     91          1           0        2.617487   -6.060872    0.861387
     92          1           0        2.226138   -5.040710   -0.407698
     93          1           0        3.725785   -4.109267    2.017023
     94          1           0        2.684426   -3.436340   -1.625449
     95          1           0        3.999916   -2.179534   -1.822795
     96          1           0        4.433627   -3.746853   -2.028329
     97          1           0        4.973694   -1.441641    0.440805
     98          1           0        5.342923   -2.267459    1.775935
     99          1           0        6.890994   -3.789998    0.343472
    100          1           0        6.565746   -2.480834   -0.949799
    101          1           0        7.407584   -0.671239    0.228421
    102          1           0        7.835314   -1.901792    1.715157
    103          1           0        8.895699   -1.810203   -1.243998
    104          1           0        8.732235   -4.137909   -0.093193
    105          1           0       10.585777   -3.544485   -0.362087
    106          1           0        9.575489   -3.395368    1.162904
    107          1           0        9.539372    0.143149    0.263590
    108          1           0       10.327568   -1.144120    1.316063
    109          1           0       11.909824   -1.888554    0.302561
    110          1           0       11.463243   -0.754851   -1.353261
    111          1           0       11.512351    1.122820   -0.109818
    112          1           0       12.314347    0.356094    1.188345
    113          1           0       13.608497    0.382720   -1.737350
    114          1           0       14.905874   -0.878667    0.756572
    115          1           0       14.122686   -1.462840   -0.594679
    116          1           0       15.445962   -0.597558   -0.685062
    117          1           0       13.502607    2.497981   -0.096221
    118          1           0       14.542843    1.827590    0.891058
    119          1           0       16.218976    1.446862   -0.973981
    120          1           0       15.151960    2.028558   -2.027535
    121          1           0       15.179086    4.217315   -1.044188
    122          1           0       16.151115    3.611510    0.395955
    123          1           0       17.999245    3.292128   -1.107490
    124          1           0       16.513276    4.742017   -3.370005
    125          1           0       18.109231    4.208985   -3.373332
    126          1           0       16.876426    3.136341   -3.303194
    127          1           0       18.286125    5.124630    0.262483
    128          1           0       19.007539    5.295249   -1.390932
    129          1           0       17.454001    6.083894   -0.994435
    130          1           0       -4.970359   -7.727742   -0.091886
    131          1           0       -6.437958   -7.049881    1.223657
    132          1           0       -4.532277   -7.020898    1.465894
    133          8           0       -7.917241    6.896401   -0.502648
    134          1           0       -9.294513    6.306193   -1.800689
 ---------------------------------------------------------------------

 SCF Done:  E(RCAM-B3LYP) =  -3043.43277660     A.U. after   16 cycles

 Excitation energies and oscillator strengths:

 Excited State   1:      Singlet-A      1.9154 eV  647.31 nm  f=0.2336  <S**2>=0.000
     243 -> 246       -0.18345
     244 -> 245        0.67520
 This state for optimization and/or second-order correction.
 Total Energy, E(TD-HF/TD-KS) =  -3043.36238756
 Copying the excited state density for this state as the 1-particle RhoCI density.

 The electronic state is 1-A.
 Alpha  occ. eigenvalues --  -46.80447 -19.23387 -19.21794 -19.19233 -19.18075
 Alpha  occ. eigenvalues --  -19.17399 -19.17261 -19.16800 -14.39308 -14.37190
 Alpha  occ. eigenvalues --  -14.36968 -14.36567 -10.35802 -10.34654 -10.33500
 Alpha  occ. eigenvalues --  -10.30800 -10.30760 -10.29192 -10.29186 -10.26795
 Alpha  occ. eigenvalues --  -10.26776 -10.26690 -10.26546 -10.26544 -10.26433
 Alpha  occ. eigenvalues --  -10.26360 -10.26144 -10.25813 -10.25602 -10.25515
 Alpha  occ. eigenvalues --  -10.25173 -10.24996 -10.24964 -10.24828 -10.24428
 Alpha  occ. eigenvalues --  -10.23950 -10.23780 -10.23597 -10.23508 -10.23474
 Alpha  occ. eigenvalues --  -10.23411 -10.23139 -10.23069 -10.23044 -10.22936
 Alpha  occ. eigenvalues --  -10.22696 -10.22665 -10.22244 -10.21931 -10.21906
 Alpha  occ. eigenvalues --  -10.21872 -10.21776 -10.21766 -10.21418 -10.21385
 Alpha  occ. eigenvalues --  -10.21298 -10.20609 -10.20412 -10.20342 -10.20223
 Alpha  occ. eigenvalues --  -10.19883 -10.19854 -10.19637 -10.18711 -10.18076
 Alpha  occ. eigenvalues --  -10.16963  -3.09267  -1.84185  -1.83750  -1.83686
 Alpha  occ. eigenvalues --   -1.13768  -1.11872  -1.10190  -1.05075  -1.05051
 Alpha  occ. eigenvalues --   -1.04944  -1.03586  -1.00518  -0.99989  -0.98871
 Alpha  occ. eigenvalues --   -0.96646  -0.88715  -0.87491  -0.86690  -0.85349
 Alpha  occ. eigenvalues --   -0.85267  -0.84731  -0.84315  -0.84271  -0.83587
 Alpha  occ. eigenvalues --   -0.83295  -0.82775  -0.82668  -0.81292  -0.80345
 Alpha  occ. eigenvalues --   -0.79271  -0.78902  -0.77748  -0.77175  -0.76747
 Alpha  occ. eigenvalues --   -0.75509  -0.75081  -0.74173  -0.72490  -0.72412
 Alpha  occ. eigenvalues --   -0.72028  -0.71478  -0.70876  -0.70226  -0.69790
 Alpha  occ. eigenvalues --   -0.69600  -0.69189  -0.67976  -0.66814  -0.66419
 Alpha  occ. eigenvalues --   -0.66256  -0.64962  -0.64393  -0.62931  -0.62691
 Alpha  occ. eigenvalues --   -0.61993  -0.60267  -0.60181  -0.59656  -0.58671
 Alpha  occ. eigenvalues --   -0.58631  -0.58468  -0.57974  -0.57793  -0.56894
 Alpha  occ. eigenvalues --   -0.56407  -0.55870  -0.55585  -0.55156  -0.54886
 Alpha  occ. eigenvalues --   -0.54708  -0.54577  -0.53062  -0.52933  -0.52578
 Alpha  occ. eigenvalues --   -0.52045  -0.51809  -0.51558  -0.51262  -0.50978
 Alpha  occ. eigenvalues --   -0.50657  -0.50585  -0.49946  -0.49810  -0.49381
 Alpha  occ. eigenvalues --   -0.48998  -0.48763  -0.48268  -0.48139  -0.47890
 Alpha  occ. eigenvalues --   -0.47682  -0.47388  -0.47237  -0.47164  -0.47125
 Alpha  occ. eigenvalues --   -0.46780  -0.46488  -0.46328  -0.46075  -0.45791
 Alpha  occ. eigenvalues --   -0.45553  -0.45480  -0.45315  -0.45085  -0.44829
 Alpha  occ. eigenvalues --   -0.44670  -0.44268  -0.44007  -0.43891  -0.43748
 Alpha  occ. eigenvalues --   -0.43672  -0.43402  -0.43253  -0.42847  -0.42702
 Alpha  occ. eigenvalues --   -0.42619  -0.42547  -0.42202  -0.41977  -0.41836
 Alpha  occ. eigenvalues --   -0.41555  -0.41169  -0.41123  -0.41072  -0.40896
 Alpha  occ. eigenvalues --   -0.40730  -0.40420  -0.40278  -0.39944  -0.39782
 Alpha  occ. eigenvalues --   -0.39666  -0.39396  -0.39249  -0.39155  -0.39091
 Alpha  occ. eigenvalues --   -0.39015  -0.38751  -0.38651  -0.38365  -0.38086
 Alpha  occ. eigenvalues --   -0.38010  -0.37994  -0.37652  -0.37553  -0.37513
 Alpha  occ. eigenvalues --   -0.37278  -0.36792  -0.36682  -0.35949  -0.35830
 Alpha  occ. eigenvalues --   -0.35661  -0.35517  -0.35048  -0.34888  -0.34748
 Alpha  occ. eigenvalues --   -0.34625  -0.33942  -0.33666  -0.33476  -0.33369
 Alpha  occ. eigenvalues --   -0.33098  -0.32886  -0.32699  -0.32298  -0.32204
 Alpha  occ. eigenvalues --   -0.31626  -0.31334  -0.30543  -0.30520  -0.29928
 Alpha  occ. eigenvalues --   -0.29089  -0.28921  -0.28661  -0.28178  -0.27837
 Alpha  occ. eigenvalues --   -0.27491  -0.27082  -0.24103  -0.20993
 Alpha virt. eigenvalues --   -0.08767  -0.06706  -0.01873  -0.01781  -0.00102
 Alpha virt. eigenvalues --    0.01953   0.02686   0.03645   0.04068   0.04333
 Alpha virt. eigenvalues --    0.04816   0.05774   0.07718   0.08109   0.09042

 Mulliken charges:
               1
     1  Mg   0.829591
     2  C    0.088713
     3  C   -0.207364
     4  C   -0.198698
     5  C   -0.179366
     6  N   -0.617152
     7  C    0.285463
     8  C   -0.179357
     9  C   -0.082814
    10  C    0.303329
    11  C   -0.315971
    12  C   -0.161733
    13  C   -0.260766
    14  C    0.619146
    15  O   -0.469859
    16  O   -0.497960
    17  N   -0.739606
    18  C    0.339683
    19  C    0.034258
    20  C   -0.002978
    21  C    0.343644
    22  C   -0.378438
    23  C    0.227026
    24  O   -0.434733
    25  N   -0.712068
    26  C    0.270188
    27  C    0.057084
    28  C    0.038135
    29  C    0.290838
    30  C    0.200086
    31  C   -0.267127
    32  C   -0.327364
    33  N   -0.710093
    34  C    0.310510
    35  C   -0.042662
    36  C    0.047689
    37  C    0.295445
    38  C   -0.353740
    39  C    0.370525
    40  O   -0.411910
    41  C   -0.346046
    42  C    0.631828
    43  O   -0.477847
    44  O   -0.429209
    45  C   -0.078325
    46  C    0.029702
    47  C   -0.155937
    48  C    0.146444
    49  C   -0.402690
    50  C   -0.238174
    51  C   -0.153935
    52  C   -0.161905
    53  C   -0.048457
    54  C   -0.319492
    55  C   -0.155123
    56  C   -0.188406
    57  C   -0.182267
    58  C   -0.076983
    59  C   -0.320461
    60  C   -0.132484
    61  C   -0.209657
    62  C   -0.153874
    63  C   -0.048689
    64  C   -0.330522
    65  C   -0.304087
    66  H    0.088687
    67  H    0.122610
    68  H    0.102520
    69  H    0.132460
    70  H    0.119523
    71  H    0.108070
    72  H    0.108815
    73  H    0.107823
    74  H    0.097411
    75  H    0.113955
    76  H    0.130831
    77  H    0.148105
    78  H    0.130692
    79  H    0.134785
    80  H    0.135444
    81  H    0.070954
    82  H    0.105147
    83  H    0.119832
    84  H    0.095177
    85  H    0.120955
    86  H    0.125599
    87  H    0.136113
    88  H    0.144624
    89  H    0.098901
    90  H    0.170633
    91  H    0.126464
    92  H    0.137639
    93  H    0.081376
    94  H    0.148970
    95  H    0.107000
    96  H    0.116782
    97  H    0.109924
    98  H    0.091489
    99  H    0.081908
   100  H    0.101623
   101  H    0.080192
   102  H    0.080064
   103  H    0.071851
   104  H    0.086412
   105  H    0.093903
   106  H    0.104004
   107  H    0.082634
   108  H    0.091856
   109  H    0.085605
   110  H    0.099354
   111  H    0.087466
   112  H    0.097926
   113  H    0.055110
   114  H    0.104968
   115  H    0.107006
   116  H    0.100618
   117  H    0.093975
   118  H    0.098020
   119  H    0.076245
   120  H    0.084226
   121  H    0.097548
   122  H    0.082508
   123  H    0.093762
   124  H    0.086041
   125  H    0.097109
   126  H    0.111016
   127  H    0.097595
   128  H    0.073566
   129  H    0.115497
   130  H    0.118354
   131  H    0.115639
   132  H    0.103263
   133  O   -0.419094
   134  H    0.079923
 Sum of Mulliken charges =   0.00000

 Dipole moment (field-independent basis, Debye):
    X=              1.6959    Y=             -5.2351    Z=             -1.5117  Tot=              5.7068
 Quadrupole moment (field-independent basis, Debye-Ang):
   XX=           -373.6961   YY=           -448.2219   ZZ=           -386.3187
   XY=              1.2706   XZ=             28.4649   YZ=            -31.3781

 Normal termination of Gaussian 09 at Wed Oct  9 08:30:32 2019.
