 Gaussian 09, Revision D.01,
 Gaussian 09:  ES64L-G09RevD.01 24-Apr-2013

 ----------------------------------------------------------------------
 # td=(NStates=1) iop(3/107=0140000000,3/108=0140000000) iop(3/107=0140
 000000,3/108=0140000000) CAM-B3LYP/6-31G(d,p)
 ----------------------------------------------------------------------

 --
 TD
 --
 Symbolic Z-matrix:
 Charge =  0 Multiplicity = 1

                         Standard orientation:
 ---------------------------------------------------------------------
 Center     Atomic      Atomic             Coordinates (Angstroms)
 Number     Number       Type             X           Y           Z
 ---------------------------------------------------------------------
      1         12           0       -5.480010    1.225851    0.173272
      2          6           0       -5.060167   -2.153865   -0.306372
      3          6           0       -3.227306    1.264925    2.708162
      4          6           0       -6.238511    4.558317    0.611959
      5          6           0       -8.008191    1.204571   -2.377495
      6          7           0       -4.229280   -0.223394    0.990038
      7          6           0       -4.313895   -1.574027    0.723451
      8          6           0       -3.153446   -2.292972    1.573190
      9          6           0       -2.648895   -1.243988    2.459389
     10          6           0       -3.353675    0.074440    2.037037
     11          6           0       -3.184076   -1.493354    3.959867
     12          6           0       -1.919022   -2.742947    0.703984
     13          6           0       -0.900789   -3.594072    1.585499
     14          6           0        0.279541   -3.975242    0.565056
     15          8           0        0.421798   -3.571166   -0.595930
     16          8           0        1.101706   -4.705435    1.285036
     17          7           0       -4.901268    2.718123    1.445199
     18          6           0       -3.963436    2.487352    2.463107
     19          6           0       -3.738066    3.745726    3.129446
     20          6           0       -4.546353    4.662017    2.541880
     21          6           0       -5.295188    3.920430    1.505384
     22          6           0       -2.742227    3.744125    4.319626
     23          6           0       -4.835528    6.011483    2.943083
     24          8           0       -4.038702    6.677938    3.759121
     25          7           0       -6.821270    2.635851   -0.787032
     26          6           0       -6.910283    3.933090   -0.424896
     27          6           0       -7.937448    4.608159   -1.249798
     28          6           0       -8.365918    3.626315   -2.053799
     29          6           0       -7.725660    2.433943   -1.749137
     30          6           0       -8.289429    6.049206   -1.297535
     31          6           0       -9.434006    3.836629   -3.131733
     32          6           0       -8.811237    3.880190   -4.537986
     33          7           0       -6.464971   -0.175307   -1.058232
     34          6           0       -7.376671   -0.093001   -2.075762
     35          6           0       -7.642405   -1.372805   -2.621599
     36          6           0       -6.643310   -2.170717   -1.987628
     37          6           0       -6.073774   -1.393280   -1.080749
     38          6           0       -8.690689   -1.741917   -3.608339
     39          6           0       -6.159621   -3.549370   -1.948354
     40          8           0       -6.515969   -4.555432   -2.606593
     41          6           0       -5.140993   -3.594377   -0.763020
     42          6           0       -5.416103   -4.572673    0.255988
     43          8           0       -6.024825   -4.447646    1.317562
     44          8           0       -5.095745   -5.822287   -0.300392
     45          6           0       -5.319093   -6.944612    0.620393
     46          6           0        2.332492   -5.162829    0.656708
     47          6           0        3.368495   -4.184629    0.915157
     48          6           0        4.086442   -3.405537    0.094092
     49          6           0        3.794508   -3.328576   -1.364493
     50          6           0        5.226410   -2.549517    0.566892
     51          6           0        6.543011   -2.792272   -0.127621
     52          6           0        7.547900   -1.908517    0.561216
     53          6           0        9.034648   -1.965470   -0.157377
     54          6           0        9.500911   -3.369716    0.123111
     55          6           0        9.938110   -1.010956    0.351164
     56          6           0       11.313729   -0.847887   -0.316464
     57          6           0       12.115948    0.253927    0.093481
     58          6           0       13.483694    0.532683   -0.603855
     59          6           0       14.559032   -0.613402   -0.312455
     60          6           0       14.212681    1.882316   -0.147970
     61          6           0       15.523721    2.219808   -0.872054
     62          6           0       16.058054    3.621141   -0.475800
     63          6           0       17.297502    3.877148   -1.275488
     64          6           0       16.985289    4.047328   -2.801195
     65          6           0       17.791983    5.211122   -0.889654
     66          1           0       -2.607091    1.248746    3.536117
     67          1           0       -6.414464    5.661462    0.745562
     68          1           0       -8.530976    1.346757   -3.302719
     69          1           0       -3.545783   -3.215189    2.211880
     70          1           0       -1.587195   -1.071019    2.478364
     71          1           0       -2.778138   -2.557370    4.182301
     72          1           0       -2.774866   -1.036894    4.874256
     73          1           0       -4.340042   -1.819844    3.978540
     74          1           0       -2.317730   -3.367789   -0.110768
     75          1           0       -1.297022   -1.881907    0.108164
     76          1           0       -0.438976   -2.805056    2.309552
     77          1           0       -1.263846   -4.565816    2.010434
     78          1           0       -1.790310    3.409306    4.297536
     79          1           0       -2.443259    4.811287    4.771861
     80          1           0       -3.278862    3.000051    5.066449
     81          1           0       -5.679795    6.534812    2.488213
     82          1           0      -10.087527    3.023715   -3.189815
     83          1           0       -9.849434    4.864671   -2.601381
     84          1           0       -9.773851    4.154180   -5.132734
     85          1           0       -7.866369    4.642911   -4.682858
     86          1           0       -8.238637    3.094909   -4.856873
     87          1           0       -8.435014   -1.137288   -4.600692
     88          1           0       -8.756492   -2.895499   -3.820617
     89          1           0       -9.731292   -1.349581   -3.268046
     90          1           0       -4.207816   -3.936581   -1.224589
     91          1           0        2.465377   -6.080053    1.150937
     92          1           0        2.172593   -5.218861   -0.473743
     93          1           0        3.544713   -4.185787    1.972950
     94          1           0        2.881009   -4.023537   -1.668453
     95          1           0        3.745470   -2.282174   -1.878066
     96          1           0        4.535680   -3.908056   -1.907798
     97          1           0        4.934930   -1.625827    0.454488
     98          1           0        5.309109   -2.576588    1.770513
     99          1           0        6.642743   -3.875565   -0.159172
    100          1           0        6.507114   -2.344599   -1.221418
    101          1           0        7.195051   -0.707444    0.604181
    102          1           0        7.917957   -2.064274    1.524702
    103          1           0        9.040439   -2.016948   -1.304792
    104          1           0        8.721644   -4.146515   -0.358521
    105          1           0       10.547800   -3.539135   -0.397178
    106          1           0        9.390380   -3.618235    1.269714
    107          1           0        9.373295    0.036423    0.212725
    108          1           0       10.169786   -1.089579    1.369310
    109          1           0       11.892205   -1.735576   -0.237972
    110          1           0       11.030999   -0.819420   -1.373549
    111          1           0       11.430305    1.251546    0.077208
    112          1           0       12.353209    0.057976    1.158659
    113          1           0       13.321776    0.571280   -1.571939
    114          1           0       14.781756   -0.586162    0.765777
    115          1           0       14.237227   -1.519237   -0.719373
    116          1           0       15.326455   -0.409694   -1.004735
    117          1           0       13.429899    2.737813   -0.234863
    118          1           0       14.367071    2.027962    0.864276
    119          1           0       16.334863    1.701283   -0.429347
    120          1           0       15.294184    2.161869   -2.015894
    121          1           0       15.352496    4.514810   -0.539908
    122          1           0       16.236245    3.382750    0.667919
    123          1           0       17.914202    3.177294   -1.032628
    124          1           0       16.118808    4.742937   -2.904647
    125          1           0       17.829576    4.322942   -3.530398
    126          1           0       16.720615    2.906178   -3.470828
    127          1           0       18.110499    5.208517    0.122162
    128          1           0       18.685081    5.815891   -1.446914
    129          1           0       16.777676    5.898088   -0.876167
    130          1           0       -5.026006   -7.846084    0.065479
    131          1           0       -6.495998   -7.060929    0.745807
    132          1           0       -4.833033   -6.784195    1.703956
    133          8           0       -7.867302    6.862005   -0.507861
    134          1           0       -8.992595    6.231806   -2.085366
 ---------------------------------------------------------------------

 SCF Done:  E(RCAM-B3LYP) =  -3043.41519742     A.U. after   16 cycles

 Excitation energies and oscillator strengths:

 Excited State   1:      Singlet-A      1.9669 eV  630.36 nm  f=0.2412  <S**2>=0.000
     243 -> 246       -0.22885
     244 -> 245        0.65978
 This state for optimization and/or second-order correction.
 Total Energy, E(TD-HF/TD-KS) =  -3043.34291564
 Copying the excited state density for this state as the 1-particle RhoCI density.

 The electronic state is 1-A.
 Alpha  occ. eigenvalues --  -46.82889 -19.22973 -19.21900 -19.18245 -19.17552
 Alpha  occ. eigenvalues --  -19.17234 -19.16880 -19.15907 -14.39267 -14.37387
 Alpha  occ. eigenvalues --  -14.36854 -14.36167 -10.35202 -10.34942 -10.31605
 Alpha  occ. eigenvalues --  -10.31079 -10.29849 -10.28524 -10.28082 -10.27995
 Alpha  occ. eigenvalues --  -10.27485 -10.27345 -10.26545 -10.26397 -10.26298
 Alpha  occ. eigenvalues --  -10.25485 -10.25228 -10.25158 -10.24970 -10.24944
 Alpha  occ. eigenvalues --  -10.24841 -10.24681 -10.24652 -10.24643 -10.24597
 Alpha  occ. eigenvalues --  -10.24545 -10.24486 -10.24163 -10.23959 -10.23852
 Alpha  occ. eigenvalues --  -10.23762 -10.23585 -10.23482 -10.23346 -10.23230
 Alpha  occ. eigenvalues --  -10.23142 -10.23014 -10.22983 -10.22955 -10.22517
 Alpha  occ. eigenvalues --  -10.22412 -10.22382 -10.21868 -10.21694 -10.21494
 Alpha  occ. eigenvalues --  -10.21430 -10.21333 -10.21079 -10.21060 -10.21007
 Alpha  occ. eigenvalues --  -10.20958 -10.20791 -10.20486 -10.20456 -10.19707
 Alpha  occ. eigenvalues --  -10.19338  -3.11216  -1.86178  -1.85663  -1.85627
 Alpha  occ. eigenvalues --   -1.14058  -1.11257  -1.08212  -1.04731  -1.04219
 Alpha  occ. eigenvalues --   -1.03502  -1.02687  -1.02254  -1.01207  -1.00176
 Alpha  occ. eigenvalues --   -0.98573  -0.88834  -0.87343  -0.86376  -0.86121
 Alpha  occ. eigenvalues --   -0.86046  -0.85230  -0.84899  -0.83698  -0.83593
 Alpha  occ. eigenvalues --   -0.83511  -0.82941  -0.82217  -0.80526  -0.79952
 Alpha  occ. eigenvalues --   -0.79312  -0.78753  -0.77950  -0.77076  -0.76697
 Alpha  occ. eigenvalues --   -0.75832  -0.74864  -0.72921  -0.72401  -0.71561
 Alpha  occ. eigenvalues --   -0.71280  -0.70291  -0.70120  -0.69666  -0.69586
 Alpha  occ. eigenvalues --   -0.69139  -0.69084  -0.67636  -0.67315  -0.66371
 Alpha  occ. eigenvalues --   -0.65622  -0.65022  -0.64751  -0.63050  -0.62150
 Alpha  occ. eigenvalues --   -0.61093  -0.61017  -0.60671  -0.59852  -0.59460
 Alpha  occ. eigenvalues --   -0.59173  -0.58949  -0.58119  -0.57753  -0.57272
 Alpha  occ. eigenvalues --   -0.56943  -0.56791  -0.56114  -0.55713  -0.55212
 Alpha  occ. eigenvalues --   -0.53910  -0.53854  -0.53089  -0.52604  -0.52217
 Alpha  occ. eigenvalues --   -0.51857  -0.51755  -0.51193  -0.51035  -0.50665
 Alpha  occ. eigenvalues --   -0.50585  -0.50054  -0.49665  -0.49546  -0.49222
 Alpha  occ. eigenvalues --   -0.48607  -0.48552  -0.48162  -0.48090  -0.47977
 Alpha  occ. eigenvalues --   -0.47623  -0.47421  -0.47347  -0.47101  -0.46911
 Alpha  occ. eigenvalues --   -0.46519  -0.46206  -0.46073  -0.45961  -0.45832
 Alpha  occ. eigenvalues --   -0.45379  -0.45115  -0.45050  -0.44781  -0.44713
 Alpha  occ. eigenvalues --   -0.44624  -0.44380  -0.43998  -0.43699  -0.43612
 Alpha  occ. eigenvalues --   -0.43313  -0.43133  -0.43045  -0.42763  -0.42636
 Alpha  occ. eigenvalues --   -0.42552  -0.42416  -0.42194  -0.42127  -0.41922
 Alpha  occ. eigenvalues --   -0.41554  -0.41448  -0.41060  -0.40759  -0.40598
 Alpha  occ. eigenvalues --   -0.40474  -0.40336  -0.40255  -0.40125  -0.39958
 Alpha  occ. eigenvalues --   -0.39810  -0.39463  -0.39345  -0.39036  -0.38902
 Alpha  occ. eigenvalues --   -0.38558  -0.38445  -0.38162  -0.37981  -0.37667
 Alpha  occ. eigenvalues --   -0.37547  -0.37455  -0.37336  -0.37257  -0.36549
 Alpha  occ. eigenvalues --   -0.36514  -0.36496  -0.36165  -0.36090  -0.35652
 Alpha  occ. eigenvalues --   -0.35550  -0.35418  -0.35030  -0.34738  -0.34658
 Alpha  occ. eigenvalues --   -0.34513  -0.34357  -0.33750  -0.33656  -0.33321
 Alpha  occ. eigenvalues --   -0.32561  -0.32408  -0.32193  -0.31854  -0.31265
 Alpha  occ. eigenvalues --   -0.31183  -0.30882  -0.30781  -0.30365  -0.30021
 Alpha  occ. eigenvalues --   -0.29042  -0.28797  -0.28450  -0.27963  -0.27604
 Alpha  occ. eigenvalues --   -0.27552  -0.26810  -0.22847  -0.21976
 Alpha virt. eigenvalues --   -0.09537  -0.06356  -0.01841  -0.00917   0.00029
 Alpha virt. eigenvalues --    0.02241   0.02645   0.03056   0.04171   0.04357
 Alpha virt. eigenvalues --    0.05098   0.05356   0.08097   0.08622   0.09428

 Mulliken charges:
               1
     1  Mg   0.836529
     2  C    0.056415
     3  C   -0.149202
     4  C   -0.177251
     5  C   -0.170780
     6  N   -0.658296
     7  C    0.283133
     8  C   -0.147425
     9  C   -0.118477
    10  C    0.345606
    11  C   -0.338116
    12  C   -0.180141
    13  C   -0.262088
    14  C    0.596298
    15  O   -0.481196
    16  O   -0.438140
    17  N   -0.712700
    18  C    0.265272
    19  C    0.076368
    20  C   -0.028228
    21  C    0.345739
    22  C   -0.377715
    23  C    0.201951
    24  O   -0.459677
    25  N   -0.689208
    26  C    0.289706
    27  C   -0.020045
    28  C   -0.001936
    29  C    0.327467
    30  C    0.272037
    31  C   -0.220942
    32  C   -0.305303
    33  N   -0.715137
    34  C    0.231757
    35  C    0.049043
    36  C    0.016823
    37  C    0.362226
    38  C   -0.386210
    39  C    0.358336
    40  O   -0.474627
    41  C   -0.308248
    42  C    0.633850
    43  O   -0.477169
    44  O   -0.462263
    45  C   -0.078808
    46  C   -0.013622
    47  C   -0.123932
    48  C    0.149008
    49  C   -0.383261
    50  C   -0.214930
    51  C   -0.169300
    52  C   -0.157464
    53  C   -0.068815
    54  C   -0.294602
    55  C   -0.139897
    56  C   -0.177623
    57  C   -0.154593
    58  C   -0.057702
    59  C   -0.323483
    60  C   -0.175995
    61  C   -0.167422
    62  C   -0.185372
    63  C   -0.023154
    64  C   -0.275455
    65  C   -0.283190
    66  H    0.081629
    67  H    0.135680
    68  H    0.087733
    69  H    0.112016
    70  H    0.113077
    71  H    0.090089
    72  H    0.119831
    73  H    0.123322
    74  H    0.108426
    75  H    0.115385
    76  H    0.128931
    77  H    0.134749
    78  H    0.139048
    79  H    0.140509
    80  H    0.110343
    81  H    0.104638
    82  H    0.125431
    83  H    0.086868
    84  H    0.112388
    85  H    0.085073
    86  H    0.134192
    87  H    0.114193
    88  H    0.147738
    89  H    0.122317
    90  H    0.170612
    91  H    0.123097
    92  H    0.115642
    93  H    0.078251
    94  H    0.117134
    95  H    0.116415
    96  H    0.122869
    97  H    0.123956
    98  H    0.075587
    99  H    0.113392
   100  H    0.098266
   101  H    0.060564
   102  H    0.107343
   103  H    0.073328
   104  H    0.078557
   105  H    0.092821
   106  H    0.083320
   107  H    0.062139
   108  H    0.090566
   109  H    0.097234
   110  H    0.080680
   111  H    0.058425
   112  H    0.078668
   113  H    0.090089
   114  H    0.104860
   115  H    0.099805
   116  H    0.113124
   117  H    0.065461
   118  H    0.088424
   119  H    0.106875
   120  H    0.091385
   121  H    0.081883
   122  H    0.074437
   123  H    0.094005
   124  H    0.108609
   125  H    0.105828
   126  H    0.033499
   127  H    0.102903
   128  H    0.079886
   129  H    0.068641
   130  H    0.130928
   131  H    0.120054
   132  H    0.115952
   133  O   -0.417054
   134  H    0.079516
 Sum of Mulliken charges =   0.00000

 Dipole moment (field-independent basis, Debye):
    X=              3.8162    Y=             -4.6443    Z=             -1.0139  Tot=              6.0960
 Quadrupole moment (field-independent basis, Debye-Ang):
   XX=           -368.7348   YY=           -448.6288   ZZ=           -395.8663
   XY=             -5.0359   XZ=             27.1090   YZ=            -39.8312

 Normal termination of Gaussian 09 at Fri Oct  4 04:22:59 2019.
