 Gaussian 09, Revision D.01,
 Gaussian 09:  ES64L-G09RevD.01 24-Apr-2013

 ----------------------------------------------------------------------
 # td=(NStates=1) iop(3/107=0140000000,3/108=0140000000) iop(3/107=0140
 000000,3/108=0140000000) CAM-B3LYP/6-31G(d,p)
 ----------------------------------------------------------------------

 --
 TD
 --
 Symbolic Z-matrix:
 Charge =  0 Multiplicity = 1

                         Standard orientation:
 ---------------------------------------------------------------------
 Center     Atomic      Atomic             Coordinates (Angstroms)
 Number     Number       Type             X           Y           Z
 ---------------------------------------------------------------------
      1         12           0       -5.767847    1.289522    0.260540
      2          6           0       -5.093239   -2.156500   -0.396753
      3          6           0       -3.408303    1.167304    2.712227
      4          6           0       -6.128607    4.652349    0.641592
      5          6           0       -7.931436    1.274763   -2.411501
      6          7           0       -4.436940   -0.288102    1.100107
      7          6           0       -4.343867   -1.593465    0.673128
      8          6           0       -3.200604   -2.344711    1.439878
      9          6           0       -2.960823   -1.398845    2.683827
     10          6           0       -3.630111   -0.126478    2.209687
     11          6           0       -3.590766   -1.942415    4.034430
     12          6           0       -1.971204   -2.788740    0.652664
     13          6           0       -1.087210   -3.573096    1.450004
     14          6           0        0.247424   -3.925365    0.632134
     15          8           0        0.492072   -3.442784   -0.504625
     16          8           0        1.037369   -4.773479    1.286936
     17          7           0       -4.965952    2.608062    1.460047
     18          6           0       -4.024579    2.372817    2.504303
     19          6           0       -3.658385    3.648236    3.123570
     20          6           0       -4.566156    4.565936    2.615064
     21          6           0       -5.280220    3.922740    1.540970
     22          6           0       -2.709599    3.784752    4.291663
     23          6           0       -4.569511    5.981935    2.990342
     24          8           0       -3.959690    6.536214    3.886807
     25          7           0       -6.878754    2.695091   -0.636206
     26          6           0       -6.915759    3.978170   -0.345500
     27          6           0       -7.870353    4.680251   -1.278767
     28          6           0       -8.387011    3.694165   -2.019041
     29          6           0       -7.668032    2.491615   -1.729014
     30          6           0       -8.231068    6.118790   -1.157111
     31          6           0       -9.459413    3.778729   -3.183297
     32          6           0       -8.783617    3.845942   -4.514718
     33          7           0       -6.350007   -0.085223   -1.162545
     34          6           0       -7.346982    0.001204   -2.151800
     35          6           0       -7.487595   -1.243904   -2.761566
     36          6           0       -6.657902   -2.144262   -2.114533
     37          6           0       -5.958165   -1.342050   -1.134167
     38          6           0       -8.449216   -1.617068   -3.835199
     39          6           0       -6.190102   -3.564909   -2.135629
     40          8           0       -6.542865   -4.486369   -2.762607
     41          6           0       -5.056809   -3.513741   -0.949902
     42          6           0       -5.495427   -4.577108    0.037271
     43          8           0       -5.924589   -4.342950    1.181124
     44          8           0       -5.249623   -5.860245   -0.433462
     45          6           0       -5.531305   -6.885835    0.442360
     46          6           0        2.266639   -4.949924    0.662209
     47          6           0        3.370769   -3.998807    1.088106
     48          6           0        4.047481   -3.232976    0.256091
     49          6           0        3.704406   -3.060511   -1.235144
     50          6           0        5.242533   -2.497453    0.832518
     51          6           0        6.536428   -2.746407    0.141150
     52          6           0        7.642356   -1.840058    0.700158
     53          6           0        9.090709   -2.086115   -0.008495
     54          6           0        9.627943   -3.385403    0.383275
     55          6           0       10.004923   -0.971158    0.358076
     56          6           0       11.359105   -0.946464   -0.373413
     57          6           0       12.227301    0.388250   -0.156185
     58          6           0       13.572784    0.434843   -0.789715
     59          6           0       14.513184   -0.701019   -0.441659
     60          6           0       14.251187    1.792015   -0.303797
     61          6           0       15.515055    2.202932   -1.072431
     62          6           0       16.087153    3.573605   -0.583416
     63          6           0       17.397942    3.808324   -1.261730
     64          6           0       17.383275    4.090750   -2.814275
     65          6           0       18.038273    5.053385   -0.655784
     66          1           0       -2.684733    1.391292    3.603440
     67          1           0       -6.179144    5.721350    0.829770
     68          1           0       -8.582019    1.074932   -3.221347
     69          1           0       -3.606866   -3.333185    1.818016
     70          1           0       -1.973623   -1.192950    3.002249
     71          1           0       -3.041805   -2.861323    4.327128
     72          1           0       -3.567434   -1.229831    4.718136
     73          1           0       -4.721417   -2.130762    3.908127
     74          1           0       -2.361889   -3.230298   -0.290419
     75          1           0       -1.506053   -1.848458    0.496930
     76          1           0       -0.916122   -3.160933    2.411017
     77          1           0       -1.595316   -4.548041    1.802853
     78          1           0       -1.737450    3.504668    3.907698
     79          1           0       -2.908344    4.791432    4.653073
     80          1           0       -2.946798    3.010967    4.943430
     81          1           0       -5.187205    6.501870    2.378736
     82          1           0      -10.116560    2.924299   -3.312263
     83          1           0       -9.767869    4.776372   -3.116003
     84          1           0       -9.454677    3.895380   -5.283329
     85          1           0       -8.115615    4.646586   -4.651118
     86          1           0       -8.167488    3.005132   -4.558081
     87          1           0       -8.443802   -1.077217   -4.639798
     88          1           0       -8.467753   -2.709588   -4.188461
     89          1           0       -9.486716   -1.155500   -3.544715
     90          1           0       -4.295096   -3.827930   -1.667965
     91          1           0        2.492890   -5.991061    1.058422
     92          1           0        2.231093   -4.984502   -0.441730
     93          1           0        3.883721   -4.233550    2.050398
     94          1           0        2.660188   -3.223800   -1.382005
     95          1           0        4.115085   -1.999651   -1.524113
     96          1           0        4.224484   -3.916145   -1.612441
     97          1           0        5.020228   -1.325797    0.591028
     98          1           0        5.464234   -2.639519    1.900379
     99          1           0        6.735497   -3.821623    0.352085
    100          1           0        6.556339   -3.034188   -0.915747
    101          1           0        7.313427   -0.923104    0.554929
    102          1           0        7.624910   -1.836218    1.778553
    103          1           0        8.941539   -2.101566   -1.085276
    104          1           0        9.042448   -4.125542    0.253869
    105          1           0       10.533902   -3.583557   -0.252481
    106          1           0        9.921514   -3.576855    1.446063
    107          1           0        9.580049   -0.017310    0.227106
    108          1           0       10.153835   -1.140451    1.350411
    109          1           0       11.877917   -1.904172   -0.280168
    110          1           0       10.916284   -0.912020   -1.393668
    111          1           0       11.601662    1.286481   -0.443767
    112          1           0       12.434839    0.450547    0.964131
    113          1           0       13.317970    0.588930   -1.784021
    114          1           0       14.522565   -0.950801    0.652800
    115          1           0       13.968039   -1.557536   -0.952935
    116          1           0       15.420214   -0.483474   -0.582832
    117          1           0       13.500260    2.454134   -0.356228
    118          1           0       14.542162    1.588734    0.788467
    119          1           0       16.254294    1.322648   -0.916340
    120          1           0       15.300178    2.181763   -2.097696
    121          1           0       15.293700    4.351039   -0.714069
    122          1           0       16.299010    3.290426    0.462965
    123          1           0       17.968615    3.056057   -1.108464
    124          1           0       16.680997    4.849938   -3.201378
    125          1           0       18.447735    4.331910   -3.042609
    126          1           0       17.187472    3.081458   -3.510076
    127          1           0       18.287652    4.962703    0.244064
    128          1           0       18.916320    5.323154   -1.132743
    129          1           0       17.288087    5.896623   -0.635893
    130          1           0       -5.434714   -7.867741   -0.089141
    131          1           0       -6.685024   -6.917530    0.604765
    132          1           0       -5.023987   -7.156401    1.495644
    133          8           0       -7.852660    6.995439   -0.374955
    134          1           0       -8.811189    6.385546   -2.030341
 ---------------------------------------------------------------------

 SCF Done:  E(RCAM-B3LYP) =  -3043.50933889     A.U. after   16 cycles

 Excitation energies and oscillator strengths:

 Excited State   1:      Singlet-A      2.0194 eV  613.97 nm  f=0.1726  <S**2>=0.000
     243 -> 246        0.26631
     244 -> 245        0.64798
 This state for optimization and/or second-order correction.
 Total Energy, E(TD-HF/TD-KS) =  -3043.43512787
 Copying the excited state density for this state as the 1-particle RhoCI density.

 The electronic state is 1-A.
 Alpha  occ. eigenvalues --  -46.81319 -19.23866 -19.23451 -19.18892 -19.17835
 Alpha  occ. eigenvalues --  -19.17727 -19.17660 -19.17250 -14.39625 -14.37347
 Alpha  occ. eigenvalues --  -14.36827 -14.36391 -10.36138 -10.36027 -10.32582
 Alpha  occ. eigenvalues --  -10.30801 -10.29375 -10.28380 -10.28293 -10.28068
 Alpha  occ. eigenvalues --  -10.27588 -10.26853 -10.26679 -10.26668 -10.26631
 Alpha  occ. eigenvalues --  -10.25830 -10.25471 -10.25302 -10.24910 -10.24652
 Alpha  occ. eigenvalues --  -10.24622 -10.24597 -10.24543 -10.24296 -10.24215
 Alpha  occ. eigenvalues --  -10.24194 -10.23871 -10.23829 -10.23124 -10.23079
 Alpha  occ. eigenvalues --  -10.22850 -10.22668 -10.22599 -10.22485 -10.22198
 Alpha  occ. eigenvalues --  -10.21978 -10.21963 -10.21502 -10.21414 -10.21307
 Alpha  occ. eigenvalues --  -10.21282 -10.21227 -10.20869 -10.20784 -10.20677
 Alpha  occ. eigenvalues --  -10.20660 -10.20202 -10.20026 -10.19990 -10.19984
 Alpha  occ. eigenvalues --  -10.19601 -10.19361 -10.18999 -10.18645 -10.18596
 Alpha  occ. eigenvalues --  -10.17441  -3.10038  -1.84959  -1.84520  -1.84450
 Alpha  occ. eigenvalues --   -1.15313  -1.13429  -1.10973  -1.06824  -1.06153
 Alpha  occ. eigenvalues --   -1.04472  -1.03936  -1.01661  -1.00436  -0.99463
 Alpha  occ. eigenvalues --   -0.98587  -0.88924  -0.86851  -0.86512  -0.86084
 Alpha  occ. eigenvalues --   -0.85565  -0.84985  -0.84731  -0.84106  -0.83791
 Alpha  occ. eigenvalues --   -0.83447  -0.83127  -0.81938  -0.80966  -0.80365
 Alpha  occ. eigenvalues --   -0.79656  -0.78293  -0.77869  -0.77215  -0.76973
 Alpha  occ. eigenvalues --   -0.75928  -0.75610  -0.74123  -0.73073  -0.72544
 Alpha  occ. eigenvalues --   -0.72151  -0.71788  -0.70923  -0.70394  -0.70028
 Alpha  occ. eigenvalues --   -0.69691  -0.69464  -0.68256  -0.66999  -0.66784
 Alpha  occ. eigenvalues --   -0.66420  -0.65442  -0.63947  -0.63273  -0.62136
 Alpha  occ. eigenvalues --   -0.61539  -0.61451  -0.61337  -0.60048  -0.59677
 Alpha  occ. eigenvalues --   -0.59435  -0.59270  -0.58408  -0.57910  -0.57781
 Alpha  occ. eigenvalues --   -0.56778  -0.56638  -0.56123  -0.55579  -0.55206
 Alpha  occ. eigenvalues --   -0.54660  -0.54189  -0.53219  -0.52896  -0.52513
 Alpha  occ. eigenvalues --   -0.51918  -0.51890  -0.51699  -0.51285  -0.51013
 Alpha  occ. eigenvalues --   -0.50811  -0.50682  -0.50436  -0.49491  -0.49385
 Alpha  occ. eigenvalues --   -0.49186  -0.48805  -0.48590  -0.48461  -0.48355
 Alpha  occ. eigenvalues --   -0.48256  -0.47686  -0.47590  -0.47421  -0.47182
 Alpha  occ. eigenvalues --   -0.47102  -0.47033  -0.46705  -0.46458  -0.46154
 Alpha  occ. eigenvalues --   -0.45845  -0.45558  -0.45387  -0.45278  -0.45231
 Alpha  occ. eigenvalues --   -0.44948  -0.44816  -0.44572  -0.44286  -0.44118
 Alpha  occ. eigenvalues --   -0.44036  -0.43844  -0.43520  -0.43389  -0.43070
 Alpha  occ. eigenvalues --   -0.42921  -0.42676  -0.42458  -0.42171  -0.41938
 Alpha  occ. eigenvalues --   -0.41749  -0.41672  -0.41394  -0.41177  -0.41014
 Alpha  occ. eigenvalues --   -0.40973  -0.40915  -0.40651  -0.40621  -0.40580
 Alpha  occ. eigenvalues --   -0.40301  -0.39783  -0.39617  -0.39501  -0.39464
 Alpha  occ. eigenvalues --   -0.39111  -0.38825  -0.38527  -0.38516  -0.38497
 Alpha  occ. eigenvalues --   -0.38058  -0.38054  -0.37537  -0.37235  -0.37112
 Alpha  occ. eigenvalues --   -0.37078  -0.37011  -0.36586  -0.36543  -0.36093
 Alpha  occ. eigenvalues --   -0.36061  -0.35778  -0.35350  -0.35036  -0.34869
 Alpha  occ. eigenvalues --   -0.34828  -0.34594  -0.33810  -0.33515  -0.33329
 Alpha  occ. eigenvalues --   -0.32859  -0.32814  -0.32506  -0.32167  -0.31592
 Alpha  occ. eigenvalues --   -0.31307  -0.31120  -0.30927  -0.30266  -0.29848
 Alpha  occ. eigenvalues --   -0.29478  -0.28513  -0.28318  -0.28174  -0.27969
 Alpha  occ. eigenvalues --   -0.27876  -0.27524  -0.22968  -0.21594
 Alpha virt. eigenvalues --   -0.08620  -0.06461  -0.01969  -0.00785   0.00393
 Alpha virt. eigenvalues --    0.02240   0.02456   0.03039   0.04307   0.04555
 Alpha virt. eigenvalues --    0.04828   0.05901   0.08098   0.08965   0.09351

 Mulliken charges:
               1
     1  Mg   0.851670
     2  C    0.111615
     3  C   -0.193341
     4  C   -0.170704
     5  C   -0.139083
     6  N   -0.614768
     7  C    0.315611
     8  C   -0.173101
     9  C   -0.152383
    10  C    0.330969
    11  C   -0.310761
    12  C   -0.129037
    13  C   -0.274750
    14  C    0.607923
    15  O   -0.483259
    16  O   -0.418242
    17  N   -0.736728
    18  C    0.284958
    19  C    0.034585
    20  C   -0.069337
    21  C    0.342860
    22  C   -0.379037
    23  C    0.281659
    24  O   -0.430819
    25  N   -0.697113
    26  C    0.310834
    27  C   -0.045891
    28  C    0.015756
    29  C    0.293549
    30  C    0.263382
    31  C   -0.220751
    32  C   -0.321681
    33  N   -0.749382
    34  C    0.241715
    35  C    0.032583
    36  C    0.000899
    37  C    0.325201
    38  C   -0.387439
    39  C    0.346204
    40  O   -0.402227
    41  C   -0.375102
    42  C    0.646617
    43  O   -0.476988
    44  O   -0.428765
    45  C   -0.088899
    46  C   -0.017368
    47  C   -0.139750
    48  C    0.133021
    49  C   -0.368970
    50  C   -0.218805
    51  C   -0.190151
    52  C   -0.173033
    53  C   -0.070053
    54  C   -0.293792
    55  C   -0.153037
    56  C   -0.206288
    57  C   -0.167977
    58  C   -0.057929
    59  C   -0.289885
    60  C   -0.173135
    61  C   -0.192683
    62  C   -0.158625
    63  C   -0.031159
    64  C   -0.306245
    65  C   -0.302207
    66  H    0.066550
    67  H    0.133999
    68  H    0.077184
    69  H    0.113315
    70  H    0.112443
    71  H    0.110897
    72  H    0.124082
    73  H    0.120820
    74  H    0.115793
    75  H    0.122248
    76  H    0.136717
    77  H    0.116011
    78  H    0.129535
    79  H    0.165746
    80  H    0.133940
    81  H    0.074059
    82  H    0.118457
    83  H    0.112266
    84  H    0.115478
    85  H    0.114265
    86  H    0.109960
    87  H    0.138841
    88  H    0.144301
    89  H    0.102832
    90  H    0.173666
    91  H    0.099845
    92  H    0.124569
    93  H    0.074553
    94  H    0.162461
    95  H    0.103057
    96  H    0.128911
    97  H    0.070915
    98  H    0.103091
    99  H    0.081977
   100  H    0.097314
   101  H    0.099973
   102  H    0.087400
   103  H    0.080365
   104  H    0.108080
   105  H    0.088663
   106  H    0.090424
   107  H    0.085657
   108  H    0.094317
   109  H    0.096077
   110  H    0.081224
   111  H    0.081126
   112  H    0.076985
   113  H    0.089315
   114  H    0.089245
   115  H    0.096935
   116  H    0.106684
   117  H    0.086297
   118  H    0.068835
   119  H    0.071485
   120  H    0.100538
   121  H    0.089720
   122  H    0.092574
   123  H    0.093076
   124  H    0.107541
   125  H    0.100225
   126  H    0.061959
   127  H    0.104732
   128  H    0.093629
   129  H    0.086564
   130  H    0.117607
   131  H    0.109780
   132  H    0.108622
   133  O   -0.428209
   134  H    0.061524
 Sum of Mulliken charges =   0.00000

 Dipole moment (field-independent basis, Debye):
    X=              2.0793    Y=             -4.8113    Z=             -1.0366  Tot=              5.3430
 Quadrupole moment (field-independent basis, Debye-Ang):
   XX=           -375.0211   YY=           -439.9582   ZZ=           -391.5821
   XY=              7.2593   XZ=             28.7065   YZ=            -33.1960

 Normal termination of Gaussian 09 at Tue Oct  8 17:35:21 2019.
