 Gaussian 09, Revision D.01,
 Gaussian 09:  ES64L-G09RevD.01 24-Apr-2013

 ----------------------------------------------------------------------
 # td=(NStates=1) iop(3/107=0140000000,3/108=0140000000) iop(3/107=0140
 000000,3/108=0140000000) CAM-B3LYP/6-31G(d,p)
 ----------------------------------------------------------------------

 --
 TD
 --
 Symbolic Z-matrix:
 Charge =  0 Multiplicity = 1

                         Standard orientation:
 ---------------------------------------------------------------------
 Center     Atomic      Atomic             Coordinates (Angstroms)
 Number     Number       Type             X           Y           Z
 ---------------------------------------------------------------------
      1         12           0       -5.699675    1.195677    0.267621
      2          6           0       -5.010873   -2.180765   -0.338020
      3          6           0       -3.613624    1.243253    2.796944
      4          6           0       -6.269807    4.575283    0.564893
      5          6           0       -8.085823    1.118036   -2.476524
      6          7           0       -4.461051   -0.371841    1.022370
      7          6           0       -4.227620   -1.526851    0.694496
      8          6           0       -3.062763   -2.273914    1.482037
      9          6           0       -2.823862   -1.181876    2.548550
     10          6           0       -3.616215   -0.004070    2.145415
     11          6           0       -3.245238   -1.745885    3.975691
     12          6           0       -1.873306   -2.681268    0.594225
     13          6           0       -0.815244   -3.440863    1.494776
     14          6           0        0.430653   -3.742832    0.722060
     15          8           0        0.581602   -3.323534   -0.396851
     16          8           0        1.185651   -4.586646    1.384868
     17          7           0       -4.995467    2.726331    1.509451
     18          6           0       -4.161707    2.477017    2.535763
     19          6           0       -3.966052    3.678115    3.162333
     20          6           0       -4.594691    4.640084    2.578216
     21          6           0       -5.358385    3.995797    1.485632
     22          6           0       -2.999836    3.873293    4.337944
     23          6           0       -4.829750    6.004110    3.015479
     24          8           0       -4.221213    6.451997    3.945516
     25          7           0       -7.021817    2.578937   -0.710315
     26          6           0       -7.092062    3.860174   -0.480924
     27          6           0       -8.003671    4.638350   -1.325170
     28          6           0       -8.549025    3.613924   -2.241616
     29          6           0       -7.869902    2.372583   -1.767299
     30          6           0       -8.512251    5.881381   -1.144880
     31          6           0       -9.549433    3.649448   -3.307646
     32          6           0       -8.843585    3.941673   -4.610025
     33          7           0       -6.453708   -0.159656   -1.158940
     34          6           0       -7.432641   -0.074710   -2.060681
     35          6           0       -7.566825   -1.370809   -2.681271
     36          6           0       -6.736683   -2.271935   -2.068041
     37          6           0       -5.968310   -1.430222   -1.075867
     38          6           0       -8.555671   -1.716214   -3.774721
     39          6           0       -6.188046   -3.624698   -2.012267
     40          8           0       -6.568550   -4.582284   -2.562112
     41          6           0       -5.032631   -3.571142   -0.858880
     42          6           0       -5.194066   -4.690184    0.144485
     43          8           0       -5.672885   -4.497405    1.273982
     44          8           0       -5.026450   -5.905691   -0.390355
     45          6           0       -5.218217   -7.005315    0.463705
     46          6           0        2.381832   -4.938522    0.645765
     47          6           0        3.558417   -4.082500    1.033337
     48          6           0        4.176265   -3.208850    0.212274
     49          6           0        3.870686   -3.039735   -1.393645
     50          6           0        5.257371   -2.371387    0.782412
     51          6           0        6.636657   -2.850910    0.034097
     52          6           0        7.772138   -1.943115    0.639264
     53          6           0        9.106524   -2.155835   -0.091975
     54          6           0        9.724874   -3.660122    0.118053
     55          6           0       10.162906   -1.191370    0.479120
     56          6           0       11.467026   -1.112416   -0.298185
     57          6           0       12.354268    0.149549    0.196602
     58          6           0       13.500572    0.509631   -0.733064
     59          6           0       14.606657   -0.532250   -0.565423
     60          6           0       14.177807    1.904386   -0.228158
     61          6           0       15.449093    2.250987   -1.059677
     62          6           0       15.878528    3.769890   -0.674956
     63          6           0       17.190865    4.199966   -1.326494
     64          6           0       17.232316    4.252390   -2.885979
     65          6           0       17.993963    5.389754   -0.678615
     66          1           0       -2.758055    1.392884    3.617088
     67          1           0       -6.530417    5.585029    0.728596
     68          1           0       -8.848051    1.051886   -3.156670
     69          1           0       -3.601175   -3.225975    1.750233
     70          1           0       -1.864975   -0.845530    2.613492
     71          1           0       -2.828075   -2.847622    4.072122
     72          1           0       -2.991334   -0.913004    4.836778
     73          1           0       -4.307639   -1.864820    3.878371
     74          1           0       -2.146491   -3.282349   -0.246837
     75          1           0       -1.711766   -1.688724    0.037121
     76          1           0       -0.596098   -2.744231    2.362753
     77          1           0       -1.273570   -4.349627    2.013479
     78          1           0       -1.938957    3.439462    3.980526
     79          1           0       -2.753080    4.897435    4.817794
     80          1           0       -3.148414    3.158889    4.971516
     81          1           0       -5.600261    6.484516    2.471857
     82          1           0      -10.068668    2.669244   -3.452981
     83          1           0      -10.088329    4.438016   -3.164438
     84          1           0       -9.836224    4.130451   -5.341523
     85          1           0       -8.319525    4.844835   -4.424573
     86          1           0       -8.233861    3.123764   -4.986600
     87          1           0       -8.416637   -0.789337   -4.590099
     88          1           0       -8.574798   -2.704672   -4.328374
     89          1           0       -9.592096   -1.508858   -3.408718
     90          1           0       -4.136482   -3.808946   -1.390510
     91          1           0        2.573950   -5.933137    0.941941
     92          1           0        2.151381   -4.923284   -0.471572
     93          1           0        3.848422   -4.395494    1.965423
     94          1           0        2.778973   -3.324019   -1.519066
     95          1           0        3.929545   -1.978526   -1.424172
     96          1           0        4.642805   -3.570085   -1.874850
     97          1           0        5.209881   -1.212399    0.516243
     98          1           0        5.242216   -2.471302    1.923378
     99          1           0        6.865713   -3.890634    0.365380
    100          1           0        6.422654   -2.618996   -0.996965
    101          1           0        7.619725   -0.837637    0.768397
    102          1           0        7.866618   -2.052568    1.658029
    103          1           0        9.042539   -1.850121   -1.114883
    104          1           0        9.132252   -4.494212   -0.300915
    105          1           0       10.612172   -3.825918   -0.323686
    106          1           0       10.063826   -3.915842    1.215369
    107          1           0        9.765445   -0.092089    0.902666
    108          1           0       10.263416   -1.523252    1.632874
    109          1           0       12.061446   -1.972722   -0.128365
    110          1           0       11.113949   -0.794372   -1.359426
    111          1           0       11.516126    1.011529    0.228427
    112          1           0       12.693663   -0.034592    1.327446
    113          1           0       13.393048    0.615744   -1.723017
    114          1           0       14.682919   -0.798672    0.588394
    115          1           0       14.162677   -1.396520   -1.035114
    116          1           0       15.585555   -0.291800   -1.067434
    117          1           0       13.487281    2.663991   -0.479731
    118          1           0       14.462167    2.089485    0.971399
    119          1           0       16.328084    1.555263   -0.807230
    120          1           0       15.496073    2.135246   -2.178023
    121          1           0       15.223195    4.468350   -1.126496
    122          1           0       15.963142    4.095203    0.415339
    123          1           0       17.660726    3.434486   -1.067588
    124          1           0       16.577906    4.952246   -3.213841
    125          1           0       18.397875    4.213156   -3.533948
    126          1           0       16.675441    3.424305   -3.210234
    127          1           0       18.409867    5.028076    0.230898
    128          1           0       18.780925    5.851382   -1.375329
    129          1           0       17.205296    6.052377   -0.546440
    130          1           0       -4.925409   -7.884841   -0.150221
    131          1           0       -6.269462   -7.059710    0.744448
    132          1           0       -4.570685   -6.909084    1.377353
    133          8           0       -7.991039    6.664362   -0.377535
    134          1           0       -9.724482    6.076302   -1.616147
 ---------------------------------------------------------------------

 SCF Done:  E(RCAM-B3LYP) =  -3043.39054112     A.U. after   16 cycles

 Excitation energies and oscillator strengths:

 Excited State   1:      Singlet-A      2.0003 eV  619.84 nm  f=0.1836  <S**2>=0.000
     243 -> 245       -0.10262
     243 -> 246       -0.23481
     244 -> 245        0.64537
     244 -> 246       -0.10830
 This state for optimization and/or second-order correction.
 Total Energy, E(TD-HF/TD-KS) =  -3043.31703304
 Copying the excited state density for this state as the 1-particle RhoCI density.

 The electronic state is 1-A.
 Alpha  occ. eigenvalues --  -46.83800 -19.23296 -19.23277 -19.17954 -19.17123
 Alpha  occ. eigenvalues --  -19.16992 -19.16458 -19.16344 -14.39516 -14.37621
 Alpha  occ. eigenvalues --  -14.36632 -14.36478 -10.35321 -10.34821 -10.31961
 Alpha  occ. eigenvalues --  -10.30316 -10.29087 -10.28417 -10.27826 -10.27649
 Alpha  occ. eigenvalues --  -10.26942 -10.26936 -10.26506 -10.26212 -10.26131
 Alpha  occ. eigenvalues --  -10.25681 -10.25566 -10.25066 -10.24960 -10.24905
 Alpha  occ. eigenvalues --  -10.24775 -10.24546 -10.24463 -10.24373 -10.24368
 Alpha  occ. eigenvalues --  -10.23995 -10.23945 -10.23943 -10.23873 -10.23766
 Alpha  occ. eigenvalues --  -10.23663 -10.23227 -10.23174 -10.22710 -10.22681
 Alpha  occ. eigenvalues --  -10.22651 -10.22636 -10.22595 -10.22566 -10.22497
 Alpha  occ. eigenvalues --  -10.22146 -10.22135 -10.22134 -10.22076 -10.21727
 Alpha  occ. eigenvalues --  -10.21484 -10.21395 -10.21095 -10.20982 -10.20939
 Alpha  occ. eigenvalues --  -10.20755 -10.20699 -10.20686 -10.20494 -10.19280
 Alpha  occ. eigenvalues --  -10.18954  -3.11962  -1.86931  -1.86448  -1.86325
 Alpha  occ. eigenvalues --   -1.15204  -1.14430  -1.10375  -1.07440  -1.06792
 Alpha  occ. eigenvalues --   -1.05961  -1.04123  -1.02907  -1.02057  -1.00738
 Alpha  occ. eigenvalues --   -0.99729  -0.88023  -0.86385  -0.86304  -0.85476
 Alpha  occ. eigenvalues --   -0.84874  -0.84720  -0.84028  -0.83885  -0.83016
 Alpha  occ. eigenvalues --   -0.82895  -0.82559  -0.81571  -0.80107  -0.79799
 Alpha  occ. eigenvalues --   -0.78910  -0.78078  -0.77394  -0.76648  -0.75895
 Alpha  occ. eigenvalues --   -0.74425  -0.74172  -0.73529  -0.73238  -0.72046
 Alpha  occ. eigenvalues --   -0.71642  -0.71152  -0.70234  -0.69882  -0.69436
 Alpha  occ. eigenvalues --   -0.68949  -0.68686  -0.67952  -0.66585  -0.66455
 Alpha  occ. eigenvalues --   -0.65984  -0.65029  -0.64099  -0.63114  -0.62535
 Alpha  occ. eigenvalues --   -0.62129  -0.61174  -0.61001  -0.59797  -0.59423
 Alpha  occ. eigenvalues --   -0.59175  -0.58756  -0.58674  -0.58251  -0.57665
 Alpha  occ. eigenvalues --   -0.57019  -0.56245  -0.56011  -0.55282  -0.54942
 Alpha  occ. eigenvalues --   -0.54338  -0.53722  -0.53102  -0.52718  -0.52349
 Alpha  occ. eigenvalues --   -0.51981  -0.51438  -0.51172  -0.51136  -0.50724
 Alpha  occ. eigenvalues --   -0.50299  -0.50185  -0.49834  -0.49173  -0.48852
 Alpha  occ. eigenvalues --   -0.48500  -0.48465  -0.48321  -0.48091  -0.47936
 Alpha  occ. eigenvalues --   -0.47637  -0.47570  -0.47370  -0.47136  -0.46778
 Alpha  occ. eigenvalues --   -0.46594  -0.46526  -0.46354  -0.46174  -0.46167
 Alpha  occ. eigenvalues --   -0.45765  -0.45379  -0.45161  -0.44802  -0.44771
 Alpha  occ. eigenvalues --   -0.44675  -0.44297  -0.44035  -0.43834  -0.43672
 Alpha  occ. eigenvalues --   -0.43550  -0.43351  -0.43047  -0.42799  -0.42584
 Alpha  occ. eigenvalues --   -0.42396  -0.42218  -0.42094  -0.42034  -0.41787
 Alpha  occ. eigenvalues --   -0.41756  -0.41517  -0.41445  -0.41326  -0.41255
 Alpha  occ. eigenvalues --   -0.41126  -0.40891  -0.40516  -0.40477  -0.40288
 Alpha  occ. eigenvalues --   -0.40137  -0.39964  -0.39742  -0.39234  -0.39171
 Alpha  occ. eigenvalues --   -0.38825  -0.38684  -0.38435  -0.38318  -0.38279
 Alpha  occ. eigenvalues --   -0.38169  -0.37971  -0.37486  -0.37378  -0.37010
 Alpha  occ. eigenvalues --   -0.36905  -0.36817  -0.36557  -0.36425  -0.36017
 Alpha  occ. eigenvalues --   -0.35679  -0.35503  -0.35177  -0.34802  -0.34574
 Alpha  occ. eigenvalues --   -0.34529  -0.34386  -0.33922  -0.33489  -0.33250
 Alpha  occ. eigenvalues --   -0.32928  -0.32544  -0.31912  -0.31829  -0.31693
 Alpha  occ. eigenvalues --   -0.31471  -0.30972  -0.30570  -0.30146  -0.29372
 Alpha  occ. eigenvalues --   -0.28465  -0.28217  -0.28001  -0.27624  -0.27457
 Alpha  occ. eigenvalues --   -0.27279  -0.26647  -0.22996  -0.20837
 Alpha virt. eigenvalues --   -0.08116  -0.06529  -0.01458   0.00006   0.00795
 Alpha virt. eigenvalues --    0.02567   0.02954   0.03345   0.03490   0.04172
 Alpha virt. eigenvalues --    0.05285   0.05906   0.07898   0.08156   0.09522

 Mulliken charges:
               1
     1  Mg   0.837671
     2  C    0.080439
     3  C   -0.203990
     4  C   -0.158505
     5  C   -0.136125
     6  N   -0.610776
     7  C    0.339219
     8  C   -0.162509
     9  C   -0.144968
    10  C    0.292280
    11  C   -0.291402
    12  C   -0.160476
    13  C   -0.286505
    14  C    0.630687
    15  O   -0.470553
    16  O   -0.442284
    17  N   -0.729522
    18  C    0.353436
    19  C    0.049526
    20  C   -0.047616
    21  C    0.290561
    22  C   -0.366068
    23  C    0.262557
    24  O   -0.416600
    25  N   -0.644305
    26  C    0.292357
    27  C    0.026707
    28  C    0.017749
    29  C    0.243062
    30  C    0.194516
    31  C   -0.218145
    32  C   -0.296305
    33  N   -0.742607
    34  C    0.317240
    35  C   -0.013692
    36  C    0.045488
    37  C    0.261578
    38  C   -0.376742
    39  C    0.362170
    40  O   -0.404764
    41  C   -0.350027
    42  C    0.608249
    43  O   -0.491163
    44  O   -0.421613
    45  C   -0.085574
    46  C   -0.024308
    47  C   -0.122793
    48  C    0.108943
    49  C   -0.372460
    50  C   -0.238318
    51  C   -0.182009
    52  C   -0.176676
    53  C   -0.038195
    54  C   -0.330355
    55  C   -0.173756
    56  C   -0.172565
    57  C   -0.170415
    58  C   -0.046682
    59  C   -0.302118
    60  C   -0.159064
    61  C   -0.201906
    62  C   -0.205619
    63  C   -0.052667
    64  C   -0.306864
    65  C   -0.324585
    66  H    0.074525
    67  H    0.128913
    68  H    0.076949
    69  H    0.125874
    70  H    0.119949
    71  H    0.103416
    72  H    0.094669
    73  H    0.136901
    74  H    0.118116
    75  H    0.110177
    76  H    0.135018
    77  H    0.131422
    78  H    0.085537
    79  H    0.161952
    80  H    0.126937
    81  H    0.086967
    82  H    0.112989
    83  H    0.115503
    84  H    0.074417
    85  H    0.125270
    86  H    0.121148
    87  H    0.088373
    88  H    0.145524
    89  H    0.131550
    90  H    0.152048
    91  H    0.107805
    92  H    0.123552
    93  H    0.084000
    94  H    0.146723
    95  H    0.124203
    96  H    0.134996
    97  H    0.090754
    98  H    0.095337
    99  H    0.115050
   100  H    0.111154
   101  H    0.080179
   102  H    0.101618
   103  H    0.089210
   104  H    0.096847
   105  H    0.118417
   106  H    0.087793
   107  H    0.056363
   108  H    0.060775
   109  H    0.117074
   110  H    0.089146
   111  H    0.069830
   112  H    0.083907
   113  H    0.096562
   114  H    0.084455
   115  H    0.097315
   116  H    0.099715
   117  H    0.103002
   118  H    0.071505
   119  H    0.092129
   120  H    0.097562
   121  H    0.096320
   122  H    0.088659
   123  H    0.102512
   124  H    0.109757
   125  H    0.062843
   126  H    0.095255
   127  H    0.103885
   128  H    0.097601
   129  H    0.108364
   130  H    0.125944
   131  H    0.138660
   132  H    0.119763
   133  O   -0.421683
   134  H    0.020752
 Sum of Mulliken charges =   0.00000

 Dipole moment (field-independent basis, Debye):
    X=              3.0659    Y=             -6.4963    Z=             -1.1928  Tot=              7.2818
 Quadrupole moment (field-independent basis, Debye-Ang):
   XX=           -400.4254   YY=           -438.7551   ZZ=           -398.2491
   XY=              3.7981   XZ=             21.1586   YZ=            -28.0021

 Normal termination of Gaussian 09 at Fri Oct  4 02:20:01 2019.
