 Gaussian 09, Revision D.01,
 Gaussian 09:  ES64L-G09RevD.01 24-Apr-2013

 ----------------------------------------------------------------------
 # td=(NStates=1) iop(3/107=0140000000,3/108=0140000000) iop(3/107=0140
 000000,3/108=0140000000) CAM-B3LYP/6-31G(d,p)
 ----------------------------------------------------------------------

 --
 TD
 --
 Symbolic Z-matrix:
 Charge =  0 Multiplicity = 1

                         Standard orientation:
 ---------------------------------------------------------------------
 Center     Atomic      Atomic             Coordinates (Angstroms)
 Number     Number       Type             X           Y           Z
 ---------------------------------------------------------------------
      1         12           0       -5.641337    1.166294    0.257168
      2          6           0       -5.013886   -2.191252   -0.408998
      3          6           0       -3.428025    1.119736    2.656346
      4          6           0       -6.122220    4.559797    0.703279
      5          6           0       -7.936031    1.201058   -2.367682
      6          7           0       -4.371329   -0.234783    1.050363
      7          6           0       -4.179303   -1.554892    0.621461
      8          6           0       -3.183475   -2.352037    1.471843
      9          6           0       -2.975643   -1.358127    2.640474
     10          6           0       -3.621475   -0.082890    2.204086
     11          6           0       -3.594609   -1.729391    4.030798
     12          6           0       -1.896743   -2.575573    0.696814
     13          6           0       -0.938347   -3.430928    1.444119
     14          6           0        0.273120   -3.802470    0.657888
     15          8           0        0.459989   -3.503372   -0.588504
     16          8           0        0.984029   -4.736019    1.205255
     17          7           0       -4.924740    2.621510    1.505892
     18          6           0       -4.010435    2.369473    2.442946
     19          6           0       -3.709789    3.638336    3.151183
     20          6           0       -4.543987    4.581344    2.575272
     21          6           0       -5.251480    3.943219    1.592701
     22          6           0       -2.689676    3.735943    4.261616
     23          6           0       -4.429338    6.003409    2.881938
     24          8           0       -3.799874    6.547351    3.814043
     25          7           0       -6.817109    2.655413   -0.648080
     26          6           0       -6.811394    3.980915   -0.365199
     27          6           0       -7.862060    4.617157   -1.133092
     28          6           0       -8.362220    3.701120   -2.067150
     29          6           0       -7.659036    2.516765   -1.719185
     30          6           0       -8.344228    6.035158   -1.098792
     31          6           0       -9.446008    3.857321   -3.164863
     32          6           0       -8.860584    3.842534   -4.581436
     33          7           0       -6.289762   -0.137672   -1.070817
     34          6           0       -7.271024    0.016655   -2.076739
     35          6           0       -7.595742   -1.205523   -2.716581
     36          6           0       -6.719447   -2.105418   -2.030461
     37          6           0       -5.971525   -1.394429   -1.097294
     38          6           0       -8.600573   -1.585679   -3.815037
     39          6           0       -6.324220   -3.573981   -2.006386
     40          8           0       -6.897897   -4.557701   -2.525506
     41          6           0       -5.097312   -3.507319   -0.966919
     42          6           0       -5.312930   -4.580307    0.100651
     43          8           0       -5.732327   -4.389623    1.222404
     44          8           0       -5.077412   -5.852693   -0.385422
     45          6           0       -5.253825   -7.014322    0.399663
     46          6           0        2.220299   -5.066762    0.475738
     47          6           0        3.420204   -4.217925    0.962677
     48          6           0        4.109452   -3.363437    0.097188
     49          6           0        3.721899   -3.145609   -1.198633
     50          6           0        5.151395   -2.489072    0.766145
     51          6           0        6.600090   -2.678440    0.124888
     52          6           0        7.662377   -1.859774    0.683461
     53          6           0        9.074759   -2.111341    0.021654
     54          6           0        9.620560   -3.505613    0.204012
     55          6           0       10.010011   -1.015650    0.500509
     56          6           0       11.361755   -0.957490   -0.190803
     57          6           0       12.181062    0.221350    0.132386
     58          6           0       13.485188    0.396247   -0.733021
     59          6           0       14.506143   -0.814095   -0.457463
     60          6           0       14.187313    1.675443   -0.210005
     61          6           0       15.459702    2.120144   -0.946220
     62          6           0       15.961746    3.519619   -0.669656
     63          6           0       17.309835    4.048781   -1.388782
     64          6           0       17.183556    4.234302   -2.966327
     65          6           0       17.719285    5.279834   -0.735799
     66          1           0       -2.652021    1.023872    3.355821
     67          1           0       -6.262457    5.626558    0.682128
     68          1           0       -8.673022    1.218053   -2.984423
     69          1           0       -3.744132   -3.175830    1.818245
     70          1           0       -2.003856   -1.017334    2.750927
     71          1           0       -3.262438   -2.754431    4.265567
     72          1           0       -3.272711   -0.903057    4.855812
     73          1           0       -4.793220   -1.751491    3.945874
     74          1           0       -2.280323   -3.095087    0.002222
     75          1           0       -1.413515   -1.680014    0.189254
     76          1           0       -0.568079   -2.744493    2.245932
     77          1           0       -1.134726   -4.391068    2.011231
     78          1           0       -1.682710    3.223399    4.072579
     79          1           0       -2.344663    4.877992    4.238121
     80          1           0       -3.110930    3.447206    5.162320
     81          1           0       -4.960498    6.636924    2.095155
     82          1           0       -9.982924    2.908033   -3.055596
     83          1           0      -10.169732    4.670931   -3.021026
     84          1           0       -9.626603    3.876323   -5.388396
     85          1           0       -8.186797    4.856807   -4.705125
     86          1           0       -8.452480    2.656974   -4.804065
     87          1           0       -8.257860   -1.007384   -4.803033
     88          1           0       -8.757002   -2.535410   -4.024754
     89          1           0       -9.541750   -1.234027   -3.452842
     90          1           0       -4.267021   -3.922249   -1.370381
     91          1           0        2.423034   -6.242748    0.932149
     92          1           0        2.152670   -5.048717   -0.536818
     93          1           0        3.827225   -4.063202    1.918047
     94          1           0        2.788810   -3.223146   -1.718621
     95          1           0        3.918375   -2.233131   -1.499927
     96          1           0        4.389487   -3.669901   -1.935193
     97          1           0        4.838382   -1.456505    0.506405
     98          1           0        5.248283   -2.461387    2.006705
     99          1           0        6.966836   -3.682046    0.165125
    100          1           0        6.430812   -2.639067   -0.949112
    101          1           0        7.309633   -0.688359    0.616095
    102          1           0        7.683416   -1.965991    1.688670
    103          1           0        8.993846   -1.901142   -1.111955
    104          1           0        8.927272   -4.341203   -0.188068
    105          1           0       10.628371   -3.787629   -0.172581
    106          1           0        9.439832   -3.666059    1.217738
    107          1           0        9.613831    0.149340    0.358783
    108          1           0       10.194178   -0.968294    1.576193
    109          1           0       12.031792   -1.839312   -0.080966
    110          1           0       10.923629   -0.850882   -1.387459
    111          1           0       11.711330    1.196975    0.119604
    112          1           0       12.628531    0.199769    1.304844
    113          1           0       13.082725    0.709723   -1.755632
    114          1           0       14.522073   -0.820920    0.592228
    115          1           0       14.078698   -1.713406   -0.960235
    116          1           0       15.396273   -0.550323   -0.844988
    117          1           0       13.360416    2.567536   -0.151872
    118          1           0       14.365077    1.502903    0.779784
    119          1           0       16.171179    1.371166   -0.735403
    120          1           0       15.112636    2.206152   -2.176414
    121          1           0       15.151361    4.185113   -0.771808
    122          1           0       16.143777    3.577919    0.345773
    123          1           0       18.027810    3.199522   -1.268540
    124          1           0       16.562081    4.966870   -3.268074
    125          1           0       18.308497    4.506170   -3.232460
    126          1           0       17.034309    3.395046   -3.429330
    127          1           0       17.895851    5.320006    0.342207
    128          1           0       18.765061    5.744593   -1.248493
    129          1           0       16.896309    6.068150   -0.924859
    130          1           0       -4.865378   -7.715059   -0.251219
    131          1           0       -6.307068   -7.151302    0.497151
    132          1           0       -4.940471   -6.863738    1.365183
    133          8           0       -7.927134    6.938584   -0.386022
    134          1           0       -9.206637    6.290831   -1.946997
 ---------------------------------------------------------------------

 SCF Done:  E(RCAM-B3LYP) =  -3043.41707914     A.U. after   16 cycles

 Excitation energies and oscillator strengths:

 Excited State   1:      Singlet-A      2.1099 eV  587.64 nm  f=0.1337  <S**2>=0.000
     243 -> 246       -0.31566
     244 -> 245        0.62206
 This state for optimization and/or second-order correction.
 Total Energy, E(TD-HF/TD-KS) =  -3043.33954303
 Copying the excited state density for this state as the 1-particle RhoCI density.

 The electronic state is 1-A.
 Alpha  occ. eigenvalues --  -46.80846 -19.23500 -19.21597 -19.18174 -19.17531
 Alpha  occ. eigenvalues --  -19.17478 -19.17153 -19.15505 -14.38517 -14.36928
 Alpha  occ. eigenvalues --  -14.36758 -14.36404 -10.35223 -10.34788 -10.32848
 Alpha  occ. eigenvalues --  -10.31438 -10.30597 -10.29253 -10.28667 -10.26538
 Alpha  occ. eigenvalues --  -10.26488 -10.26277 -10.26082 -10.25840 -10.25759
 Alpha  occ. eigenvalues --  -10.25716 -10.25566 -10.25290 -10.25159 -10.24740
 Alpha  occ. eigenvalues --  -10.24716 -10.24571 -10.24433 -10.24428 -10.24350
 Alpha  occ. eigenvalues --  -10.24089 -10.23977 -10.23916 -10.23911 -10.23636
 Alpha  occ. eigenvalues --  -10.23511 -10.23301 -10.23194 -10.23156 -10.22952
 Alpha  occ. eigenvalues --  -10.22430 -10.22393 -10.22392 -10.22252 -10.22231
 Alpha  occ. eigenvalues --  -10.22157 -10.22152 -10.21808 -10.21769 -10.21606
 Alpha  occ. eigenvalues --  -10.21596 -10.21389 -10.21321 -10.21046 -10.21040
 Alpha  occ. eigenvalues --  -10.20763 -10.20640 -10.19915 -10.19425 -10.19302
 Alpha  occ. eigenvalues --  -10.18966  -3.09603  -1.84533  -1.84064  -1.84038
 Alpha  occ. eigenvalues --   -1.14599  -1.12726  -1.06419  -1.05516  -1.04936
 Alpha  occ. eigenvalues --   -1.04844  -1.01509  -1.01139  -1.00392  -0.99769
 Alpha  occ. eigenvalues --   -0.98912  -0.89370  -0.87480  -0.86974  -0.85782
 Alpha  occ. eigenvalues --   -0.85598  -0.84712  -0.84504  -0.84116  -0.83593
 Alpha  occ. eigenvalues --   -0.83101  -0.83041  -0.82193  -0.80980  -0.80551
 Alpha  occ. eigenvalues --   -0.79165  -0.78514  -0.78127  -0.78000  -0.77183
 Alpha  occ. eigenvalues --   -0.75993  -0.75573  -0.74939  -0.73584  -0.73072
 Alpha  occ. eigenvalues --   -0.72274  -0.71695  -0.71239  -0.70319  -0.69885
 Alpha  occ. eigenvalues --   -0.69346  -0.69207  -0.67590  -0.66919  -0.66322
 Alpha  occ. eigenvalues --   -0.65494  -0.64938  -0.63808  -0.63129  -0.62348
 Alpha  occ. eigenvalues --   -0.62305  -0.61440  -0.60053  -0.59811  -0.59479
 Alpha  occ. eigenvalues --   -0.58923  -0.58374  -0.58082  -0.57627  -0.57405
 Alpha  occ. eigenvalues --   -0.57209  -0.56487  -0.56006  -0.55277  -0.54678
 Alpha  occ. eigenvalues --   -0.54158  -0.53817  -0.53263  -0.52543  -0.51831
 Alpha  occ. eigenvalues --   -0.51640  -0.51292  -0.51224  -0.51091  -0.50700
 Alpha  occ. eigenvalues --   -0.50492  -0.49944  -0.49687  -0.49398  -0.49043
 Alpha  occ. eigenvalues --   -0.48848  -0.48643  -0.48556  -0.48303  -0.48062
 Alpha  occ. eigenvalues --   -0.47914  -0.47618  -0.47539  -0.47232  -0.47030
 Alpha  occ. eigenvalues --   -0.46811  -0.46686  -0.46305  -0.46087  -0.45969
 Alpha  occ. eigenvalues --   -0.45844  -0.45591  -0.45564  -0.45299  -0.45158
 Alpha  occ. eigenvalues --   -0.45051  -0.44947  -0.44659  -0.44378  -0.44036
 Alpha  occ. eigenvalues --   -0.43995  -0.43836  -0.43601  -0.43303  -0.43178
 Alpha  occ. eigenvalues --   -0.42968  -0.42676  -0.42477  -0.42214  -0.41923
 Alpha  occ. eigenvalues --   -0.41685  -0.41381  -0.41326  -0.41243  -0.41142
 Alpha  occ. eigenvalues --   -0.40959  -0.40677  -0.40530  -0.40368  -0.40360
 Alpha  occ. eigenvalues --   -0.40137  -0.40105  -0.40009  -0.39629  -0.39214
 Alpha  occ. eigenvalues --   -0.39000  -0.38857  -0.38745  -0.38445  -0.38421
 Alpha  occ. eigenvalues --   -0.38323  -0.38019  -0.37784  -0.37583  -0.37217
 Alpha  occ. eigenvalues --   -0.37136  -0.36729  -0.36484  -0.36305  -0.35806
 Alpha  occ. eigenvalues --   -0.35522  -0.35232  -0.34950  -0.34939  -0.34608
 Alpha  occ. eigenvalues --   -0.34456  -0.34067  -0.33546  -0.33537  -0.32626
 Alpha  occ. eigenvalues --   -0.32531  -0.32502  -0.32214  -0.31807  -0.31789
 Alpha  occ. eigenvalues --   -0.31706  -0.30931  -0.30831  -0.29868  -0.29142
 Alpha  occ. eigenvalues --   -0.28904  -0.28290  -0.28193  -0.27976  -0.27618
 Alpha  occ. eigenvalues --   -0.27441  -0.26073  -0.22595  -0.22149
 Alpha virt. eigenvalues --   -0.08509  -0.06535  -0.01655  -0.00787   0.00793
 Alpha virt. eigenvalues --    0.02336   0.02858   0.02969   0.03424   0.04369
 Alpha virt. eigenvalues --    0.05134   0.05377   0.07104   0.08262   0.09019

 Mulliken charges:
               1
     1  Mg   0.819463
     2  C    0.141133
     3  C   -0.191342
     4  C   -0.173656
     5  C   -0.117391
     6  N   -0.631667
     7  C    0.261853
     8  C   -0.168063
     9  C   -0.140205
    10  C    0.341542
    11  C   -0.299345
    12  C   -0.142386
    13  C   -0.285492
    14  C    0.604237
    15  O   -0.532343
    16  O   -0.431013
    17  N   -0.705419
    18  C    0.343667
    19  C    0.024303
    20  C    0.007246
    21  C    0.316636
    22  C   -0.380258
    23  C    0.244382
    24  O   -0.435191
    25  N   -0.659397
    26  C    0.294755
    27  C   -0.062375
    28  C    0.057973
    29  C    0.257024
    30  C    0.246795
    31  C   -0.242573
    32  C   -0.285465
    33  N   -0.753862
    34  C    0.256167
    35  C    0.043066
    36  C   -0.050071
    37  C    0.338780
    38  C   -0.351140
    39  C    0.396725
    40  O   -0.461140
    41  C   -0.354095
    42  C    0.591107
    43  O   -0.466388
    44  O   -0.468835
    45  C   -0.075556
    46  C    0.014084
    47  C   -0.127495
    48  C    0.157501
    49  C   -0.405982
    50  C   -0.243150
    51  C   -0.172722
    52  C   -0.163273
    53  C   -0.047635
    54  C   -0.320987
    55  C   -0.158640
    56  C   -0.146891
    57  C   -0.153123
    58  C   -0.070302
    59  C   -0.312959
    60  C   -0.169208
    61  C   -0.159547
    62  C   -0.174574
    63  C   -0.049957
    64  C   -0.301029
    65  C   -0.285592
    66  H    0.059937
    67  H    0.128113
    68  H    0.052428
    69  H    0.139228
    70  H    0.110913
    71  H    0.115486
    72  H    0.100703
    73  H    0.116054
    74  H    0.124723
    75  H    0.135748
    76  H    0.133235
    77  H    0.145685
    78  H    0.107076
    79  H    0.144026
    80  H    0.143957
    81  H    0.077392
    82  H    0.116053
    83  H    0.121893
    84  H    0.115839
    85  H    0.107584
    86  H    0.079627
    87  H    0.113911
    88  H    0.157830
    89  H    0.131347
    90  H    0.163117
    91  H    0.082552
    92  H    0.154658
    93  H    0.074485
    94  H    0.164008
    95  H    0.124164
    96  H    0.108202
    97  H    0.108003
    98  H    0.074662
    99  H    0.097067
   100  H    0.094321
   101  H    0.061140
   102  H    0.104405
   103  H    0.075021
   104  H    0.093483
   105  H    0.115001
   106  H    0.115558
   107  H    0.064527
   108  H    0.087903
   109  H    0.094871
   110  H    0.047592
   111  H    0.091131
   112  H    0.040079
   113  H    0.082790
   114  H    0.111904
   115  H    0.104897
   116  H    0.116655
   117  H    0.051682
   118  H    0.094636
   119  H    0.096679
   120  H    0.046415
   121  H    0.091616
   122  H    0.091109
   123  H    0.080372
   124  H    0.112539
   125  H    0.076054
   126  H    0.116201
   127  H    0.107418
   128  H    0.063223
   129  H    0.092329
   130  H    0.135892
   131  H    0.130326
   132  H    0.129602
   133  O   -0.417420
   134  H    0.039640
 Sum of Mulliken charges =   0.00000

 Dipole moment (field-independent basis, Debye):
    X=              2.2312    Y=             -5.7700    Z=             -0.9966  Tot=              6.2662
 Quadrupole moment (field-independent basis, Debye-Ang):
   XX=           -376.4902   YY=           -446.5398   ZZ=           -394.6151
   XY=              5.7681   XZ=             30.6709   YZ=            -33.6713

 Normal termination of Gaussian 09 at Tue Oct  8 07:22:55 2019.
