 Gaussian 09, Revision D.01,
 Gaussian 09:  ES64L-G09RevD.01 24-Apr-2013

 ----------------------------------------------------------------------
 # td=(NStates=1) iop(3/107=0140000000,3/108=0140000000) iop(3/107=0140
 000000,3/108=0140000000) CAM-B3LYP/6-31G(d,p)
 ----------------------------------------------------------------------

 --
 TD
 --
 Symbolic Z-matrix:
 Charge =  0 Multiplicity = 1

                         Standard orientation:
 ---------------------------------------------------------------------
 Center     Atomic      Atomic             Coordinates (Angstroms)
 Number     Number       Type             X           Y           Z
 ---------------------------------------------------------------------
      1         12           0       -5.667484    1.275913    0.238563
      2          6           0       -4.942820   -2.168987   -0.453709
      3          6           0       -3.513749    1.125265    2.804465
      4          6           0       -6.245337    4.502411    0.738959
      5          6           0       -8.087662    1.077313   -2.377309
      6          7           0       -4.355822   -0.333415    1.011490
      7          6           0       -4.230532   -1.607724    0.638325
      8          6           0       -3.166573   -2.305664    1.502472
      9          6           0       -2.964325   -1.304081    2.669598
     10          6           0       -3.640844   -0.045455    2.127583
     11          6           0       -3.595699   -1.870284    4.008197
     12          6           0       -1.832466   -2.570624    0.716359
     13          6           0       -0.971182   -3.688765    1.339443
     14          6           0        0.255109   -3.886241    0.740129
     15          8           0        0.513832   -3.431673   -0.385975
     16          8           0        1.071005   -4.827464    1.356753
     17          7           0       -4.919472    2.586413    1.460200
     18          6           0       -4.151092    2.389349    2.561520
     19          6           0       -3.779920    3.677987    3.184170
     20          6           0       -4.622889    4.563993    2.605282
     21          6           0       -5.269733    3.900602    1.576874
     22          6           0       -2.854990    3.905859    4.245371
     23          6           0       -4.817627    6.032795    2.867309
     24          8           0       -4.099595    6.575414    3.680431
     25          7           0       -6.872099    2.617403   -0.646015
     26          6           0       -6.974183    3.940411   -0.335153
     27          6           0       -7.993852    4.653682   -1.145008
     28          6           0       -8.444652    3.640466   -2.055831
     29          6           0       -7.808381    2.333416   -1.661087
     30          6           0       -8.333812    5.974400   -1.250716
     31          6           0       -9.343339    3.784000   -3.166718
     32          6           0       -8.744238    4.027540   -4.497606
     33          7           0       -6.310787   -0.106234   -1.110457
     34          6           0       -7.407849   -0.114573   -2.036902
     35          6           0       -7.577924   -1.300033   -2.716998
     36          6           0       -6.649636   -2.176936   -2.177704
     37          6           0       -5.835082   -1.411803   -1.175276
     38          6           0       -8.494432   -1.591397   -3.796406
     39          6           0       -6.130702   -3.572969   -2.085173
     40          8           0       -6.550579   -4.562229   -2.711209
     41          6           0       -4.905647   -3.624584   -0.976708
     42          6           0       -5.246126   -4.667376    0.010803
     43          8           0       -5.621640   -4.522978    1.205777
     44          8           0       -4.945668   -5.897534   -0.418631
     45          6           0       -5.232696   -6.905027    0.480027
     46          6           0        2.363797   -5.073968    0.723141
     47          6           0        3.383036   -4.047335    1.122564
     48          6           0        3.990814   -3.185940    0.235175
     49          6           0        3.659894   -2.969654   -1.286873
     50          6           0        5.075685   -2.236614    0.674339
     51          6           0        6.500774   -2.598726    0.117862
     52          6           0        7.626504   -1.701554    0.638588
     53          6           0        9.000736   -2.002139   -0.098018
     54          6           0        9.509190   -3.418806    0.088959
     55          6           0       10.025153   -0.894149    0.319985
     56          6           0       11.327510   -0.711018   -0.316982
     57          6           0       12.207943    0.364986    0.114682
     58          6           0       13.477659    0.419825   -0.668484
     59          6           0       14.408810   -0.711874   -0.379739
     60          6           0       14.210795    1.746483   -0.190692
     61          6           0       15.540549    2.070662   -0.923092
     62          6           0       16.053377    3.552939   -0.658821
     63          6           0       17.375644    3.883511   -1.305973
     64          6           0       17.233486    3.960169   -2.772947
     65          6           0       17.935038    5.146973   -0.784242
     66          1           0       -2.762169    0.988215    3.592640
     67          1           0       -6.502342    5.500850    0.913266
     68          1           0       -8.765025    0.795139   -3.076593
     69          1           0       -3.570878   -3.276275    1.736355
     70          1           0       -1.771136   -1.209205    2.906067
     71          1           0       -3.049382   -2.851201    4.301231
     72          1           0       -3.343380   -1.169646    4.641303
     73          1           0       -4.569507   -2.056477    3.934112
     74          1           0       -1.859921   -3.102150   -0.366923
     75          1           0       -1.198592   -1.661639    0.632256
     76          1           0       -0.731924   -3.321933    2.344984
     77          1           0       -1.603749   -4.567907    1.455150
     78          1           0       -1.725078    3.881207    3.883431
     79          1           0       -2.708899    4.908894    4.527385
     80          1           0       -2.872664    3.180417    5.121533
     81          1           0       -5.375889    6.630147    2.376679
     82          1           0       -9.840691    2.707015   -3.377831
     83          1           0      -10.227726    4.538978   -2.983627
     84          1           0       -9.469490    4.514289   -5.117362
     85          1           0       -7.776178    4.715731   -4.293275
     86          1           0       -8.337678    3.056640   -4.878688
     87          1           0       -8.336178   -1.094013   -4.639703
     88          1           0       -8.797410   -2.677188   -3.860887
     89          1           0       -9.572767   -1.474608   -3.614881
     90          1           0       -4.005209   -3.925516   -1.475534
     91          1           0        2.500809   -5.990448    1.153893
     92          1           0        2.417053   -4.927273   -0.367840
     93          1           0        3.759138   -4.210345    2.102254
     94          1           0        2.570476   -3.018804   -1.576181
     95          1           0        4.068205   -1.831780   -1.432384
     96          1           0        4.310794   -3.411906   -1.899019
     97          1           0        5.009524   -1.097179    0.587357
     98          1           0        5.020030   -2.263497    1.908207
     99          1           0        6.701258   -3.746616    0.194239
    100          1           0        6.366246   -2.406927   -0.974345
    101          1           0        7.127121   -0.589510    0.518777
    102          1           0        7.826909   -1.725126    1.664658
    103          1           0        8.788772   -1.950787   -1.264211
    104          1           0        8.759704   -4.212963   -0.015142
    105          1           0       10.416816   -3.589557   -0.459873
    106          1           0        9.563338   -3.721938    1.206523
    107          1           0        9.533793    0.034209    0.373368
    108          1           0       10.228520   -0.974511    1.387050
    109          1           0       11.824857   -1.736921   -0.263860
    110          1           0       11.313900   -0.601904   -1.361118
    111          1           0       11.763316    1.359057    0.006185
    112          1           0       12.462431    0.209000    1.144609
    113          1           0       13.227114    0.498992   -1.714631
    114          1           0       14.750875   -0.852168    0.761666
    115          1           0       13.842240   -1.612934   -0.603238
    116          1           0       15.375462   -0.639995   -1.019624
    117          1           0       13.473818    2.484497   -0.173145
    118          1           0       14.343702    1.654235    0.851927
    119          1           0       16.341030    1.343455   -0.379479
    120          1           0       15.609751    1.819912   -2.017503
    121          1           0       15.280240    4.365535   -1.043609
    122          1           0       16.333074    3.663585    0.435764
    123          1           0       18.197520    3.186900   -1.176005
    124          1           0       16.697757    4.899201   -3.221301
    125          1           0       18.230984    4.047216   -3.336013
    126          1           0       16.728178    3.329251   -3.462890
    127          1           0       18.006751    5.152404    0.407857
    128          1           0       18.990486    5.412086   -1.297753
    129          1           0       17.461642    5.990977   -0.896356
    130          1           0       -4.641048   -7.895991    0.014106
    131          1           0       -6.352272   -7.200199    0.508478
    132          1           0       -4.733118   -6.702245    1.449550
    133          8           0       -7.907653    6.858724   -0.566645
    134          1           0       -9.292934    6.368616   -1.903419
 ---------------------------------------------------------------------

 SCF Done:  E(RCAM-B3LYP) =  -3043.46811225     A.U. after   16 cycles

 Excitation energies and oscillator strengths:

 Excited State   1:      Singlet-A      2.0441 eV  606.54 nm  f=0.1799  <S**2>=0.000
     243 -> 246       -0.28492
     244 -> 245        0.63838
 This state for optimization and/or second-order correction.
 Total Energy, E(TD-HF/TD-KS) =  -3043.39299247
 Copying the excited state density for this state as the 1-particle RhoCI density.

 The electronic state is 1-A.
 Alpha  occ. eigenvalues --  -46.81196 -19.23460 -19.21753 -19.17769 -19.17119
 Alpha  occ. eigenvalues --  -19.17079 -19.16930 -19.16064 -14.38899 -14.38126
 Alpha  occ. eigenvalues --  -14.37363 -14.36835 -10.35703 -10.34498 -10.32817
 Alpha  occ. eigenvalues --  -10.29744 -10.29520 -10.28841 -10.28170 -10.28051
 Alpha  occ. eigenvalues --  -10.27460 -10.27268 -10.27243 -10.26456 -10.26331
 Alpha  occ. eigenvalues --  -10.26293 -10.26097 -10.26031 -10.25508 -10.25338
 Alpha  occ. eigenvalues --  -10.25027 -10.24902 -10.24428 -10.24386 -10.24343
 Alpha  occ. eigenvalues --  -10.24127 -10.24112 -10.23942 -10.23640 -10.23534
 Alpha  occ. eigenvalues --  -10.23395 -10.23338 -10.23216 -10.23136 -10.23095
 Alpha  occ. eigenvalues --  -10.22675 -10.22665 -10.22655 -10.22476 -10.22375
 Alpha  occ. eigenvalues --  -10.22156 -10.22077 -10.22016 -10.21570 -10.21447
 Alpha  occ. eigenvalues --  -10.21099 -10.20968 -10.20911 -10.20870 -10.20705
 Alpha  occ. eigenvalues --  -10.20269 -10.20157 -10.19769 -10.19542 -10.19507
 Alpha  occ. eigenvalues --  -10.19477  -3.09979  -1.84897  -1.84448  -1.84414
 Alpha  occ. eigenvalues --   -1.15383  -1.11578  -1.07565  -1.07521  -1.05898
 Alpha  occ. eigenvalues --   -1.03440  -1.03276  -1.01620  -1.00676  -0.98915
 Alpha  occ. eigenvalues --   -0.97920  -0.88320  -0.86665  -0.86167  -0.85989
 Alpha  occ. eigenvalues --   -0.85136  -0.85075  -0.84922  -0.84832  -0.84506
 Alpha  occ. eigenvalues --   -0.83549  -0.83284  -0.82287  -0.80975  -0.80261
 Alpha  occ. eigenvalues --   -0.79733  -0.78485  -0.78122  -0.77530  -0.76380
 Alpha  occ. eigenvalues --   -0.76016  -0.75535  -0.74709  -0.73193  -0.72605
 Alpha  occ. eigenvalues --   -0.71235  -0.71187  -0.70894  -0.70217  -0.70096
 Alpha  occ. eigenvalues --   -0.69979  -0.69287  -0.68289  -0.67001  -0.66485
 Alpha  occ. eigenvalues --   -0.65250  -0.64796  -0.63817  -0.62481  -0.62105
 Alpha  occ. eigenvalues --   -0.61905  -0.61158  -0.60643  -0.59569  -0.59432
 Alpha  occ. eigenvalues --   -0.59117  -0.58745  -0.58545  -0.57965  -0.57600
 Alpha  occ. eigenvalues --   -0.56759  -0.56571  -0.55941  -0.55784  -0.55038
 Alpha  occ. eigenvalues --   -0.55010  -0.54390  -0.53415  -0.53110  -0.52675
 Alpha  occ. eigenvalues --   -0.52380  -0.52241  -0.51362  -0.50965  -0.50748
 Alpha  occ. eigenvalues --   -0.50556  -0.50073  -0.50015  -0.49839  -0.49625
 Alpha  occ. eigenvalues --   -0.49185  -0.48689  -0.48662  -0.48450  -0.48239
 Alpha  occ. eigenvalues --   -0.48163  -0.47833  -0.47690  -0.47450  -0.47137
 Alpha  occ. eigenvalues --   -0.46993  -0.46881  -0.46731  -0.46380  -0.46113
 Alpha  occ. eigenvalues --   -0.45640  -0.45359  -0.45102  -0.44972  -0.44686
 Alpha  occ. eigenvalues --   -0.44665  -0.44571  -0.44384  -0.44190  -0.44103
 Alpha  occ. eigenvalues --   -0.43758  -0.43609  -0.43601  -0.42990  -0.42902
 Alpha  occ. eigenvalues --   -0.42675  -0.42351  -0.42233  -0.42010  -0.41794
 Alpha  occ. eigenvalues --   -0.41661  -0.41531  -0.41412  -0.41101  -0.40702
 Alpha  occ. eigenvalues --   -0.40676  -0.40406  -0.40140  -0.40103  -0.39915
 Alpha  occ. eigenvalues --   -0.39835  -0.39562  -0.39318  -0.39030  -0.38903
 Alpha  occ. eigenvalues --   -0.38759  -0.38557  -0.38474  -0.38365  -0.38042
 Alpha  occ. eigenvalues --   -0.38013  -0.37803  -0.37220  -0.37120  -0.36838
 Alpha  occ. eigenvalues --   -0.36758  -0.36391  -0.36094  -0.35840  -0.35539
 Alpha  occ. eigenvalues --   -0.35496  -0.35013  -0.34926  -0.34902  -0.34318
 Alpha  occ. eigenvalues --   -0.33920  -0.33718  -0.33690  -0.33389  -0.33322
 Alpha  occ. eigenvalues --   -0.33124  -0.32719  -0.32282  -0.32137  -0.31741
 Alpha  occ. eigenvalues --   -0.31589  -0.30838  -0.30785  -0.30571  -0.30167
 Alpha  occ. eigenvalues --   -0.29122  -0.28470  -0.28059  -0.27995  -0.27756
 Alpha  occ. eigenvalues --   -0.27230  -0.27085  -0.23189  -0.21853
 Alpha virt. eigenvalues --   -0.08765  -0.06861  -0.02294  -0.00806   0.00248
 Alpha virt. eigenvalues --    0.01860   0.02092   0.02549   0.03397   0.04335
 Alpha virt. eigenvalues --    0.04448   0.05369   0.07405   0.08223   0.09238

 Mulliken charges:
               1
     1  Mg   0.841050
     2  C    0.069747
     3  C   -0.186321
     4  C   -0.167481
     5  C   -0.117433
     6  N   -0.633993
     7  C    0.324382
     8  C   -0.146860
     9  C   -0.179237
    10  C    0.361469
    11  C   -0.285357
    12  C   -0.172503
    13  C   -0.275864
    14  C    0.627237
    15  O   -0.481538
    16  O   -0.494677
    17  N   -0.706629
    18  C    0.267249
    19  C    0.083950
    20  C   -0.027955
    21  C    0.326035
    22  C   -0.417823
    23  C    0.292142
    24  O   -0.411077
    25  N   -0.699433
    26  C    0.301525
    27  C    0.053795
    28  C    0.054595
    29  C    0.270173
    30  C    0.184991
    31  C   -0.276885
    32  C   -0.284016
    33  N   -0.718402
    34  C    0.242742
    35  C    0.059529
    36  C    0.029526
    37  C    0.276565
    38  C   -0.404998
    39  C    0.348164
    40  O   -0.457190
    41  C   -0.314757
    42  C    0.623803
    43  O   -0.504048
    44  O   -0.401793
    45  C   -0.077080
    46  C    0.024971
    47  C   -0.136355
    48  C    0.135844
    49  C   -0.384428
    50  C   -0.238111
    51  C   -0.167092
    52  C   -0.164564
    53  C   -0.045335
    54  C   -0.312985
    55  C   -0.169852
    56  C   -0.178430
    57  C   -0.162308
    58  C   -0.062388
    59  C   -0.295439
    60  C   -0.167714
    61  C   -0.182777
    62  C   -0.154619
    63  C   -0.035994
    64  C   -0.317155
    65  C   -0.293855
    66  H    0.087147
    67  H    0.110372
    68  H    0.082373
    69  H    0.120686
    70  H    0.085605
    71  H    0.097339
    72  H    0.117226
    73  H    0.137745
    74  H    0.102405
    75  H    0.116649
    76  H    0.130077
    77  H    0.149950
    78  H    0.104815
    79  H    0.166132
    80  H    0.121411
    81  H    0.089603
    82  H    0.088940
    83  H    0.109240
    84  H    0.123488
    85  H    0.091269
    86  H    0.109546
    87  H    0.146834
    88  H    0.142537
    89  H    0.124339
    90  H    0.171580
    91  H    0.110018
    92  H    0.128842
    93  H    0.085236
    94  H    0.159263
    95  H    0.084733
    96  H    0.139827
    97  H    0.102065
    98  H    0.059962
    99  H    0.087742
   100  H    0.098596
   101  H    0.064048
   102  H    0.107892
   103  H    0.066592
   104  H    0.103724
   105  H    0.116779
   106  H    0.081560
   107  H    0.089967
   108  H    0.083502
   109  H    0.076912
   110  H    0.088129
   111  H    0.087271
   112  H    0.087881
   113  H    0.086321
   114  H    0.080977
   115  H    0.097965
   116  H    0.095733
   117  H    0.082840
   118  H    0.095600
   119  H    0.075642
   120  H    0.095658
   121  H    0.079676
   122  H    0.083316
   123  H    0.101145
   124  H    0.074732
   125  H    0.083155
   126  H    0.109967
   127  H    0.070786
   128  H    0.074697
   129  H    0.120761
   130  H    0.088420
   131  H    0.129173
   132  H    0.130842
   133  O   -0.415737
   134  H    0.033753
 Sum of Mulliken charges =   0.00000

 Dipole moment (field-independent basis, Debye):
    X=              1.2530    Y=             -3.9079    Z=             -0.2746  Tot=              4.1130
 Quadrupole moment (field-independent basis, Debye-Ang):
   XX=           -383.4611   YY=           -442.1558   ZZ=           -391.5264
   XY=              8.0595   XZ=             18.3406   YZ=            -25.9842

 Normal termination of Gaussian 09 at Sat Oct  5 04:01:57 2019.
