 Gaussian 09, Revision D.01,
 Gaussian 09:  ES64L-G09RevD.01 24-Apr-2013

 ----------------------------------------------------------------------
 # td=(NStates=1) iop(3/107=0140000000,3/108=0140000000) iop(3/107=0140
 000000,3/108=0140000000) CAM-B3LYP/6-31G(d,p)
 ----------------------------------------------------------------------

 --
 TD
 --
 Symbolic Z-matrix:
 Charge =  0 Multiplicity = 1

                         Standard orientation:
 ---------------------------------------------------------------------
 Center     Atomic      Atomic             Coordinates (Angstroms)
 Number     Number       Type             X           Y           Z
 ---------------------------------------------------------------------
      1         12           0       -5.488517    1.327129    0.153421
      2          6           0       -5.019295   -2.081943   -0.316578
      3          6           0       -3.343097    1.154896    2.729387
      4          6           0       -6.097844    4.608304    0.659312
      5          6           0       -8.018195    1.173479   -2.297215
      6          7           0       -4.261211   -0.235746    0.994236
      7          6           0       -4.247423   -1.611279    0.612578
      8          6           0       -3.213537   -2.425853    1.540076
      9          6           0       -2.961223   -1.367547    2.621980
     10          6           0       -3.542431   -0.059230    2.092164
     11          6           0       -3.517574   -1.898088    3.910897
     12          6           0       -2.013441   -2.729567    0.592198
     13          6           0       -1.033212   -3.618204    1.443341
     14          6           0        0.248020   -3.941263    0.609437
     15          8           0        0.507455   -3.578440   -0.524527
     16          8           0        1.061079   -4.830841    1.258148
     17          7           0       -4.854755    2.591179    1.469475
     18          6           0       -3.908799    2.409933    2.473318
     19          6           0       -3.648034    3.624331    3.247800
     20          6           0       -4.468802    4.597344    2.655916
     21          6           0       -5.281198    3.914126    1.553892
     22          6           0       -2.689100    3.793478    4.294224
     23          6           0       -4.649433    5.968026    3.029133
     24          8           0       -3.988001    6.548690    3.904478
     25          7           0       -6.709162    2.703755   -0.750827
     26          6           0       -6.845844    4.080554   -0.328972
     27          6           0       -7.761230    4.707830   -1.283824
     28          6           0       -8.317120    3.701137   -2.047026
     29          6           0       -7.709145    2.477080   -1.685755
     30          6           0       -8.241508    6.123102   -1.157067
     31          6           0       -9.454216    3.812311   -3.095628
     32          6           0       -8.806298    3.820805   -4.528669
     33          7           0       -6.390091   -0.087599   -1.085330
     34          6           0       -7.432759    0.041281   -2.134317
     35          6           0       -7.654059   -1.282642   -2.760455
     36          6           0       -6.800973   -2.151542   -2.056252
     37          6           0       -5.940594   -1.373348   -1.038637
     38          6           0       -8.652057   -1.604814   -3.790807
     39          6           0       -6.241089   -3.455807   -2.080227
     40          8           0       -6.580229   -4.397410   -2.779445
     41          6           0       -5.194460   -3.489294   -0.907708
     42          6           0       -5.375829   -4.659257    0.044093
     43          8           0       -5.753003   -4.510388    1.220994
     44          8           0       -5.013920   -5.848525   -0.464099
     45          6           0       -5.370572   -7.070447    0.317204
     46          6           0        2.374079   -5.174245    0.617430
     47          6           0        3.332192   -4.166915    1.048211
     48          6           0        3.950805   -3.231458    0.332013
     49          6           0        3.725729   -2.993322   -1.165615
     50          6           0        5.052650   -2.402241    0.794300
     51          6           0        6.409243   -2.637057    0.219664
     52          6           0        7.574114   -1.806578    0.791330
     53          6           0        8.891345   -1.964537    0.053541
     54          6           0        9.447927   -3.316176    0.143439
     55          6           0        9.931422   -0.887948    0.434206
     56          6           0       11.344907   -0.779293   -0.204037
     57          6           0       12.198411    0.335180    0.196225
     58          6           0       13.462871    0.528980   -0.564240
     59          6           0       14.380901   -0.731092   -0.388273
     60          6           0       14.194674    1.787028   -0.181139
     61          6           0       15.470699    2.050245   -0.962494
     62          6           0       16.061971    3.439440   -0.833579
     63          6           0       17.371838    3.835390   -1.494925
     64          6           0       17.385926    3.844616   -2.964534
     65          6           0       17.874937    5.200612   -0.881231
     66          1           0       -2.618240    1.207440    3.570115
     67          1           0       -6.168114    5.827606    0.508733
     68          1           0       -8.887937    1.208694   -2.800976
     69          1           0       -3.752839   -3.379633    1.945041
     70          1           0       -1.864335   -1.260795    2.848223
     71          1           0       -2.850892   -2.733910    4.151295
     72          1           0       -3.399365   -0.968309    4.602707
     73          1           0       -4.448044   -2.282036    3.552611
     74          1           0       -2.425123   -3.329047   -0.428963
     75          1           0       -1.490114   -1.785055    0.248408
     76          1           0       -0.612982   -2.929615    2.389634
     77          1           0       -1.333966   -4.507154    1.795428
     78          1           0       -1.698634    3.730732    3.994361
     79          1           0       -3.001437    4.752448    4.751974
     80          1           0       -2.687569    2.965174    5.004503
     81          1           0       -5.235066    6.603481    2.337284
     82          1           0      -10.196551    2.992279   -2.833870
     83          1           0      -10.128933    4.768575   -2.967938
     84          1           0       -9.656031    3.938769   -5.213456
     85          1           0       -7.891381    4.487704   -4.668534
     86          1           0       -8.203257    2.897051   -4.808479
     87          1           0       -8.468089   -1.123108   -4.761230
     88          1           0       -8.619619   -2.760339   -4.127343
     89          1           0       -9.813668   -1.403071   -3.326867
     90          1           0       -4.309056   -3.610794   -1.638216
     91          1           0        2.603945   -6.151883    0.970329
     92          1           0        2.190891   -5.038381   -0.461451
     93          1           0        3.542719   -4.318479    2.011148
     94          1           0        2.763101   -3.425591   -1.458555
     95          1           0        4.122268   -2.096338   -1.501047
     96          1           0        4.579498   -3.558463   -1.687040
     97          1           0        4.759180   -1.335706    0.564206
     98          1           0        5.226190   -2.380013    1.920694
     99          1           0        6.714333   -3.823060    0.371132
    100          1           0        6.424473   -2.386720   -1.037723
    101          1           0        7.088169   -0.788698    0.603648
    102          1           0        7.607229   -2.123888    1.873520
    103          1           0        8.804150   -1.997547   -0.988429
    104          1           0        8.730499   -3.965550   -0.358788
    105          1           0       10.526595   -3.378121   -0.113914
    106          1           0        9.449087   -3.742172    1.187756
    107          1           0        9.338768    0.148877    0.341171
    108          1           0       10.095774   -0.835426    1.683674
    109          1           0       11.723857   -1.755475   -0.194521
    110          1           0       11.055589   -0.844679   -1.375974
    111          1           0       11.561275    1.333634    0.312482
    112          1           0       12.456256    0.297712    1.230848
    113          1           0       13.238642    0.649698   -1.548143
    114          1           0       14.679329   -0.554107    0.616463
    115          1           0       13.834887   -1.835816   -0.528375
    116          1           0       15.313973   -0.863403   -0.947374
    117          1           0       13.648146    2.669161   -0.459277
    118          1           0       14.425844    1.982895    0.845852
    119          1           0       16.198729    1.096083   -0.816986
    120          1           0       15.200811    1.793976   -2.126300
    121          1           0       15.558594    4.306528   -1.151416
    122          1           0       16.248208    3.756525    0.302873
    123          1           0       18.236525    3.110710   -1.245163
    124          1           0       16.749857    4.821481   -3.518009
    125          1           0       18.386672    4.035632   -3.357190
    126          1           0       17.054747    2.765550   -3.287623
    127          1           0       18.009229    5.013954    0.274011
    128          1           0       19.019771    5.446949   -1.311117
    129          1           0       17.202002    6.044407   -1.009342
    130          1           0       -5.207162   -8.069636   -0.163032
    131          1           0       -6.312511   -6.931403    0.711571
    132          1           0       -4.855461   -7.062440    1.295676
    133          8           0       -7.893978    6.984404   -0.396716
    134          1           0       -8.985555    6.304408   -2.027949
 ---------------------------------------------------------------------

 SCF Done:  E(RCAM-B3LYP) =  -3043.46879059     A.U. after   15 cycles

 Excitation energies and oscillator strengths:

 Excited State   1:      Singlet-A      1.9528 eV  634.91 nm  f=0.2112  <S**2>=0.000
     243 -> 246        0.19703
     244 -> 245        0.67182
 This state for optimization and/or second-order correction.
 Total Energy, E(TD-HF/TD-KS) =  -3043.39702761
 Copying the excited state density for this state as the 1-particle RhoCI density.

 The electronic state is 1-A.
 Alpha  occ. eigenvalues --  -46.80630 -19.23731 -19.20975 -19.17784 -19.17497
 Alpha  occ. eigenvalues --  -19.17139 -19.16918 -19.16443 -14.38939 -14.37254
 Alpha  occ. eigenvalues --  -14.37249 -14.36539 -10.36368 -10.34814 -10.31406
 Alpha  occ. eigenvalues --  -10.30792 -10.29479 -10.28117 -10.27628 -10.27621
 Alpha  occ. eigenvalues --  -10.27160 -10.27021 -10.26999 -10.26935 -10.26855
 Alpha  occ. eigenvalues --  -10.26497 -10.26355 -10.26186 -10.25780 -10.25757
 Alpha  occ. eigenvalues --  -10.25556 -10.25404 -10.25231 -10.25165 -10.24615
 Alpha  occ. eigenvalues --  -10.24504 -10.24099 -10.24089 -10.23884 -10.23689
 Alpha  occ. eigenvalues --  -10.23589 -10.23398 -10.23347 -10.23233 -10.23172
 Alpha  occ. eigenvalues --  -10.23102 -10.23087 -10.22745 -10.22679 -10.22476
 Alpha  occ. eigenvalues --  -10.22469 -10.22390 -10.22345 -10.22135 -10.22073
 Alpha  occ. eigenvalues --  -10.21722 -10.21498 -10.21449 -10.21373 -10.21256
 Alpha  occ. eigenvalues --  -10.21185 -10.20739 -10.20668 -10.20226 -10.20167
 Alpha  occ. eigenvalues --  -10.19864  -3.09366  -1.84289  -1.83851  -1.83776
 Alpha  occ. eigenvalues --   -1.13064  -1.11602  -1.07962  -1.06971  -1.04992
 Alpha  occ. eigenvalues --   -1.03787  -1.03179  -1.00013  -0.98410  -0.97814
 Alpha  occ. eigenvalues --   -0.96721  -0.89527  -0.87228  -0.86600  -0.85922
 Alpha  occ. eigenvalues --   -0.85369  -0.85259  -0.84289  -0.84175  -0.84011
 Alpha  occ. eigenvalues --   -0.83597  -0.83004  -0.81930  -0.80918  -0.80258
 Alpha  occ. eigenvalues --   -0.79588  -0.78882  -0.77968  -0.77284  -0.76852
 Alpha  occ. eigenvalues --   -0.75951  -0.75615  -0.74212  -0.73250  -0.72576
 Alpha  occ. eigenvalues --   -0.71639  -0.70726  -0.70382  -0.69924  -0.69741
 Alpha  occ. eigenvalues --   -0.69549  -0.69054  -0.67245  -0.66369  -0.65977
 Alpha  occ. eigenvalues --   -0.65916  -0.65240  -0.64077  -0.63045  -0.62214
 Alpha  occ. eigenvalues --   -0.61787  -0.61155  -0.60126  -0.59839  -0.59327
 Alpha  occ. eigenvalues --   -0.58495  -0.57724  -0.57413  -0.57092  -0.56844
 Alpha  occ. eigenvalues --   -0.56709  -0.56148  -0.55780  -0.55171  -0.54445
 Alpha  occ. eigenvalues --   -0.54038  -0.53387  -0.52784  -0.52569  -0.51714
 Alpha  occ. eigenvalues --   -0.51667  -0.51284  -0.50929  -0.50820  -0.50622
 Alpha  occ. eigenvalues --   -0.50318  -0.50116  -0.49840  -0.49469  -0.49138
 Alpha  occ. eigenvalues --   -0.48933  -0.48709  -0.48539  -0.48115  -0.47808
 Alpha  occ. eigenvalues --   -0.47507  -0.47457  -0.47205  -0.46986  -0.46757
 Alpha  occ. eigenvalues --   -0.46632  -0.46565  -0.46202  -0.45879  -0.45778
 Alpha  occ. eigenvalues --   -0.45659  -0.45523  -0.45450  -0.45286  -0.45206
 Alpha  occ. eigenvalues --   -0.44543  -0.44438  -0.44378  -0.43939  -0.43822
 Alpha  occ. eigenvalues --   -0.43715  -0.43535  -0.43221  -0.43089  -0.42886
 Alpha  occ. eigenvalues --   -0.42715  -0.42694  -0.42532  -0.42397  -0.42059
 Alpha  occ. eigenvalues --   -0.41785  -0.41560  -0.41481  -0.41314  -0.40871
 Alpha  occ. eigenvalues --   -0.40728  -0.40593  -0.40408  -0.40177  -0.40079
 Alpha  occ. eigenvalues --   -0.39874  -0.39772  -0.39612  -0.39463  -0.39434
 Alpha  occ. eigenvalues --   -0.38943  -0.38578  -0.38425  -0.38033  -0.37970
 Alpha  occ. eigenvalues --   -0.37676  -0.37507  -0.37330  -0.37110  -0.36747
 Alpha  occ. eigenvalues --   -0.36480  -0.36399  -0.36297  -0.35916  -0.35682
 Alpha  occ. eigenvalues --   -0.35604  -0.35160  -0.34772  -0.34515  -0.34381
 Alpha  occ. eigenvalues --   -0.33909  -0.33745  -0.33726  -0.33485  -0.33181
 Alpha  occ. eigenvalues --   -0.32898  -0.32836  -0.32305  -0.31790  -0.31783
 Alpha  occ. eigenvalues --   -0.31637  -0.31102  -0.31036  -0.30467  -0.30276
 Alpha  occ. eigenvalues --   -0.28692  -0.28138  -0.28063  -0.27688  -0.27493
 Alpha  occ. eigenvalues --   -0.27209  -0.27134  -0.24301  -0.21134
 Alpha virt. eigenvalues --   -0.08595  -0.06898  -0.02182  -0.00961   0.00967
 Alpha virt. eigenvalues --    0.01932   0.03063   0.03672   0.04072   0.04474
 Alpha virt. eigenvalues --    0.05124   0.06247   0.08112   0.08386   0.08947

 Mulliken charges:
               1
     1  Mg   0.825933
     2  C    0.176074
     3  C   -0.220949
     4  C   -0.184710
     5  C   -0.171418
     6  N   -0.644020
     7  C    0.229527
     8  C   -0.147248
     9  C   -0.165563
    10  C    0.415092
    11  C   -0.282292
    12  C   -0.156894
    13  C   -0.245874
    14  C    0.591359
    15  O   -0.471301
    16  O   -0.489951
    17  N   -0.734922
    18  C    0.317535
    19  C    0.079311
    20  C   -0.027126
    21  C    0.284201
    22  C   -0.399190
    23  C    0.223629
    24  O   -0.433541
    25  N   -0.682677
    26  C    0.272901
    27  C   -0.046387
    28  C    0.014827
    29  C    0.299082
    30  C    0.270795
    31  C   -0.239904
    32  C   -0.312468
    33  N   -0.730698
    34  C    0.302457
    35  C    0.091573
    36  C    0.015065
    37  C    0.283870
    38  C   -0.395851
    39  C    0.339357
    40  O   -0.458863
    41  C   -0.346983
    42  C    0.641300
    43  O   -0.497131
    44  O   -0.446876
    45  C   -0.098819
    46  C   -0.008646
    47  C   -0.120431
    48  C    0.175933
    49  C   -0.381399
    50  C   -0.238163
    51  C   -0.156748
    52  C   -0.152077
    53  C   -0.039489
    54  C   -0.317878
    55  C   -0.158222
    56  C   -0.164534
    57  C   -0.160284
    58  C   -0.046470
    59  C   -0.317277
    60  C   -0.183498
    61  C   -0.173882
    62  C   -0.146774
    63  C   -0.054589
    64  C   -0.272207
    65  C   -0.307233
    66  H    0.072174
    67  H    0.147791
    68  H    0.082149
    69  H    0.130863
    70  H    0.096208
    71  H    0.113472
    72  H    0.099158
    73  H    0.134608
    74  H    0.096130
    75  H    0.130945
    76  H    0.111612
    77  H    0.147934
    78  H    0.143041
    79  H    0.163399
    80  H    0.114181
    81  H    0.085083
    82  H    0.111782
    83  H    0.105347
    84  H    0.115601
    85  H    0.121077
    86  H    0.105223
    87  H    0.141676
    88  H    0.144575
    89  H    0.111118
    90  H    0.166245
    91  H    0.123068
    92  H    0.125698
    93  H    0.075519
    94  H    0.147438
    95  H    0.118687
    96  H    0.108542
    97  H    0.099964
    98  H    0.088075
    99  H    0.069391
   100  H    0.047492
   101  H    0.088811
   102  H    0.096858
   103  H    0.099925
   104  H    0.104924
   105  H    0.101725
   106  H    0.084479
   107  H    0.065261
   108  H    0.042244
   109  H    0.107495
   110  H    0.060751
   111  H    0.076599
   112  H    0.099308
   113  H    0.096876
   114  H    0.112806
   115  H    0.075496
   116  H    0.108331
   117  H    0.102295
   118  H    0.094519
   119  H    0.075106
   120  H    0.065320
   121  H    0.104381
   122  H    0.066539
   123  H    0.077240
   124  H    0.052199
   125  H    0.109033
   126  H    0.093230
   127  H    0.091194
   128  H    0.074819
   129  H    0.110763
   130  H    0.141427
   131  H    0.149667
   132  H    0.127317
   133  O   -0.413706
   134  H    0.043138
 Sum of Mulliken charges =   0.00000

 Dipole moment (field-independent basis, Debye):
    X=              1.9770    Y=             -6.0862    Z=             -1.5704  Tot=              6.5891
 Quadrupole moment (field-independent basis, Debye-Ang):
   XX=           -374.0442   YY=           -437.9635   ZZ=           -400.3625
   XY=             19.7806   XZ=             29.3366   YZ=            -35.1883

 Normal termination of Gaussian 09 at Thu Oct  3 22:23:35 2019.
