 Gaussian 09, Revision D.01,
 Gaussian 09:  ES64L-G09RevD.01 24-Apr-2013

 ----------------------------------------------------------------------
 # td=(NStates=1) iop(3/107=0140000000,3/108=0140000000) iop(3/107=0140
 000000,3/108=0140000000) CAM-B3LYP/6-31G(d,p)
 ----------------------------------------------------------------------

 --
 TD
 --
 Symbolic Z-matrix:
 Charge =  0 Multiplicity = 1

                         Standard orientation:
 ---------------------------------------------------------------------
 Center     Atomic      Atomic             Coordinates (Angstroms)
 Number     Number       Type             X           Y           Z
 ---------------------------------------------------------------------
      1         12           0       -5.684371    1.170115    0.178541
      2          6           0       -4.876752   -2.115171   -0.425919
      3          6           0       -3.535072    1.138896    2.805897
      4          6           0       -6.241251    4.456586    0.641025
      5          6           0       -7.902783    1.090491   -2.441396
      6          7           0       -4.372677   -0.233277    1.093075
      7          6           0       -4.242571   -1.543274    0.705593
      8          6           0       -3.220397   -2.254962    1.507435
      9          6           0       -2.915265   -1.271901    2.688277
     10          6           0       -3.641372   -0.079354    2.210205
     11          6           0       -3.573816   -1.731467    3.985978
     12          6           0       -1.958554   -2.596756    0.626882
     13          6           0       -0.862133   -3.416357    1.376941
     14          6           0        0.319358   -3.866200    0.580245
     15          8           0        0.470785   -3.635961   -0.527306
     16          8           0        1.227592   -4.528709    1.433108
     17          7           0       -5.060370    2.567561    1.515654
     18          6           0       -4.068282    2.389603    2.468208
     19          6           0       -3.816118    3.600874    3.268265
     20          6           0       -4.682063    4.576548    2.580570
     21          6           0       -5.323003    3.835914    1.540317
     22          6           0       -2.931966    3.745016    4.450314
     23          6           0       -4.867660    6.034255    2.941145
     24          8           0       -4.223329    6.521476    3.797641
     25          7           0       -6.933201    2.508124   -0.689837
     26          6           0       -7.009530    3.827299   -0.333195
     27          6           0       -8.072979    4.476196   -1.220075
     28          6           0       -8.655309    3.481597   -1.952827
     29          6           0       -7.876935    2.315800   -1.730954
     30          6           0       -8.390807    5.796428   -1.183236
     31          6           0       -9.713245    3.671879   -3.073393
     32          6           0       -9.108286    3.847114   -4.482329
     33          7           0       -6.294290   -0.200626   -1.253565
     34          6           0       -7.318446   -0.058487   -2.195582
     35          6           0       -7.376131   -1.392042   -2.899786
     36          6           0       -6.557395   -2.189635   -2.184858
     37          6           0       -5.852436   -1.417012   -1.220475
     38          6           0       -8.283885   -1.614134   -3.978175
     39          6           0       -6.076505   -3.528246   -2.081088
     40          8           0       -6.449447   -4.485802   -2.750715
     41          6           0       -4.936984   -3.496899   -1.021376
     42          6           0       -5.263024   -4.568118    0.106004
     43          8           0       -5.759303   -4.318499    1.218643
     44          8           0       -5.031156   -5.854048   -0.403580
     45          6           0       -5.328143   -6.907646    0.532033
     46          6           0        2.450653   -4.973537    0.831479
     47          6           0        3.518990   -4.056626    1.206566
     48          6           0        4.049811   -3.161482    0.370274
     49          6           0        3.874394   -3.063839   -1.195459
     50          6           0        5.282637   -2.268473    0.851053
     51          6           0        6.613484   -2.673733    0.109678
     52          6           0        7.795048   -1.870627    0.636281
     53          6           0        9.068110   -1.975557   -0.065808
     54          6           0        9.540739   -3.472994    0.231840
     55          6           0       10.121751   -0.905758    0.407510
     56          6           0       11.408001   -0.921346   -0.386611
     57          6           0       12.270852    0.332803    0.074533
     58          6           0       13.662896    0.447683   -0.578197
     59          6           0       14.527308   -0.719268   -0.227654
     60          6           0       14.269024    1.757189   -0.333481
     61          6           0       15.525202    2.210287   -1.039918
     62          6           0       15.989407    3.606348   -0.764972
     63          6           0       17.309512    4.025644   -1.346175
     64          6           0       17.282541    4.033316   -2.874589
     65          6           0       17.778191    5.405478   -0.839098
     66          1           0       -2.951128    1.306388    3.679858
     67          1           0       -6.393531    5.496704    0.700256
     68          1           0       -8.684923    1.150213   -3.224397
     69          1           0       -3.709581   -3.056589    1.859128
     70          1           0       -1.863208   -0.974383    3.027703
     71          1           0       -2.941495   -2.595147    4.327079
     72          1           0       -3.508934   -0.789870    4.476999
     73          1           0       -4.698232   -2.209558    3.764692
     74          1           0       -2.249933   -3.238370   -0.216301
     75          1           0       -1.454867   -1.633599    0.171414
     76          1           0       -0.400957   -2.816659    2.384264
     77          1           0       -1.380251   -4.363450    1.706141
     78          1           0       -1.804502    3.450422    4.023425
     79          1           0       -3.009771    4.873059    4.698046
     80          1           0       -3.095925    2.883303    5.113263
     81          1           0       -5.602732    6.524219    2.302593
     82          1           0      -10.523347    2.983485   -3.152734
     83          1           0      -10.378193    4.394630   -2.726614
     84          1           0       -9.944290    4.147224   -5.345985
     85          1           0       -8.352865    4.697607   -4.500809
     86          1           0       -8.510776    3.044726   -4.665070
     87          1           0       -8.032926   -0.922593   -4.692147
     88          1           0       -8.331565   -2.631641   -4.427903
     89          1           0       -9.161589   -1.417615   -3.855311
     90          1           0       -4.103091   -3.752928   -1.584458
     91          1           0        2.792222   -5.973808    1.301285
     92          1           0        2.319317   -5.102787   -0.183008
     93          1           0        3.839771   -4.100322    2.284813
     94          1           0        2.974469   -3.590387   -1.740295
     95          1           0        3.760423   -1.847053   -1.459137
     96          1           0        4.777838   -3.342447   -1.546796
     97          1           0        4.966022   -1.188318    0.684022
     98          1           0        5.312843   -2.354598    1.880090
     99          1           0        6.942636   -3.858826    0.178309
    100          1           0        6.451684   -2.321582   -0.962545
    101          1           0        7.312788   -0.780840    0.539236
    102          1           0        8.095890   -1.909999    1.735434
    103          1           0        8.872427   -1.755142   -1.188980
    104          1           0        8.884385   -4.291314   -0.355567
    105          1           0       10.557845   -3.759478   -0.087017
    106          1           0        9.425243   -3.388970    1.334594
    107          1           0        9.666506    0.046420    0.557724
    108          1           0       10.542971   -1.107676    1.601890
    109          1           0       11.963311   -1.883697   -0.417675
    110          1           0       10.992192   -0.667303   -1.472840
    111          1           0       11.609077    1.211863   -0.144808
    112          1           0       12.391852    0.308267    1.142525
    113          1           0       13.531876    0.295701   -1.762520
    114          1           0       14.483853   -0.641706    0.873211
    115          1           0       14.134409   -1.749686   -0.491489
    116          1           0       15.355784   -0.614211   -0.773871
    117          1           0       13.519382    2.420385   -0.548275
    118          1           0       14.572248    1.786181    0.807972
    119          1           0       16.374593    1.582608   -0.818065
    120          1           0       15.483036    2.140827   -2.109206
    121          1           0       15.121543    4.236974   -1.161680
    122          1           0       15.881665    3.663012    0.216003
    123          1           0       18.128218    3.137375   -1.110530
    124          1           0       16.598606    4.856732   -3.037326
    125          1           0       18.180679    4.453891   -3.360517
    126          1           0       16.866278    3.236703   -3.488709
    127          1           0       17.850325    5.397807    0.233325
    128          1           0       18.798878    5.621271   -0.996750
    129          1           0       17.017796    6.307222   -1.315739
    130          1           0       -5.110832   -7.919139   -0.000004
    131          1           0       -6.293404   -6.639450    0.901206
    132          1           0       -4.594114   -6.688504    1.444338
    133          8           0       -8.024812    6.784416   -0.479169
    134          1           0       -9.183191    5.873532   -2.082060
 ---------------------------------------------------------------------

 SCF Done:  E(RCAM-B3LYP) =  -3043.46600973     A.U. after   15 cycles

 Excitation energies and oscillator strengths:

 Excited State   1:      Singlet-A      2.0220 eV  613.16 nm  f=0.1770  <S**2>=0.000
     243 -> 246        0.27339
     244 -> 245        0.64351
 This state for optimization and/or second-order correction.
 Total Energy, E(TD-HF/TD-KS) =  -3043.39170099
 Copying the excited state density for this state as the 1-particle RhoCI density.

 The electronic state is 1-A.
 Alpha  occ. eigenvalues --  -46.81658 -19.23069 -19.20872 -19.19301 -19.18455
 Alpha  occ. eigenvalues --  -19.17692 -19.17239 -19.16236 -14.39207 -14.37270
 Alpha  occ. eigenvalues --  -14.36513 -14.36359 -10.36953 -10.34853 -10.31310
 Alpha  occ. eigenvalues --  -10.30432 -10.29210 -10.28701 -10.28220 -10.26903
 Alpha  occ. eigenvalues --  -10.26476 -10.26442 -10.26419 -10.26380 -10.26159
 Alpha  occ. eigenvalues --  -10.25778 -10.25747 -10.25745 -10.25618 -10.25487
 Alpha  occ. eigenvalues --  -10.25174 -10.25063 -10.24926 -10.24633 -10.24401
 Alpha  occ. eigenvalues --  -10.24191 -10.24110 -10.23699 -10.23698 -10.23626
 Alpha  occ. eigenvalues --  -10.23503 -10.23362 -10.23262 -10.23233 -10.22983
 Alpha  occ. eigenvalues --  -10.22946 -10.22789 -10.22665 -10.22569 -10.22452
 Alpha  occ. eigenvalues --  -10.22208 -10.22131 -10.22068 -10.21969 -10.21723
 Alpha  occ. eigenvalues --  -10.21680 -10.21488 -10.21471 -10.21067 -10.21050
 Alpha  occ. eigenvalues --  -10.20361 -10.20254 -10.19623 -10.19400 -10.19317
 Alpha  occ. eigenvalues --  -10.19177  -3.10243  -1.85189  -1.84728  -1.84632
 Alpha  occ. eigenvalues --   -1.14804  -1.12365  -1.09493  -1.06721  -1.06335
 Alpha  occ. eigenvalues --   -1.04959  -1.02992  -1.01794  -1.01015  -1.00605
 Alpha  occ. eigenvalues --   -0.98414  -0.89347  -0.86442  -0.86164  -0.86002
 Alpha  occ. eigenvalues --   -0.85637  -0.85535  -0.85104  -0.84346  -0.84262
 Alpha  occ. eigenvalues --   -0.83857  -0.82709  -0.81816  -0.80651  -0.79983
 Alpha  occ. eigenvalues --   -0.79680  -0.78726  -0.78405  -0.77329  -0.76879
 Alpha  occ. eigenvalues --   -0.76290  -0.75130  -0.74061  -0.73249  -0.72615
 Alpha  occ. eigenvalues --   -0.71716  -0.71150  -0.70591  -0.70222  -0.69843
 Alpha  occ. eigenvalues --   -0.69809  -0.68941  -0.67802  -0.67172  -0.66370
 Alpha  occ. eigenvalues --   -0.65877  -0.64932  -0.64597  -0.62931  -0.62541
 Alpha  occ. eigenvalues --   -0.61983  -0.61230  -0.59850  -0.59539  -0.58773
 Alpha  occ. eigenvalues --   -0.58604  -0.57955  -0.57883  -0.57696  -0.56685
 Alpha  occ. eigenvalues --   -0.56641  -0.56487  -0.55812  -0.55657  -0.54873
 Alpha  occ. eigenvalues --   -0.54480  -0.54210  -0.52883  -0.52640  -0.52198
 Alpha  occ. eigenvalues --   -0.51855  -0.51568  -0.51251  -0.50755  -0.50624
 Alpha  occ. eigenvalues --   -0.50266  -0.50146  -0.50092  -0.49638  -0.49468
 Alpha  occ. eigenvalues --   -0.49367  -0.49215  -0.48918  -0.48813  -0.48298
 Alpha  occ. eigenvalues --   -0.48122  -0.47920  -0.47742  -0.47371  -0.47186
 Alpha  occ. eigenvalues --   -0.47032  -0.46796  -0.46643  -0.46358  -0.46156
 Alpha  occ. eigenvalues --   -0.45834  -0.45611  -0.45420  -0.45388  -0.45101
 Alpha  occ. eigenvalues --   -0.44759  -0.44650  -0.44426  -0.44157  -0.43892
 Alpha  occ. eigenvalues --   -0.43638  -0.43506  -0.43407  -0.43166  -0.43121
 Alpha  occ. eigenvalues --   -0.42979  -0.42799  -0.42643  -0.42278  -0.42041
 Alpha  occ. eigenvalues --   -0.42039  -0.41689  -0.41341  -0.41223  -0.40832
 Alpha  occ. eigenvalues --   -0.40649  -0.40335  -0.40237  -0.40157  -0.40090
 Alpha  occ. eigenvalues --   -0.39851  -0.39575  -0.39451  -0.39338  -0.39030
 Alpha  occ. eigenvalues --   -0.38957  -0.38920  -0.38823  -0.38372  -0.38314
 Alpha  occ. eigenvalues --   -0.38233  -0.38111  -0.37701  -0.37468  -0.37388
 Alpha  occ. eigenvalues --   -0.37186  -0.37007  -0.36481  -0.36414  -0.35975
 Alpha  occ. eigenvalues --   -0.35888  -0.35312  -0.35285  -0.35125  -0.34975
 Alpha  occ. eigenvalues --   -0.34560  -0.34375  -0.33983  -0.33310  -0.33134
 Alpha  occ. eigenvalues --   -0.32697  -0.32524  -0.32356  -0.32269  -0.32093
 Alpha  occ. eigenvalues --   -0.31745  -0.31688  -0.31506  -0.31100  -0.30272
 Alpha  occ. eigenvalues --   -0.29219  -0.28266  -0.28241  -0.28085  -0.27489
 Alpha  occ. eigenvalues --   -0.27267  -0.26619  -0.23252  -0.21474
 Alpha virt. eigenvalues --   -0.08587  -0.06970  -0.01723  -0.00206   0.00215
 Alpha virt. eigenvalues --    0.01789   0.03294   0.03788   0.04019   0.04782
 Alpha virt. eigenvalues --    0.05222   0.06252   0.08104   0.08478   0.09095

 Mulliken charges:
               1
     1  Mg   0.816478
     2  C    0.081960
     3  C   -0.210976
     4  C   -0.172471
     5  C   -0.182749
     6  N   -0.636740
     7  C    0.310281
     8  C   -0.136444
     9  C   -0.169530
    10  C    0.395645
    11  C   -0.284532
    12  C   -0.167647
    13  C   -0.259884
    14  C    0.601446
    15  O   -0.404285
    16  O   -0.491644
    17  N   -0.697739
    18  C    0.273363
    19  C    0.052226
    20  C   -0.079210
    21  C    0.361630
    22  C   -0.387916
    23  C    0.276255
    24  O   -0.398074
    25  N   -0.700287
    26  C    0.316959
    27  C    0.066812
    28  C    0.007959
    29  C    0.259419
    30  C    0.195325
    31  C   -0.238897
    32  C   -0.298022
    33  N   -0.745224
    34  C    0.286812
    35  C    0.027865
    36  C    0.043860
    37  C    0.321969
    38  C   -0.367169
    39  C    0.339523
    40  O   -0.458340
    41  C   -0.319182
    42  C    0.612222
    43  O   -0.474717
    44  O   -0.451311
    45  C   -0.079868
    46  C    0.011821
    47  C   -0.123484
    48  C    0.109943
    49  C   -0.358631
    50  C   -0.225558
    51  C   -0.164433
    52  C   -0.155067
    53  C   -0.058646
    54  C   -0.298618
    55  C   -0.150462
    56  C   -0.166382
    57  C   -0.173800
    58  C   -0.069079
    59  C   -0.287574
    60  C   -0.138749
    61  C   -0.196315
    62  C   -0.138163
    63  C   -0.052670
    64  C   -0.313163
    65  C   -0.298990
    66  H    0.056071
    67  H    0.116561
    68  H    0.087156
    69  H    0.122855
    70  H    0.115631
    71  H    0.113172
    72  H    0.114268
    73  H    0.106758
    74  H    0.116632
    75  H    0.110338
    76  H    0.108837
    77  H    0.130666
    78  H    0.101776
    79  H    0.170326
    80  H    0.134610
    81  H    0.092075
    82  H    0.112962
    83  H    0.121258
    84  H    0.093789
    85  H    0.112701
    86  H    0.123336
    87  H    0.131311
    88  H    0.141561
    89  H    0.141945
    90  H    0.168465
    91  H    0.096026
    92  H    0.119358
    93  H    0.083930
    94  H    0.124261
    95  H    0.079622
    96  H    0.142231
    97  H    0.096193
    98  H    0.107049
    99  H    0.082947
   100  H    0.102039
   101  H    0.059317
   102  H    0.085831
   103  H    0.069218
   104  H    0.088834
   105  H    0.100591
   106  H    0.106817
   107  H    0.104072
   108  H    0.032700
   109  H    0.101395
   110  H    0.074132
   111  H    0.085533
   112  H    0.091004
   113  H    0.051232
   114  H    0.091494
   115  H    0.088162
   116  H    0.114074
   117  H    0.097415
   118  H    0.062267
   119  H    0.088592
   120  H    0.088408
   121  H    0.069913
   122  H    0.095001
   123  H    0.056843
   124  H    0.096401
   125  H    0.098994
   126  H    0.107113
   127  H    0.106338
   128  H    0.111447
   129  H    0.075202
   130  H    0.133539
   131  H    0.149392
   132  H    0.103755
   133  O   -0.474429
   134  H    0.023557
 Sum of Mulliken charges =   0.00000

 Dipole moment (field-independent basis, Debye):
    X=              2.5492    Y=             -5.6459    Z=             -1.0150  Tot=              6.2773
 Quadrupole moment (field-independent basis, Debye-Ang):
   XX=           -380.2188   YY=           -449.2366   ZZ=           -394.7767
   XY=             26.9393   XZ=             21.9512   YZ=            -27.0334

 Normal termination of Gaussian 09 at Tue Oct  8 01:27:18 2019.
