 Gaussian 09, Revision D.01,
 Gaussian 09:  ES64L-G09RevD.01 24-Apr-2013

 ----------------------------------------------------------------------
 # td=(NStates=1) iop(3/107=0140000000,3/108=0140000000) iop(3/107=0140
 000000,3/108=0140000000) CAM-B3LYP/6-31G(d,p)
 ----------------------------------------------------------------------

 --
 TD
 --
 Symbolic Z-matrix:
 Charge =  0 Multiplicity = 1

                         Standard orientation:
 ---------------------------------------------------------------------
 Center     Atomic      Atomic             Coordinates (Angstroms)
 Number     Number       Type             X           Y           Z
 ---------------------------------------------------------------------
      1         12           0       -5.671692    1.240179    0.239773
      2          6           0       -4.915731   -2.106280   -0.429772
      3          6           0       -3.307159    1.316037    2.770488
      4          6           0       -6.291139    4.574417    0.521662
      5          6           0       -7.987450    1.095891   -2.360398
      6          7           0       -4.334109   -0.232017    1.082798
      7          6           0       -4.148003   -1.562773    0.675287
      8          6           0       -3.213944   -2.202759    1.418596
      9          6           0       -2.886947   -1.190755    2.623323
     10          6           0       -3.570035    0.003665    2.166750
     11          6           0       -3.377071   -1.654785    4.057858
     12          6           0       -1.980109   -2.678496    0.600658
     13          6           0       -0.911952   -3.367117    1.432125
     14          6           0        0.313655   -3.789066    0.630908
     15          8           0        0.619449   -3.293865   -0.486415
     16          8           0        0.990239   -4.711257    1.215231
     17          7           0       -4.980380    2.653745    1.440571
     18          6           0       -3.915295    2.495478    2.331266
     19          6           0       -3.685942    3.701720    3.038385
     20          6           0       -4.572595    4.667082    2.498903
     21          6           0       -5.272772    4.010605    1.452442
     22          6           0       -2.759519    4.018547    4.241090
     23          6           0       -4.614269    6.059723    2.876532
     24          8           0       -3.915924    6.596503    3.681377
     25          7           0       -6.833822    2.549059   -0.731689
     26          6           0       -6.979598    3.946591   -0.408828
     27          6           0       -8.064873    4.510549   -1.236607
     28          6           0       -8.521346    3.478638   -2.034996
     29          6           0       -7.779577    2.278110   -1.712991
     30          6           0       -8.450518    5.880310   -1.199622
     31          6           0       -9.605973    3.524952   -3.229822
     32          6           0       -8.799861    3.575212   -4.587301
     33          7           0       -6.389389   -0.133102   -1.095020
     34          6           0       -7.392304   -0.087741   -2.145202
     35          6           0       -7.583140   -1.423861   -2.678986
     36          6           0       -6.710700   -2.270154   -1.999267
     37          6           0       -5.943428   -1.389864   -1.083295
     38          6           0       -8.685720   -1.688750   -3.730931
     39          6           0       -6.173777   -3.607860   -1.932635
     40          8           0       -6.501835   -4.665975   -2.419833
     41          6           0       -5.045330   -3.547308   -0.898709
     42          6           0       -5.291199   -4.583315    0.180541
     43          8           0       -5.710021   -4.390037    1.274006
     44          8           0       -4.859903   -5.773196   -0.275886
     45          6           0       -5.173885   -6.896773    0.690591
     46          6           0        2.253578   -5.114664    0.633685
     47          6           0        3.356550   -4.131223    1.095056
     48          6           0        3.961432   -3.252162    0.207036
     49          6           0        3.592289   -3.100889   -1.272150
     50          6           0        5.101716   -2.351416    0.735717
     51          6           0        6.520874   -2.652701    0.010379
     52          6           0        7.655661   -1.765051    0.578852
     53          6           0        9.004001   -1.976538   -0.120376
     54          6           0        9.601584   -3.403933    0.247281
     55          6           0        9.965831   -0.801548    0.366628
     56          6           0       11.306558   -0.829612   -0.274480
     57          6           0       12.172974    0.418867    0.076430
     58          6           0       13.542119    0.453363   -0.576762
     59          6           0       14.487694   -0.786991   -0.114644
     60          6           0       14.200490    1.814483   -0.216770
     61          6           0       15.479943    2.067946   -1.036745
     62          6           0       15.999477    3.433757   -0.654296
     63          6           0       17.370604    3.785598   -1.401109
     64          6           0       17.269098    4.025696   -2.945351
     65          6           0       18.011827    5.062714   -0.863697
     66          1           0       -2.659664    1.419119    3.611184
     67          1           0       -6.491189    5.627090    0.844300
     68          1           0       -8.605609    0.970909   -3.222227
     69          1           0       -3.465692   -3.155662    1.846266
     70          1           0       -1.706970   -1.034147    2.587871
     71          1           0       -2.984161   -2.549946    4.318185
     72          1           0       -3.078908   -0.898771    4.592712
     73          1           0       -4.419465   -1.662349    4.120826
     74          1           0       -2.437691   -3.275101   -0.209846
     75          1           0       -1.502053   -1.981648    0.024666
     76          1           0       -0.566003   -2.652562    2.183975
     77          1           0       -1.361186   -4.279603    1.971899
     78          1           0       -1.650590    4.077245    3.969782
     79          1           0       -2.983646    5.025253    4.696101
     80          1           0       -2.828238    3.205966    4.944052
     81          1           0       -5.593349    6.621929    2.499893
     82          1           0      -10.270158    2.698572   -3.067663
     83          1           0      -10.037592    4.449142   -2.885271
     84          1           0       -9.482709    3.805636   -5.318594
     85          1           0       -8.191166    4.526933   -4.605765
     86          1           0       -8.212061    2.666321   -4.792640
     87          1           0       -8.679890   -1.065942   -4.635630
     88          1           0       -8.552307   -2.650255   -4.116344
     89          1           0       -9.631011   -1.461111   -3.212867
     90          1           0       -4.052527   -3.892904   -1.281665
     91          1           0        2.488466   -6.012193    0.927959
     92          1           0        2.472370   -5.148510   -0.475973
     93          1           0        3.662275   -4.221897    2.137451
     94          1           0        2.686999   -3.569975   -1.263904
     95          1           0        3.502281   -2.001200   -1.390383
     96          1           0        4.338560   -3.613880   -1.961017
     97          1           0        5.030066   -1.311588    0.601978
     98          1           0        5.406407   -2.539560    1.846609
     99          1           0        6.710902   -3.768962    0.185102
    100          1           0        6.375799   -2.464916   -1.126990
    101          1           0        7.219886   -0.725462    0.732320
    102          1           0        7.683512   -1.992681    1.583589
    103          1           0        8.946925   -2.001147   -1.271398
    104          1           0        8.747989   -4.094368   -0.234127
    105          1           0       10.539233   -3.577623   -0.216845
    106          1           0        9.603534   -3.381164    1.381254
    107          1           0        9.492173    0.239636    0.034996
    108          1           0       10.037643   -1.063751    1.403616
    109          1           0       11.870230   -1.855974    0.066944
    110          1           0       11.177135   -0.755234   -1.485767
    111          1           0       11.619901    1.267319   -0.036175
    112          1           0       12.459031    0.222101    1.133414
    113          1           0       13.493132    0.274001   -1.806425
    114          1           0       14.458168   -0.847578    0.984082
    115          1           0       13.881527   -1.685660   -0.521340
    116          1           0       15.454918   -0.596088   -0.706647
    117          1           0       13.429546    2.578906   -0.506536
    118          1           0       14.272562    1.825992    1.018123
    119          1           0       16.116639    1.366483   -0.638992
    120          1           0       15.247106    1.906886   -2.099834
    121          1           0       15.310338    4.119157   -1.112409
    122          1           0       16.121370    3.550227    0.446420
    123          1           0       18.170019    3.012668   -1.189406
    124          1           0       16.850318    4.995996   -3.187523
    125          1           0       18.477403    4.137233   -3.147153
    126          1           0       16.953502    3.237865   -3.430966
    127          1           0       18.101712    5.162587    0.159068
    128          1           0       18.772819    5.429569   -1.413365
    129          1           0       17.260260    5.850303   -0.812625
    130          1           0       -4.955385   -7.870607    0.101756
    131          1           0       -6.301003   -6.672017    1.031720
    132          1           0       -4.692427   -6.609174    1.645870
    133          8           0       -8.020323    6.716674   -0.504279
    134          1           0       -9.380001    6.180045   -1.953530
 ---------------------------------------------------------------------

 SCF Done:  E(RCAM-B3LYP) =  -3043.53908899     A.U. after   16 cycles

 Excitation energies and oscillator strengths:

 Excited State   1:      Singlet-A      1.8648 eV  664.88 nm  f=0.2246  <S**2>=0.000
     243 -> 246       -0.20617
     244 -> 245        0.66798
 This state for optimization and/or second-order correction.
 Total Energy, E(TD-HF/TD-KS) =  -3043.47056050
 Copying the excited state density for this state as the 1-particle RhoCI density.

 The electronic state is 1-A.
 Alpha  occ. eigenvalues --  -46.80366 -19.24492 -19.22412 -19.17606 -19.17363
 Alpha  occ. eigenvalues --  -19.16864 -19.16766 -19.16335 -14.39510 -14.36748
 Alpha  occ. eigenvalues --  -14.36375 -14.36349 -10.35451 -10.34725 -10.31188
 Alpha  occ. eigenvalues --  -10.30585 -10.29994 -10.29335 -10.27713 -10.27627
 Alpha  occ. eigenvalues --  -10.27582 -10.26547 -10.26108 -10.26077 -10.26002
 Alpha  occ. eigenvalues --  -10.25936 -10.25907 -10.25721 -10.25038 -10.24820
 Alpha  occ. eigenvalues --  -10.24759 -10.24523 -10.24493 -10.24181 -10.23990
 Alpha  occ. eigenvalues --  -10.23920 -10.23645 -10.23172 -10.23109 -10.23058
 Alpha  occ. eigenvalues --  -10.23038 -10.23032 -10.22881 -10.22650 -10.22584
 Alpha  occ. eigenvalues --  -10.22581 -10.22578 -10.22408 -10.22331 -10.22212
 Alpha  occ. eigenvalues --  -10.22088 -10.22043 -10.21835 -10.21793 -10.21716
 Alpha  occ. eigenvalues --  -10.21706 -10.21525 -10.21403 -10.20939 -10.20609
 Alpha  occ. eigenvalues --  -10.20545 -10.20440 -10.20117 -10.19982 -10.19908
 Alpha  occ. eigenvalues --  -10.17664  -3.09113  -1.84038  -1.83585  -1.83535
 Alpha  occ. eigenvalues --   -1.15911  -1.13838  -1.09815  -1.07836  -1.07363
 Alpha  occ. eigenvalues --   -1.05258  -1.02927  -1.00913  -0.98863  -0.98432
 Alpha  occ. eigenvalues --   -0.97136  -0.88604  -0.86495  -0.85243  -0.85003
 Alpha  occ. eigenvalues --   -0.84799  -0.83992  -0.83835  -0.83639  -0.83328
 Alpha  occ. eigenvalues --   -0.82582  -0.81990  -0.81802  -0.80652  -0.79777
 Alpha  occ. eigenvalues --   -0.79354  -0.78563  -0.77879  -0.76987  -0.76909
 Alpha  occ. eigenvalues --   -0.75372  -0.74628  -0.74472  -0.72299  -0.72230
 Alpha  occ. eigenvalues --   -0.71370  -0.71266  -0.70216  -0.69883  -0.69746
 Alpha  occ. eigenvalues --   -0.69376  -0.69226  -0.68038  -0.67064  -0.66866
 Alpha  occ. eigenvalues --   -0.65652  -0.64224  -0.64222  -0.62392  -0.61940
 Alpha  occ. eigenvalues --   -0.61542  -0.60519  -0.60418  -0.59576  -0.58659
 Alpha  occ. eigenvalues --   -0.58214  -0.57647  -0.57487  -0.57203  -0.56130
 Alpha  occ. eigenvalues --   -0.56076  -0.56013  -0.55362  -0.54796  -0.54425
 Alpha  occ. eigenvalues --   -0.54291  -0.53718  -0.53132  -0.52270  -0.52168
 Alpha  occ. eigenvalues --   -0.51935  -0.51392  -0.51316  -0.50749  -0.50580
 Alpha  occ. eigenvalues --   -0.50283  -0.49948  -0.49761  -0.49504  -0.49356
 Alpha  occ. eigenvalues --   -0.48771  -0.48740  -0.48544  -0.48285  -0.48063
 Alpha  occ. eigenvalues --   -0.47886  -0.47573  -0.47542  -0.47118  -0.46882
 Alpha  occ. eigenvalues --   -0.46778  -0.46648  -0.46436  -0.46271  -0.45873
 Alpha  occ. eigenvalues --   -0.45671  -0.45478  -0.45332  -0.45170  -0.45037
 Alpha  occ. eigenvalues --   -0.44822  -0.44696  -0.44526  -0.44208  -0.43951
 Alpha  occ. eigenvalues --   -0.43703  -0.43378  -0.43306  -0.43026  -0.42939
 Alpha  occ. eigenvalues --   -0.42756  -0.42534  -0.42430  -0.41858  -0.41467
 Alpha  occ. eigenvalues --   -0.41433  -0.41359  -0.41128  -0.41035  -0.40957
 Alpha  occ. eigenvalues --   -0.40881  -0.40861  -0.40552  -0.40274  -0.40151
 Alpha  occ. eigenvalues --   -0.40085  -0.39810  -0.39628  -0.39509  -0.39347
 Alpha  occ. eigenvalues --   -0.39280  -0.39185  -0.39093  -0.38915  -0.38737
 Alpha  occ. eigenvalues --   -0.38408  -0.38356  -0.38117  -0.37940  -0.37354
 Alpha  occ. eigenvalues --   -0.36560  -0.36443  -0.36290  -0.35634  -0.35396
 Alpha  occ. eigenvalues --   -0.35107  -0.34947  -0.34895  -0.34860  -0.34686
 Alpha  occ. eigenvalues --   -0.34422  -0.34023  -0.33483  -0.33399  -0.33272
 Alpha  occ. eigenvalues --   -0.33022  -0.32539  -0.32116  -0.32093  -0.31716
 Alpha  occ. eigenvalues --   -0.31548  -0.30975  -0.30200  -0.29924  -0.29689
 Alpha  occ. eigenvalues --   -0.28898  -0.28171  -0.27939  -0.27667  -0.27231
 Alpha  occ. eigenvalues --   -0.27069  -0.26971  -0.23285  -0.20742
 Alpha virt. eigenvalues --   -0.08846  -0.06125  -0.02259  -0.00114   0.01209
 Alpha virt. eigenvalues --    0.02909   0.03495   0.03651   0.04048   0.04383
 Alpha virt. eigenvalues --    0.05331   0.06220   0.08473   0.08573   0.09451

 Mulliken charges:
               1
     1  Mg   0.818071
     2  C    0.062477
     3  C   -0.168108
     4  C   -0.195775
     5  C   -0.188641
     6  N   -0.633538
     7  C    0.367776
     8  C   -0.186686
     9  C   -0.187173
    10  C    0.341583
    11  C   -0.300377
    12  C   -0.185093
    13  C   -0.270162
    14  C    0.605097
    15  O   -0.501430
    16  O   -0.414127
    17  N   -0.714385
    18  C    0.312649
    19  C    0.033571
    20  C   -0.020478
    21  C    0.274694
    22  C   -0.388252
    23  C    0.239222
    24  O   -0.404832
    25  N   -0.710808
    26  C    0.324000
    27  C    0.022171
    28  C   -0.028454
    29  C    0.346215
    30  C    0.231022
    31  C   -0.220939
    32  C   -0.315545
    33  N   -0.731558
    34  C    0.264179
    35  C    0.020629
    36  C    0.022875
    37  C    0.322551
    38  C   -0.376309
    39  C    0.359296
    40  O   -0.452477
    41  C   -0.335373
    42  C    0.625210
    43  O   -0.468384
    44  O   -0.453094
    45  C   -0.099953
    46  C    0.003313
    47  C   -0.164954
    48  C    0.122291
    49  C   -0.353085
    50  C   -0.234148
    51  C   -0.190313
    52  C   -0.160434
    53  C   -0.075695
    54  C   -0.305207
    55  C   -0.143357
    56  C   -0.169717
    57  C   -0.147250
    58  C   -0.059573
    59  C   -0.313057
    60  C   -0.159885
    61  C   -0.172873
    62  C   -0.170790
    63  C   -0.064703
    64  C   -0.294955
    65  C   -0.313347
    66  H    0.090160
    67  H    0.131624
    68  H    0.079229
    69  H    0.125242
    70  H    0.097516
    71  H    0.118975
    72  H    0.123202
    73  H    0.131725
    74  H    0.107040
    75  H    0.137449
    76  H    0.140469
    77  H    0.117510
    78  H    0.118031
    79  H    0.166137
    80  H    0.111248
    81  H    0.049613
    82  H    0.120502
    83  H    0.116104
    84  H    0.125763
    85  H    0.116441
    86  H    0.120694
    87  H    0.125341
    88  H    0.149249
    89  H    0.138297
    90  H    0.161631
    91  H    0.118977
    92  H    0.126284
    93  H    0.087913
    94  H    0.153937
    95  H    0.118594
    96  H    0.112278
    97  H    0.109871
    98  H    0.081111
    99  H    0.092094
   100  H    0.084270
   101  H    0.081238
   102  H    0.099006
   103  H    0.074601
   104  H    0.091863
   105  H    0.118593
   106  H    0.095331
   107  H    0.076424
   108  H    0.092127
   109  H    0.068074
   110  H    0.062601
   111  H    0.095187
   112  H    0.084025
   113  H    0.042072
   114  H    0.102477
   115  H    0.097736
   116  H    0.105355
   117  H    0.082041
   118  H    0.062331
   119  H    0.107808
   120  H    0.097885
   121  H    0.094755
   122  H    0.091308
   123  H    0.078017
   124  H    0.111643
   125  H    0.070975
   126  H    0.108522
   127  H    0.095517
   128  H    0.104675
   129  H    0.085706
   130  H    0.140896
   131  H    0.132145
   132  H    0.140798
   133  O   -0.385646
   134  H    0.015793
 Sum of Mulliken charges =   0.00000

 Dipole moment (field-independent basis, Debye):
    X=              1.5824    Y=             -5.8233    Z=             -0.0836  Tot=              6.0350
 Quadrupole moment (field-independent basis, Debye-Ang):
   XX=           -386.7941   YY=           -436.9868   ZZ=           -388.2197
   XY=             12.3718   XZ=             25.2801   YZ=            -34.1420

 Normal termination of Gaussian 09 at Sat Oct  5 05:21:49 2019.
