 Gaussian 09, Revision D.01,
 Gaussian 09:  ES64L-G09RevD.01 24-Apr-2013

 ----------------------------------------------------------------------
 # td=(NStates=1) iop(3/107=0140000000,3/108=0140000000) iop(3/107=0140
 000000,3/108=0140000000) CAM-B3LYP/6-31G(d,p)
 ----------------------------------------------------------------------

 --
 TD
 --
 Symbolic Z-matrix:
 Charge =  0 Multiplicity = 1

                         Standard orientation:
 ---------------------------------------------------------------------
 Center     Atomic      Atomic             Coordinates (Angstroms)
 Number     Number       Type             X           Y           Z
 ---------------------------------------------------------------------
      1         12           0       -5.720825    1.252609    0.325317
      2          6           0       -4.978296   -2.163595   -0.425901
      3          6           0       -3.500466    1.113862    2.820128
      4          6           0       -6.146125    4.531568    0.624062
      5          6           0       -7.892417    1.162441   -2.374318
      6          7           0       -4.477003   -0.304210    1.082304
      7          6           0       -4.352224   -1.611249    0.722880
      8          6           0       -3.213309   -2.300345    1.491136
      9          6           0       -2.936641   -1.312185    2.656869
     10          6           0       -3.651189   -0.055615    2.192443
     11          6           0       -3.454795   -1.893195    4.014359
     12          6           0       -1.907100   -2.620513    0.619659
     13          6           0       -0.958258   -3.563433    1.429861
     14          6           0        0.168809   -3.887170    0.683567
     15          8           0        0.393144   -3.488758   -0.431933
     16          8           0        1.107594   -4.641029    1.431001
     17          7           0       -4.993541    2.640769    1.535824
     18          6           0       -4.093270    2.381597    2.470917
     19          6           0       -3.735818    3.568792    3.116921
     20          6           0       -4.481118    4.546079    2.598121
     21          6           0       -5.252960    3.864663    1.544292
     22          6           0       -2.762981    3.691631    4.305336
     23          6           0       -4.576162    5.963484    3.038421
     24          8           0       -3.868410    6.520934    3.911378
     25          7           0       -6.840140    2.578209   -0.687110
     26          6           0       -6.965596    3.952165   -0.350166
     27          6           0       -7.828190    4.645288   -1.195291
     28          6           0       -8.353907    3.681261   -2.134498
     29          6           0       -7.690373    2.430222   -1.764260
     30          6           0       -8.127206    6.067388   -1.246114
     31          6           0       -9.336690    3.936383   -3.230594
     32          6           0       -8.632099    4.064953   -4.616661
     33          7           0       -6.411823   -0.177298   -1.118612
     34          6           0       -7.299424   -0.059054   -2.043438
     35          6           0       -7.612993   -1.254183   -2.726352
     36          6           0       -6.568006   -2.190305   -2.186580
     37          6           0       -5.955733   -1.443281   -1.146356
     38          6           0       -8.556410   -1.581451   -3.804893
     39          6           0       -6.134330   -3.578442   -2.124769
     40          8           0       -6.440158   -4.469521   -2.843583
     41          6           0       -4.917287   -3.624138   -0.939701
     42          6           0       -5.379111   -4.568083    0.208217
     43          8           0       -5.790461   -4.367125    1.296508
     44          8           0       -5.012032   -5.803007   -0.423290
     45          6           0       -5.466253   -7.019107    0.431586
     46          6           0        2.308313   -5.064067    0.769742
     47          6           0        3.379635   -4.136862    1.102646
     48          6           0        4.080035   -3.249141    0.266007
     49          6           0        3.704024   -3.077906   -1.200693
     50          6           0        5.170812   -2.232641    0.774308
     51          6           0        6.470781   -2.609097    0.015367
     52          6           0        7.576892   -1.760996    0.511296
     53          6           0        8.989907   -2.057158   -0.253817
     54          6           0        9.583087   -3.384859   -0.113723
     55          6           0       10.009019   -0.977047    0.208019
     56          6           0       11.352097   -1.052027   -0.376086
     57          6           0       12.289184    0.074657    0.115295
     58          6           0       13.537004    0.426497   -0.676957
     59          6           0       14.463744   -0.775220   -0.507175
     60          6           0       14.283087    1.726403   -0.121852
     61          6           0       15.481721    2.196776   -1.004690
     62          6           0       15.957485    3.519570   -0.550370
     63          6           0       17.212483    3.991479   -1.255968
     64          6           0       17.053790    4.112013   -2.780124
     65          6           0       17.721032    5.302939   -0.697916
     66          1           0       -2.812638    1.183456    3.577348
     67          1           0       -6.356462    5.575616    0.815243
     68          1           0       -8.751993    1.378401   -3.017918
     69          1           0       -3.810201   -3.277521    1.873296
     70          1           0       -1.788552   -0.875718    2.526235
     71          1           0       -2.845403   -2.664693    4.480431
     72          1           0       -3.342662   -1.198769    4.743340
     73          1           0       -4.461922   -2.078472    3.857123
     74          1           0       -2.376126   -3.168598   -0.227027
     75          1           0       -1.580241   -1.662887    0.222777
     76          1           0       -0.569832   -2.776762    2.219952
     77          1           0       -1.682627   -4.391008    1.746408
     78          1           0       -1.835631    3.237740    4.084616
     79          1           0       -2.908489    4.559859    4.807104
     80          1           0       -3.056519    2.969043    5.033758
     81          1           0       -5.213928    6.695191    2.534744
     82          1           0      -10.037143    3.052795   -3.210857
     83          1           0      -10.020209    4.755041   -3.009046
     84          1           0       -9.515284    3.905553   -5.400692
     85          1           0       -8.183664    5.133354   -4.859373
     86          1           0       -7.801650    3.512094   -4.616371
     87          1           0       -8.452894   -0.987435   -4.674150
     88          1           0       -8.452756   -2.691848   -4.145153
     89          1           0       -9.629474   -1.365608   -3.374551
     90          1           0       -4.207542   -4.161316   -1.637585
     91          1           0        2.628459   -5.983765    1.132638
     92          1           0        2.183816   -5.093594   -0.320023
     93          1           0        3.649067   -4.111791    2.151216
     94          1           0        2.614637   -3.038626   -1.143875
     95          1           0        4.077439   -2.093855   -1.567339
     96          1           0        4.122147   -3.835047   -1.931411
     97          1           0        4.810416   -1.166671    0.629869
     98          1           0        5.516913   -2.373240    1.908850
     99          1           0        6.692677   -3.671413    0.278129
    100          1           0        6.330709   -2.508651   -1.107976
    101          1           0        7.618724   -0.732688    0.352879
    102          1           0        7.646612   -1.901315    1.623276
    103          1           0        8.833230   -1.861688   -1.319806
    104          1           0        8.601854   -4.153230   -0.165016
    105          1           0       10.169451   -3.712985   -0.997360
    106          1           0       10.155395   -3.574643    1.055769
    107          1           0        9.730196    0.000462   -0.098276
    108          1           0       10.113155   -0.936449    1.220144
    109          1           0       11.759422   -2.025142   -0.198767
    110          1           0       11.279235   -0.950375   -1.423094
    111          1           0       11.591881    1.022197    0.246540
    112          1           0       12.599871   -0.255078    1.231860
    113          1           0       13.067726    0.620799   -1.658065
    114          1           0       15.044901   -0.905234    0.536972
    115          1           0       14.130751   -1.846853   -0.517414
    116          1           0       15.258344   -0.786249   -1.139778
    117          1           0       13.572189    2.634455   -0.046406
    118          1           0       14.778738    1.221884    0.961601
    119          1           0       16.317670    1.347269   -0.986606
    120          1           0       15.172494    2.434920   -2.051704
    121          1           0       15.007424    4.197241   -0.674538
    122          1           0       16.200831    3.620917    0.624654
    123          1           0       17.989292    3.253033   -0.885749
    124          1           0       16.176393    4.901420   -2.923247
    125          1           0       18.002398    4.405170   -3.222137
    126          1           0       16.570550    3.288487   -3.180931
    127          1           0       17.666114    5.303442    0.367271
    128          1           0       18.901352    5.571204   -0.892406
    129          1           0       17.098774    6.198247   -0.956759
    130          1           0       -5.070749   -7.848591   -0.003894
    131          1           0       -6.541439   -7.044922    0.514041
    132          1           0       -5.130845   -6.999769    1.435027
    133          8           0       -7.784413    6.893464   -0.440785
    134          1           0       -8.836255    6.281459   -2.085985
 ---------------------------------------------------------------------

 SCF Done:  E(RCAM-B3LYP) =  -3043.50233464     A.U. after   16 cycles

 Excitation energies and oscillator strengths:

 Excited State   1:      Singlet-A      2.0002 eV  619.86 nm  f=0.1903  <S**2>=0.000
     243 -> 246        0.27234
     244 -> 245        0.64479
 This state for optimization and/or second-order correction.
 Total Energy, E(TD-HF/TD-KS) =  -3043.42882901
 Copying the excited state density for this state as the 1-particle RhoCI density.

 The electronic state is 1-A.
 Alpha  occ. eigenvalues --  -46.81948 -19.22127 -19.21028 -19.19743 -19.17772
 Alpha  occ. eigenvalues --  -19.17733 -19.17660 -19.16502 -14.39136 -14.37028
 Alpha  occ. eigenvalues --  -14.36957 -14.35943 -10.35927 -10.34884 -10.31567
 Alpha  occ. eigenvalues --  -10.30639 -10.30177 -10.27822 -10.26928 -10.26621
 Alpha  occ. eigenvalues --  -10.26279 -10.26141 -10.26079 -10.25981 -10.25940
 Alpha  occ. eigenvalues --  -10.25908 -10.25758 -10.25717 -10.25527 -10.25510
 Alpha  occ. eigenvalues --  -10.25506 -10.25154 -10.24691 -10.24668 -10.24347
 Alpha  occ. eigenvalues --  -10.24318 -10.23739 -10.23704 -10.23677 -10.23569
 Alpha  occ. eigenvalues --  -10.23526 -10.23393 -10.23088 -10.23083 -10.23062
 Alpha  occ. eigenvalues --  -10.23005 -10.22561 -10.22420 -10.22381 -10.22202
 Alpha  occ. eigenvalues --  -10.21831 -10.21747 -10.21701 -10.21650 -10.21473
 Alpha  occ. eigenvalues --  -10.21415 -10.21402 -10.20716 -10.20559 -10.20496
 Alpha  occ. eigenvalues --  -10.20438 -10.20402 -10.20354 -10.20256 -10.18960
 Alpha  occ. eigenvalues --  -10.18394  -3.10559  -1.85496  -1.85009  -1.84992
 Alpha  occ. eigenvalues --   -1.12696  -1.12126  -1.08981  -1.08072  -1.04834
 Alpha  occ. eigenvalues --   -1.04719  -1.04282  -1.04077  -1.02074  -0.99122
 Alpha  occ. eigenvalues --   -0.98474  -0.87868  -0.85835  -0.85643  -0.85607
 Alpha  occ. eigenvalues --   -0.85005  -0.84871  -0.84081  -0.83958  -0.83878
 Alpha  occ. eigenvalues --   -0.83021  -0.82822  -0.82021  -0.80396  -0.79449
 Alpha  occ. eigenvalues --   -0.79173  -0.78224  -0.77560  -0.76902  -0.76626
 Alpha  occ. eigenvalues --   -0.75519  -0.75136  -0.74365  -0.73490  -0.72673
 Alpha  occ. eigenvalues --   -0.70948  -0.70296  -0.70029  -0.69868  -0.69700
 Alpha  occ. eigenvalues --   -0.69285  -0.68675  -0.67458  -0.67275  -0.66673
 Alpha  occ. eigenvalues --   -0.66047  -0.64887  -0.64198  -0.62199  -0.61485
 Alpha  occ. eigenvalues --   -0.61258  -0.60753  -0.59800  -0.58923  -0.58449
 Alpha  occ. eigenvalues --   -0.58354  -0.58238  -0.57444  -0.57284  -0.57044
 Alpha  occ. eigenvalues --   -0.56466  -0.55839  -0.55148  -0.54995  -0.54348
 Alpha  occ. eigenvalues --   -0.53611  -0.53009  -0.52958  -0.52858  -0.52269
 Alpha  occ. eigenvalues --   -0.51495  -0.51459  -0.51301  -0.50746  -0.50533
 Alpha  occ. eigenvalues --   -0.50193  -0.50175  -0.49743  -0.49378  -0.49199
 Alpha  occ. eigenvalues --   -0.49040  -0.48944  -0.48623  -0.48495  -0.47777
 Alpha  occ. eigenvalues --   -0.47658  -0.47560  -0.47335  -0.47079  -0.46926
 Alpha  occ. eigenvalues --   -0.46639  -0.46325  -0.46139  -0.45916  -0.45834
 Alpha  occ. eigenvalues --   -0.45726  -0.45597  -0.45387  -0.45269  -0.44802
 Alpha  occ. eigenvalues --   -0.44725  -0.44620  -0.44298  -0.44181  -0.43927
 Alpha  occ. eigenvalues --   -0.43645  -0.43437  -0.43292  -0.43124  -0.43025
 Alpha  occ. eigenvalues --   -0.43003  -0.42934  -0.42449  -0.42240  -0.42038
 Alpha  occ. eigenvalues --   -0.41905  -0.41694  -0.41664  -0.41349  -0.41023
 Alpha  occ. eigenvalues --   -0.40656  -0.40267  -0.40222  -0.40188  -0.39983
 Alpha  occ. eigenvalues --   -0.39920  -0.39649  -0.39472  -0.39379  -0.39309
 Alpha  occ. eigenvalues --   -0.39075  -0.38644  -0.38602  -0.38531  -0.38349
 Alpha  occ. eigenvalues --   -0.37650  -0.37361  -0.36871  -0.36846  -0.36722
 Alpha  occ. eigenvalues --   -0.36455  -0.36410  -0.35703  -0.35690  -0.35566
 Alpha  occ. eigenvalues --   -0.35517  -0.35338  -0.35076  -0.35005  -0.34664
 Alpha  occ. eigenvalues --   -0.34304  -0.33993  -0.33580  -0.33456  -0.33273
 Alpha  occ. eigenvalues --   -0.33017  -0.32759  -0.32600  -0.32366  -0.32046
 Alpha  occ. eigenvalues --   -0.31938  -0.31262  -0.30951  -0.30347  -0.30273
 Alpha  occ. eigenvalues --   -0.29242  -0.28527  -0.28161  -0.27437  -0.27287
 Alpha  occ. eigenvalues --   -0.27231  -0.25613  -0.22693  -0.21926
 Alpha virt. eigenvalues --   -0.09023  -0.06747  -0.01295  -0.00761   0.00748
 Alpha virt. eigenvalues --    0.02161   0.02434   0.03041   0.03900   0.04091
 Alpha virt. eigenvalues --    0.05551   0.05773   0.07720   0.08117   0.09093

 Mulliken charges:
               1
     1  Mg   0.843923
     2  C    0.029043
     3  C   -0.151592
     4  C   -0.171414
     5  C   -0.156868
     6  N   -0.626500
     7  C    0.298221
     8  C   -0.176863
     9  C   -0.147120
    10  C    0.329287
    11  C   -0.307692
    12  C   -0.171947
    13  C   -0.265550
    14  C    0.633359
    15  O   -0.446691
    16  O   -0.494608
    17  N   -0.708636
    18  C    0.296061
    19  C    0.029339
    20  C   -0.034713
    21  C    0.300697
    22  C   -0.362467
    23  C    0.223967
    24  O   -0.430597
    25  N   -0.698524
    26  C    0.284874
    27  C    0.002191
    28  C    0.010674
    29  C    0.270896
    30  C    0.254468
    31  C   -0.258040
    32  C   -0.298462
    33  N   -0.699445
    34  C    0.335551
    35  C    0.043307
    36  C   -0.028590
    37  C    0.312209
    38  C   -0.389584
    39  C    0.334602
    40  O   -0.419256
    41  C   -0.334674
    42  C    0.646904
    43  O   -0.438890
    44  O   -0.490285
    45  C   -0.112782
    46  C    0.010949
    47  C   -0.136562
    48  C    0.104623
    49  C   -0.385748
    50  C   -0.220570
    51  C   -0.170633
    52  C   -0.162982
    53  C   -0.056079
    54  C   -0.277808
    55  C   -0.177232
    56  C   -0.177293
    57  C   -0.160731
    58  C   -0.044803
    59  C   -0.320827
    60  C   -0.149392
    61  C   -0.158303
    62  C   -0.155087
    63  C   -0.039046
    64  C   -0.303528
    65  C   -0.302604
    66  H    0.066635
    67  H    0.124238
    68  H    0.079156
    69  H    0.108976
    70  H    0.084548
    71  H    0.118849
    72  H    0.117594
    73  H    0.136121
    74  H    0.119144
    75  H    0.124795
    76  H    0.146015
    77  H    0.148901
    78  H    0.125587
    79  H    0.154683
    80  H    0.117149
    81  H    0.093294
    82  H    0.113845
    83  H    0.122781
    84  H    0.102916
    85  H    0.102236
    86  H    0.134584
    87  H    0.140691
    88  H    0.145163
    89  H    0.114666
    90  H    0.179589
    91  H    0.118130
    92  H    0.119363
    93  H    0.077696
    94  H    0.157938
    95  H    0.101220
    96  H    0.114277
    97  H    0.105007
    98  H    0.079349
    99  H    0.109801
   100  H    0.090142
   101  H    0.102770
   102  H    0.081105
   103  H    0.083552
   104  H    0.060398
   105  H    0.113907
   106  H    0.063579
   107  H    0.084727
   108  H    0.097792
   109  H    0.098176
   110  H    0.083016
   111  H    0.056362
   112  H    0.060225
   113  H    0.086788
   114  H    0.079034
   115  H    0.103732
   116  H    0.113233
   117  H    0.082422
   118  H    0.064543
   119  H    0.080045
   120  H    0.095283
   121  H    0.069069
   122  H    0.067227
   123  H    0.084795
   124  H    0.079902
   125  H    0.110702
   126  H    0.111061
   127  H    0.101617
   128  H    0.071622
   129  H    0.095831
   130  H    0.136030
   131  H    0.137192
   132  H    0.132931
   133  O   -0.414526
   134  H    0.056651
 Sum of Mulliken charges =   0.00000

 Dipole moment (field-independent basis, Debye):
    X=             -0.8497    Y=             -4.7313    Z=             -1.3362  Tot=              4.9893
 Quadrupole moment (field-independent basis, Debye-Ang):
   XX=           -367.7491   YY=           -440.1197   ZZ=           -395.3124
   XY=              6.8723   XZ=             14.0156   YZ=            -39.2160

 Normal termination of Gaussian 09 at Sat Oct  5 01:20:26 2019.
