 Gaussian 09, Revision D.01,
 Gaussian 09:  ES64L-G09RevD.01 24-Apr-2013

 ----------------------------------------------------------------------
 # td=(NStates=1) iop(3/107=0140000000,3/108=0140000000) iop(3/107=0140
 000000,3/108=0140000000) CAM-B3LYP/6-31G(d,p)
 ----------------------------------------------------------------------

 --
 TD
 --
 Symbolic Z-matrix:
 Charge =  0 Multiplicity = 1

                         Standard orientation:
 ---------------------------------------------------------------------
 Center     Atomic      Atomic             Coordinates (Angstroms)
 Number     Number       Type             X           Y           Z
 ---------------------------------------------------------------------
      1         12           0       -5.533058    1.320499    0.173191
      2          6           0       -5.039740   -2.117120   -0.338181
      3          6           0       -3.320690    1.178789    2.819578
      4          6           0       -6.171015    4.545840    0.663219
      5          6           0       -8.121700    1.173826   -2.266794
      6          7           0       -4.336668   -0.285424    1.012222
      7          6           0       -4.221498   -1.599166    0.688402
      8          6           0       -3.221043   -2.391945    1.566997
      9          6           0       -2.937130   -1.223642    2.647361
     10          6           0       -3.594215   -0.079085    2.149694
     11          6           0       -3.437503   -1.699618    3.995506
     12          6           0       -2.003860   -2.782435    0.650676
     13          6           0       -1.051929   -3.619786    1.412836
     14          6           0        0.208474   -4.052070    0.620737
     15          8           0        0.431975   -3.648009   -0.477364
     16          8           0        0.988276   -4.872758    1.304743
     17          7           0       -4.821736    2.631223    1.522374
     18          6           0       -3.920262    2.383507    2.459128
     19          6           0       -3.595931    3.657576    3.027081
     20          6           0       -4.368233    4.619060    2.501285
     21          6           0       -5.183493    3.888451    1.441129
     22          6           0       -2.704971    3.883452    4.294641
     23          6           0       -4.555094    6.050087    2.788386
     24          8           0       -3.954487    6.664537    3.637648
     25          7           0       -6.787225    2.728478   -0.715279
     26          6           0       -6.892194    4.021006   -0.342285
     27          6           0       -7.864552    4.659103   -1.142767
     28          6           0       -8.513520    3.714524   -2.006748
     29          6           0       -7.876946    2.429912   -1.614766
     30          6           0       -8.248501    6.045689   -1.191327
     31          6           0       -9.404920    3.849382   -3.099682
     32          6           0       -8.710636    4.002845   -4.493867
     33          7           0       -6.339255   -0.103080   -1.055990
     34          6           0       -7.419955    0.003468   -2.058557
     35          6           0       -7.617264   -1.291127   -2.624697
     36          6           0       -6.797936   -2.256668   -2.038727
     37          6           0       -6.060411   -1.412507   -1.051046
     38          6           0       -8.631816   -1.628868   -3.795436
     39          6           0       -6.221568   -3.593665   -1.889428
     40          8           0       -6.606905   -4.630287   -2.403485
     41          6           0       -4.994806   -3.601777   -0.913227
     42          6           0       -5.151259   -4.621970    0.071772
     43          8           0       -5.539511   -4.429766    1.271141
     44          8           0       -4.902036   -5.792763   -0.435772
     45          6           0       -5.173991   -6.980309    0.385306
     46          6           0        2.275523   -5.143235    0.545129
     47          6           0        3.358568   -4.203049    0.906308
     48          6           0        3.976537   -3.293018    0.117169
     49          6           0        3.693737   -3.201560   -1.295455
     50          6           0        5.027871   -2.354827    0.736881
     51          6           0        6.450252   -2.557653    0.035839
     52          6           0        7.594510   -1.675962    0.593578
     53          6           0        8.952489   -1.999491   -0.050614
     54          6           0        9.507730   -3.427400    0.163146
     55          6           0        9.983444   -0.880529    0.369976
     56          6           0       11.280636   -0.935706   -0.414820
     57          6           0       12.169000    0.228195    0.059758
     58          6           0       13.569178    0.453777   -0.628195
     59          6           0       14.442514   -0.763649   -0.384576
     60          6           0       14.214602    1.777988   -0.177914
     61          6           0       15.502369    2.063309   -0.883478
     62          6           0       15.982640    3.515782   -0.540910
     63          6           0       17.289364    3.944887   -1.338332
     64          6           0       17.043118    4.136766   -2.894117
     65          6           0       17.839318    5.239318   -0.708907
     66          1           0       -2.805416    0.920986    3.814106
     67          1           0       -6.410182    5.648331    1.020627
     68          1           0       -9.179025    1.031144   -2.890107
     69          1           0       -3.779566   -3.241407    1.934155
     70          1           0       -1.870526   -1.411624    2.663913
     71          1           0       -3.018140   -2.721981    4.058355
     72          1           0       -3.320216   -0.948618    4.858041
     73          1           0       -4.395540   -2.022914    3.974784
     74          1           0       -2.494251   -3.351193   -0.233689
     75          1           0       -1.360290   -1.967408    0.172730
     76          1           0       -0.801950   -3.238149    2.287358
     77          1           0       -1.486745   -4.581332    1.539741
     78          1           0       -1.565777    3.485109    4.253894
     79          1           0       -2.715437    4.960033    4.459782
     80          1           0       -3.075591    3.438584    5.344625
     81          1           0       -5.338688    6.730919    2.086476
     82          1           0      -10.171916    3.087589   -3.093326
     83          1           0      -10.106311    4.662104   -2.969639
     84          1           0       -9.581344    3.929966   -5.234467
     85          1           0       -8.140515    5.099600   -4.553836
     86          1           0       -7.821279    3.214239   -4.740425
     87          1           0       -8.463049   -0.821441   -4.711474
     88          1           0       -8.573307   -2.742466   -3.902402
     89          1           0       -9.766590   -1.442997   -3.337880
     90          1           0       -4.203616   -3.866192   -1.551031
     91          1           0        2.618147   -6.038498    0.912823
     92          1           0        2.152350   -5.270851   -0.532995
     93          1           0        3.578107   -4.229877    1.955904
     94          1           0        2.603160   -3.819156   -1.507458
     95          1           0        3.319807   -2.020473   -1.352967
     96          1           0        4.447168   -3.491180   -2.181433
     97          1           0        4.747951   -1.285533    0.370700
     98          1           0        4.972286   -2.246781    1.823091
     99          1           0        6.693245   -3.602331    0.052893
    100          1           0        6.324016   -2.547510   -1.019933
    101          1           0        7.459799   -0.601578    0.370348
    102          1           0        7.773149   -1.994576    1.701421
    103          1           0        8.905953   -1.947242   -1.124955
    104          1           0        9.037843   -4.194399   -0.261624
    105          1           0       10.594156   -3.584633   -0.185765
    106          1           0        9.381769   -3.775954    1.201943
    107          1           0        9.680530    0.091870    0.126873
    108          1           0       10.457938   -0.622882    1.422159
    109          1           0       12.088444   -1.798627   -0.298796
    110          1           0       11.068974   -0.840317   -1.567916
    111          1           0       11.537651    1.166280   -0.178498
    112          1           0       12.445097    0.206782    1.112695
    113          1           0       13.386787    0.497414   -1.781723
    114          1           0       14.470481   -0.859611    0.660184
    115          1           0       13.933902   -1.542451   -0.702405
    116          1           0       15.456095   -0.744544   -0.874430
    117          1           0       13.508994    2.608792   -0.271984
    118          1           0       14.251055    1.748375    0.974940
    119          1           0       16.253063    1.213163   -0.522889
    120          1           0       15.141058    1.774565   -1.932873
    121          1           0       15.230525    4.169383   -0.657008
    122          1           0       16.319113    3.895694    0.525479
    123          1           0       18.069928    3.212502   -1.377826
    124          1           0       16.084812    4.945600   -2.728217
    125          1           0       17.909032    4.730039   -3.504407
    126          1           0       16.787626    3.253261   -3.332035
    127          1           0       18.303042    5.108486    0.251457
    128          1           0       18.527616    5.510264   -1.359771
    129          1           0       16.958889    6.038248   -0.656714
    130          1           0       -4.785255   -7.927122   -0.282255
    131          1           0       -6.379564   -7.196219    0.563301
    132          1           0       -4.635592   -6.941267    1.334040
    133          8           0       -7.792216    6.905733   -0.518884
    134          1           0       -8.843500    6.411947   -2.019473
 ---------------------------------------------------------------------

 SCF Done:  E(RCAM-B3LYP) =  -3043.43340659     A.U. after   16 cycles

 Excitation energies and oscillator strengths:

 Excited State   1:      Singlet-A      2.0217 eV  613.27 nm  f=0.1635  <S**2>=0.000
     243 -> 246       -0.27876
     244 -> 245        0.64254
 This state for optimization and/or second-order correction.
 Total Energy, E(TD-HF/TD-KS) =  -3043.35911028
 Copying the excited state density for this state as the 1-particle RhoCI density.

 The electronic state is 1-A.
 Alpha  occ. eigenvalues --  -46.81764 -19.24352 -19.23014 -19.17257 -19.17189
 Alpha  occ. eigenvalues --  -19.16840 -19.16387 -19.15781 -14.39161 -14.37062
 Alpha  occ. eigenvalues --  -14.37023 -14.36890 -10.35108 -10.34481 -10.32253
 Alpha  occ. eigenvalues --  -10.31245 -10.30726 -10.28523 -10.27595 -10.27454
 Alpha  occ. eigenvalues --  -10.27125 -10.26939 -10.26662 -10.26556 -10.26522
 Alpha  occ. eigenvalues --  -10.26483 -10.26268 -10.26240 -10.25851 -10.25397
 Alpha  occ. eigenvalues --  -10.25333 -10.24779 -10.24715 -10.24326 -10.24206
 Alpha  occ. eigenvalues --  -10.24128 -10.23995 -10.23981 -10.23956 -10.23699
 Alpha  occ. eigenvalues --  -10.23678 -10.23468 -10.23445 -10.23282 -10.22989
 Alpha  occ. eigenvalues --  -10.22971 -10.22935 -10.22516 -10.22372 -10.22321
 Alpha  occ. eigenvalues --  -10.22255 -10.22127 -10.22110 -10.21910 -10.21779
 Alpha  occ. eigenvalues --  -10.21710 -10.21435 -10.21376 -10.21347 -10.21344
 Alpha  occ. eigenvalues --  -10.21239 -10.21115 -10.20441 -10.19782 -10.19378
 Alpha  occ. eigenvalues --  -10.18586  -3.10283  -1.85229  -1.84738  -1.84699
 Alpha  occ. eigenvalues --   -1.14961  -1.14168  -1.07889  -1.07302  -1.07246
 Alpha  occ. eigenvalues --   -1.05275  -1.02362  -1.02305  -1.00280  -0.98596
 Alpha  occ. eigenvalues --   -0.97859  -0.87736  -0.86503  -0.86068  -0.85940
 Alpha  occ. eigenvalues --   -0.85452  -0.84637  -0.84224  -0.83440  -0.83061
 Alpha  occ. eigenvalues --   -0.82847  -0.82620  -0.82098  -0.80749  -0.80304
 Alpha  occ. eigenvalues --   -0.78999  -0.78373  -0.77476  -0.77236  -0.76795
 Alpha  occ. eigenvalues --   -0.75495  -0.73908  -0.73308  -0.72868  -0.71382
 Alpha  occ. eigenvalues --   -0.71265  -0.70925  -0.70189  -0.69935  -0.69710
 Alpha  occ. eigenvalues --   -0.68987  -0.68731  -0.67564  -0.66348  -0.65936
 Alpha  occ. eigenvalues --   -0.65780  -0.64817  -0.63845  -0.62762  -0.62210
 Alpha  occ. eigenvalues --   -0.61903  -0.60682  -0.59851  -0.59280  -0.59186
 Alpha  occ. eigenvalues --   -0.58916  -0.58567  -0.58452  -0.57495  -0.57323
 Alpha  occ. eigenvalues --   -0.56267  -0.55818  -0.55631  -0.55201  -0.54608
 Alpha  occ. eigenvalues --   -0.53977  -0.53881  -0.53329  -0.52911  -0.52345
 Alpha  occ. eigenvalues --   -0.51952  -0.51370  -0.51019  -0.50815  -0.50737
 Alpha  occ. eigenvalues --   -0.50034  -0.49856  -0.49610  -0.49147  -0.49088
 Alpha  occ. eigenvalues --   -0.48809  -0.48529  -0.48297  -0.48270  -0.47866
 Alpha  occ. eigenvalues --   -0.47625  -0.47078  -0.47053  -0.46944  -0.46621
 Alpha  occ. eigenvalues --   -0.46409  -0.46254  -0.46110  -0.45814  -0.45673
 Alpha  occ. eigenvalues --   -0.45567  -0.45296  -0.45201  -0.44807  -0.44576
 Alpha  occ. eigenvalues --   -0.44350  -0.44165  -0.43843  -0.43751  -0.43517
 Alpha  occ. eigenvalues --   -0.43427  -0.42897  -0.42846  -0.42524  -0.42486
 Alpha  occ. eigenvalues --   -0.42196  -0.41948  -0.41595  -0.41548  -0.41400
 Alpha  occ. eigenvalues --   -0.41356  -0.41099  -0.40924  -0.40841  -0.40806
 Alpha  occ. eigenvalues --   -0.40571  -0.40429  -0.40415  -0.40212  -0.40008
 Alpha  occ. eigenvalues --   -0.39921  -0.39763  -0.39436  -0.39120  -0.39040
 Alpha  occ. eigenvalues --   -0.38822  -0.38588  -0.38530  -0.38276  -0.38215
 Alpha  occ. eigenvalues --   -0.38128  -0.38019  -0.37921  -0.37588  -0.37092
 Alpha  occ. eigenvalues --   -0.37045  -0.36760  -0.36416  -0.36135  -0.35853
 Alpha  occ. eigenvalues --   -0.35042  -0.34944  -0.34857  -0.34727  -0.34528
 Alpha  occ. eigenvalues --   -0.34471  -0.33994  -0.33898  -0.33477  -0.33243
 Alpha  occ. eigenvalues --   -0.33150  -0.32624  -0.32373  -0.31927  -0.31747
 Alpha  occ. eigenvalues --   -0.31297  -0.30523  -0.30325  -0.30224  -0.29824
 Alpha  occ. eigenvalues --   -0.29057  -0.28469  -0.28095  -0.27452  -0.27273
 Alpha  occ. eigenvalues --   -0.27177  -0.26735  -0.22926  -0.21513
 Alpha virt. eigenvalues --   -0.08411  -0.06500  -0.01853  -0.00106   0.00776
 Alpha virt. eigenvalues --    0.02157   0.02499   0.03166   0.04551   0.04590
 Alpha virt. eigenvalues --    0.05569   0.05913   0.07675   0.08196   0.08926

 Mulliken charges:
               1
     1  Mg   0.825152
     2  C    0.040068
     3  C   -0.175128
     4  C   -0.172333
     5  C   -0.188355
     6  N   -0.617632
     7  C    0.285063
     8  C   -0.169016
     9  C   -0.173773
    10  C    0.366032
    11  C   -0.311637
    12  C   -0.184427
    13  C   -0.254946
    14  C    0.590603
    15  O   -0.461022
    16  O   -0.466592
    17  N   -0.739395
    18  C    0.346353
    19  C   -0.002658
    20  C    0.008802
    21  C    0.315380
    22  C   -0.384994
    23  C    0.231974
    24  O   -0.400280
    25  N   -0.710381
    26  C    0.385935
    27  C   -0.041718
    28  C    0.071610
    29  C    0.234451
    30  C    0.227434
    31  C   -0.273272
    32  C   -0.285766
    33  N   -0.705703
    34  C    0.302117
    35  C   -0.049634
    36  C    0.108055
    37  C    0.269515
    38  C   -0.356555
    39  C    0.332025
    40  O   -0.454251
    41  C   -0.300982
    42  C    0.642682
    43  O   -0.528396
    44  O   -0.413377
    45  C   -0.084872
    46  C   -0.004945
    47  C   -0.143227
    48  C    0.176067
    49  C   -0.369613
    50  C   -0.226063
    51  C   -0.189707
    52  C   -0.161289
    53  C   -0.059384
    54  C   -0.322535
    55  C   -0.167649
    56  C   -0.167728
    57  C   -0.193233
    58  C   -0.081828
    59  C   -0.300195
    60  C   -0.159559
    61  C   -0.168295
    62  C   -0.163719
    63  C   -0.071725
    64  C   -0.286090
    65  C   -0.305335
    66  H    0.101512
    67  H    0.137475
    68  H    0.101557
    69  H    0.148696
    70  H    0.121937
    71  H    0.104044
    72  H    0.104435
    73  H    0.140540
    74  H    0.101906
    75  H    0.124918
    76  H    0.135059
    77  H    0.134712
    78  H    0.096162
    79  H    0.158364
    80  H    0.105560
    81  H    0.067220
    82  H    0.115374
    83  H    0.118841
    84  H    0.110476
    85  H    0.098254
    86  H    0.107554
    87  H    0.118077
    88  H    0.152365
    89  H    0.101875
    90  H    0.171946
    91  H    0.120529
    92  H    0.130082
    93  H    0.083087
    94  H    0.116713
    95  H    0.097637
    96  H    0.112319
    97  H    0.087476
    98  H    0.102765
    99  H    0.099810
   100  H    0.100299
   101  H    0.098170
   102  H    0.091222
   103  H    0.092669
   104  H    0.112259
   105  H    0.098569
   106  H    0.092524
   107  H    0.102263
   108  H    0.082184
   109  H    0.077207
   110  H    0.074972
   111  H    0.074438
   112  H    0.094021
   113  H    0.059231
   114  H    0.100945
   115  H    0.112074
   116  H    0.095385
   117  H    0.088102
   118  H    0.069108
   119  H    0.086246
   120  H    0.097603
   121  H    0.103814
   122  H    0.082618
   123  H    0.089736
   124  H    0.059683
   125  H    0.081292
   126  H    0.117634
   127  H    0.106126
   128  H    0.109953
   129  H    0.078163
   130  H    0.117371
   131  H    0.128567
   132  H    0.145972
   133  O   -0.412182
   134  H    0.052381
 Sum of Mulliken charges =   0.00000

 Dipole moment (field-independent basis, Debye):
    X=              1.9292    Y=             -6.4668    Z=             -1.3899  Tot=              6.8900
 Quadrupole moment (field-independent basis, Debye-Ang):
   XX=           -376.3670   YY=           -438.3269   ZZ=           -396.7260
   XY=              5.2008   XZ=             22.3883   YZ=            -28.6656

 Normal termination of Gaussian 09 at Wed Oct  9 11:03:47 2019.
