 Gaussian 09, Revision D.01,
 Gaussian 09:  ES64L-G09RevD.01 24-Apr-2013

 ----------------------------------------------------------------------
 # td=(NStates=1) iop(3/107=0140000000,3/108=0140000000) iop(3/107=0140
 000000,3/108=0140000000) CAM-B3LYP/6-31G(d,p)
 ----------------------------------------------------------------------

 --
 TD
 --
 Symbolic Z-matrix:
 Charge =  0 Multiplicity = 1

                         Standard orientation:
 ---------------------------------------------------------------------
 Center     Atomic      Atomic             Coordinates (Angstroms)
 Number     Number       Type             X           Y           Z
 ---------------------------------------------------------------------
      1         12           0       -5.671819    1.204497    0.250063
      2          6           0       -5.102734   -2.167852   -0.367587
      3          6           0       -3.390704    1.231547    2.724931
      4          6           0       -6.230134    4.566596    0.626636
      5          6           0       -7.995573    1.201563   -2.388246
      6          7           0       -4.510212   -0.341423    1.138812
      7          6           0       -4.275278   -1.632476    0.594787
      8          6           0       -3.216431   -2.349126    1.453460
      9          6           0       -2.859703   -1.298599    2.638836
     10          6           0       -3.633062   -0.087107    2.123394
     11          6           0       -3.512529   -1.723298    3.977328
     12          6           0       -1.940299   -2.723227    0.631868
     13          6           0       -1.052523   -3.604218    1.426130
     14          6           0        0.245518   -3.887728    0.634687
     15          8           0        0.484150   -3.546515   -0.485468
     16          8           0        1.153729   -4.652528    1.388397
     17          7           0       -4.934838    2.624341    1.473433
     18          6           0       -4.115754    2.419636    2.370474
     19          6           0       -3.851036    3.678584    3.139795
     20          6           0       -4.613500    4.656296    2.599286
     21          6           0       -5.355748    3.976476    1.499455
     22          6           0       -2.869962    3.913887    4.216904
     23          6           0       -4.751887    6.084763    3.022374
     24          8           0       -4.168403    6.654267    3.848084
     25          7           0       -6.852885    2.640444   -0.726118
     26          6           0       -7.061033    3.903763   -0.388685
     27          6           0       -7.999440    4.572411   -1.216781
     28          6           0       -8.499091    3.587157   -2.053079
     29          6           0       -7.796480    2.432174   -1.687171
     30          6           0       -8.348337    6.025116   -1.259033
     31          6           0       -9.494208    3.777453   -3.265801
     32          6           0       -8.817720    3.975247   -4.528542
     33          7           0       -6.282794   -0.149534   -1.085726
     34          6           0       -7.349159   -0.001283   -2.006349
     35          6           0       -7.653586   -1.422793   -2.632097
     36          6           0       -6.758443   -2.259676   -2.068964
     37          6           0       -6.020502   -1.414971   -1.111433
     38          6           0       -8.575104   -1.684928   -3.716657
     39          6           0       -6.146473   -3.599898   -2.024845
     40          8           0       -6.482756   -4.506275   -2.654935
     41          6           0       -5.037907   -3.565349   -0.868609
     42          6           0       -5.214649   -4.706849    0.054048
     43          8           0       -5.720447   -4.531706    1.191290
     44          8           0       -4.947992   -5.840629   -0.450880
     45          6           0       -5.150413   -7.049833    0.480325
     46          6           0        2.454115   -5.021033    0.749203
     47          6           0        3.447279   -4.073332    1.109458
     48          6           0        4.052037   -3.142731    0.222396
     49          6           0        3.826860   -3.269607   -1.290219
     50          6           0        5.155983   -2.275881    0.742961
     51          6           0        6.400577   -2.674241   -0.045751
     52          6           0        7.594780   -1.840328    0.543791
     53          6           0        9.048003   -1.997670   -0.025791
     54          6           0        9.573227   -3.352256    0.159926
     55          6           0       10.036977   -0.923839    0.468753
     56          6           0       11.448673   -0.908791   -0.206772
     57          6           0       12.324944    0.325042    0.217544
     58          6           0       13.544438    0.564742   -0.665594
     59          6           0       14.540450   -0.740650   -0.460110
     60          6           0       14.173486    1.961098   -0.258468
     61          6           0       15.379065    2.245810   -1.110657
     62          6           0       16.001889    3.599089   -0.592347
     63          6           0       17.358339    3.849723   -1.363205
     64          6           0       17.233256    4.129849   -2.854822
     65          6           0       18.161731    5.068006   -0.714906
     66          1           0       -2.741953    1.376561    3.582798
     67          1           0       -6.444649    5.568080    0.685239
     68          1           0       -8.893244    1.213967   -3.064228
     69          1           0       -3.808509   -3.236234    1.801565
     70          1           0       -1.925569   -0.955246    2.724509
     71          1           0       -3.133360   -2.708309    4.273481
     72          1           0       -3.336989   -1.251359    4.905324
     73          1           0       -4.495361   -1.764505    3.772162
     74          1           0       -2.292764   -3.205762   -0.255869
     75          1           0       -1.514873   -1.835761    0.333638
     76          1           0       -0.819451   -3.141577    2.421377
     77          1           0       -1.395411   -4.585019    1.592036
     78          1           0       -1.851701    3.680975    3.876269
     79          1           0       -3.124212    4.929809    4.650601
     80          1           0       -2.984719    3.135218    5.196290
     81          1           0       -5.440766    6.716876    2.320989
     82          1           0      -10.077023    2.938230   -3.072061
     83          1           0      -10.102785    4.747417   -2.986333
     84          1           0       -9.370627    4.087555   -5.374753
     85          1           0       -8.082858    4.810223   -4.339711
     86          1           0       -8.265616    3.103097   -4.871575
     87          1           0       -8.410442   -0.959782   -4.358942
     88          1           0       -8.282702   -2.690309   -4.498403
     89          1           0       -9.639738   -1.856352   -3.265193
     90          1           0       -3.846862   -3.640435   -1.260741
     91          1           0        2.690323   -5.955837    1.025344
     92          1           0        2.401391   -5.061760   -0.294280
     93          1           0        3.771833   -4.091235    2.236877
     94          1           0        2.748049   -3.378407   -1.361646
     95          1           0        4.315048   -2.345325   -1.751449
     96          1           0        4.380067   -4.179428   -1.746329
     97          1           0        4.884488   -1.270149    0.595959
     98          1           0        5.070477   -2.236080    1.769169
     99          1           0        6.669070   -3.763322    0.170221
    100          1           0        6.522821   -2.386303   -1.045859
    101          1           0        7.325678   -0.807125    0.583386
    102          1           0        7.875092   -2.133750    1.502582
    103          1           0        9.078658   -1.881052   -1.149769
    104          1           0        8.829198   -3.986238   -0.711441
    105          1           0       10.568536   -3.514694   -0.411843
    106          1           0        9.606647   -3.635998    1.210608
    107          1           0        9.577992   -0.166314    0.284771
    108          1           0       10.233122   -1.029252    1.573383
    109          1           0       11.822496   -1.974553    0.223853
    110          1           0       11.350706   -1.046859   -1.245470
    111          1           0       11.799346    1.371330    0.189454
    112          1           0       12.618085    0.236012    1.239257
    113          1           0       13.321289    0.555122   -1.702664
    114          1           0       15.024576   -0.405578    0.568163
    115          1           0       14.271076   -1.896128   -0.393988
    116          1           0       15.347430   -0.687533   -1.040713
    117          1           0       13.542385    2.830870   -0.322697
    118          1           0       14.355657    1.749079    0.908873
    119          1           0       15.987807    1.406720   -1.198692
    120          1           0       15.137168    2.527353   -2.211345
    121          1           0       15.342243    4.466232   -0.683079
    122          1           0       16.068541    3.228000    0.458537
    123          1           0       17.842296    2.841115   -1.010282
    124          1           0       16.400954    5.087800   -2.874213
    125          1           0       18.062504    4.429610   -3.487830
    126          1           0       16.709635    3.415982   -3.446131
    127          1           0       18.476604    4.790592    0.366337
    128          1           0       19.168158    5.262916   -1.076305
    129          1           0       17.682460    5.952257   -0.758987
    130          1           0       -4.954756   -8.054290    0.112125
    131          1           0       -6.083672   -7.107471    1.017882
    132          1           0       -4.533100   -7.056847    1.193091
    133          8           0       -7.774901    6.828538   -0.600943
    134          1           0       -9.119650    6.232417   -2.118627
 ---------------------------------------------------------------------

 SCF Done:  E(RCAM-B3LYP) =  -3043.39831708     A.U. after   15 cycles

 Excitation energies and oscillator strengths:

 Excited State   1:      Singlet-A      2.2116 eV  560.60 nm  f=0.1077  <S**2>=0.000
     243 -> 246       -0.33296
     244 -> 245        0.60596
 This state for optimization and/or second-order correction.
 Total Energy, E(TD-HF/TD-KS) =  -3043.31704148
 Copying the excited state density for this state as the 1-particle RhoCI density.

 The electronic state is 1-A.
 Alpha  occ. eigenvalues --  -46.81546 -19.25124 -19.20643 -19.18057 -19.17887
 Alpha  occ. eigenvalues --  -19.17661 -19.17224 -19.15820 -14.38203 -14.37366
 Alpha  occ. eigenvalues --  -14.36610 -14.36089 -10.35123 -10.34898 -10.31888
 Alpha  occ. eigenvalues --  -10.30932 -10.30516 -10.27695 -10.27649 -10.27183
 Alpha  occ. eigenvalues --  -10.27057 -10.26121 -10.26074 -10.25977 -10.25687
 Alpha  occ. eigenvalues --  -10.25573 -10.25032 -10.24984 -10.24758 -10.24422
 Alpha  occ. eigenvalues --  -10.24243 -10.23908 -10.23686 -10.23645 -10.23619
 Alpha  occ. eigenvalues --  -10.23413 -10.23316 -10.23285 -10.22891 -10.22847
 Alpha  occ. eigenvalues --  -10.22809 -10.22488 -10.22258 -10.22163 -10.22078
 Alpha  occ. eigenvalues --  -10.22065 -10.22063 -10.22036 -10.21931 -10.21891
 Alpha  occ. eigenvalues --  -10.21798 -10.21726 -10.21472 -10.21272 -10.21166
 Alpha  occ. eigenvalues --  -10.21160 -10.21120 -10.21050 -10.21002 -10.20793
 Alpha  occ. eigenvalues --  -10.20666 -10.20641 -10.20610 -10.20032 -10.19558
 Alpha  occ. eigenvalues --  -10.18578  -3.10169  -1.85108  -1.84635  -1.84586
 Alpha  occ. eigenvalues --   -1.15602  -1.11634  -1.11319  -1.10779  -1.08525
 Alpha  occ. eigenvalues --   -1.03605  -1.02666  -1.02064  -1.00756  -1.00119
 Alpha  occ. eigenvalues --   -0.98197  -0.88360  -0.86267  -0.85840  -0.85078
 Alpha  occ. eigenvalues --   -0.84900  -0.84559  -0.84294  -0.84166  -0.83012
 Alpha  occ. eigenvalues --   -0.82473  -0.82092  -0.81475  -0.80794  -0.80183
 Alpha  occ. eigenvalues --   -0.79152  -0.78599  -0.78249  -0.76884  -0.76373
 Alpha  occ. eigenvalues --   -0.74918  -0.74434  -0.74127  -0.73700  -0.71693
 Alpha  occ. eigenvalues --   -0.71534  -0.70739  -0.70382  -0.69656  -0.69537
 Alpha  occ. eigenvalues --   -0.69000  -0.67484  -0.66946  -0.66744  -0.66345
 Alpha  occ. eigenvalues --   -0.66014  -0.64946  -0.64575  -0.63140  -0.62305
 Alpha  occ. eigenvalues --   -0.62007  -0.60797  -0.60760  -0.59616  -0.59592
 Alpha  occ. eigenvalues --   -0.58732  -0.58195  -0.57456  -0.57206  -0.56628
 Alpha  occ. eigenvalues --   -0.55956  -0.55594  -0.55170  -0.54504  -0.54336
 Alpha  occ. eigenvalues --   -0.53765  -0.53322  -0.52344  -0.52243  -0.52015
 Alpha  occ. eigenvalues --   -0.51809  -0.51329  -0.51228  -0.51011  -0.50841
 Alpha  occ. eigenvalues --   -0.50728  -0.50134  -0.49774  -0.49711  -0.49482
 Alpha  occ. eigenvalues --   -0.49316  -0.48781  -0.48649  -0.48504  -0.48089
 Alpha  occ. eigenvalues --   -0.47835  -0.47700  -0.47639  -0.47594  -0.46941
 Alpha  occ. eigenvalues --   -0.46728  -0.46665  -0.46408  -0.46342  -0.46263
 Alpha  occ. eigenvalues --   -0.45871  -0.45720  -0.45251  -0.45122  -0.44756
 Alpha  occ. eigenvalues --   -0.44486  -0.44256  -0.44200  -0.44005  -0.43945
 Alpha  occ. eigenvalues --   -0.43900  -0.43694  -0.43588  -0.43403  -0.43206
 Alpha  occ. eigenvalues --   -0.43000  -0.42905  -0.42761  -0.42600  -0.42411
 Alpha  occ. eigenvalues --   -0.41973  -0.41744  -0.41608  -0.41397  -0.41127
 Alpha  occ. eigenvalues --   -0.40956  -0.40810  -0.40582  -0.40096  -0.40055
 Alpha  occ. eigenvalues --   -0.39871  -0.39747  -0.39665  -0.39368  -0.39248
 Alpha  occ. eigenvalues --   -0.39116  -0.39044  -0.38656  -0.38108  -0.37935
 Alpha  occ. eigenvalues --   -0.37620  -0.37521  -0.37401  -0.37125  -0.37028
 Alpha  occ. eigenvalues --   -0.36957  -0.36374  -0.36045  -0.35813  -0.35683
 Alpha  occ. eigenvalues --   -0.35640  -0.35502  -0.35261  -0.34634  -0.34566
 Alpha  occ. eigenvalues --   -0.34279  -0.33983  -0.33905  -0.33451  -0.32942
 Alpha  occ. eigenvalues --   -0.32626  -0.32432  -0.31881  -0.31596  -0.31184
 Alpha  occ. eigenvalues --   -0.31028  -0.30683  -0.30008  -0.29536  -0.29385
 Alpha  occ. eigenvalues --   -0.29114  -0.28212  -0.27982  -0.27922  -0.27698
 Alpha  occ. eigenvalues --   -0.27500  -0.25505  -0.22201  -0.20911
 Alpha virt. eigenvalues --   -0.06626  -0.05661  -0.00969   0.00070   0.01118
 Alpha virt. eigenvalues --    0.02544   0.03159   0.03737   0.04380   0.04626
 Alpha virt. eigenvalues --    0.05044   0.05901   0.07684   0.08328   0.08670

 Mulliken charges:
               1
     1  Mg   0.829445
     2  C    0.118562
     3  C   -0.191801
     4  C   -0.160565
     5  C   -0.167847
     6  N   -0.620501
     7  C    0.260166
     8  C   -0.194590
     9  C   -0.124119
    10  C    0.313722
    11  C   -0.307811
    12  C   -0.157740
    13  C   -0.258416
    14  C    0.590864
    15  O   -0.443344
    16  O   -0.505575
    17  N   -0.711144
    18  C    0.397714
    19  C    0.013810
    20  C    0.003017
    21  C    0.251537
    22  C   -0.400707
    23  C    0.257136
    24  O   -0.367415
    25  N   -0.658528
    26  C    0.262904
    27  C   -0.031288
    28  C   -0.017500
    29  C    0.263492
    30  C    0.256385
    31  C   -0.215406
    32  C   -0.292186
    33  N   -0.702872
    34  C    0.239032
    35  C   -0.040215
    36  C    0.098042
    37  C    0.288883
    38  C   -0.367514
    39  C    0.372613
    40  O   -0.396317
    41  C   -0.356328
    42  C    0.633297
    43  O   -0.517374
    44  O   -0.414158
    45  C   -0.111571
    46  C    0.012269
    47  C   -0.114183
    48  C    0.081519
    49  C   -0.371623
    50  C   -0.209691
    51  C   -0.180261
    52  C   -0.180522
    53  C   -0.089965
    54  C   -0.279659
    55  C   -0.139320
    56  C   -0.186355
    57  C   -0.152494
    58  C   -0.069038
    59  C   -0.328115
    60  C   -0.175157
    61  C   -0.186097
    62  C   -0.179012
    63  C   -0.038546
    64  C   -0.299682
    65  C   -0.317392
    66  H    0.075241
    67  H    0.110261
    68  H    0.096021
    69  H    0.137136
    70  H    0.105620
    71  H    0.103236
    72  H    0.116811
    73  H    0.137217
    74  H    0.107379
    75  H    0.129488
    76  H    0.137408
    77  H    0.145324
    78  H    0.134749
    79  H    0.157339
    80  H    0.082567
    81  H    0.062377
    82  H    0.113554
    83  H    0.092731
    84  H    0.119055
    85  H    0.110946
    86  H    0.106398
    87  H    0.142228
    88  H    0.103551
    89  H    0.131272
    90  H    0.133050
    91  H    0.115857
    92  H    0.117852
    93  H    0.067114
    94  H    0.158465
    95  H    0.098917
    96  H    0.114227
    97  H    0.106851
    98  H    0.108047
    99  H    0.108536
   100  H    0.117743
   101  H    0.088237
   102  H    0.095775
   103  H    0.062217
   104  H    0.050989
   105  H    0.101330
   106  H    0.102604
   107  H    0.092652
   108  H    0.071008
   109  H    0.074267
   110  H    0.095733
   111  H    0.070053
   112  H    0.097963
   113  H    0.094262
   114  H    0.074182
   115  H    0.103397
   116  H    0.114803
   117  H    0.105663
   118  H    0.071978
   119  H    0.104834
   120  H    0.082835
   121  H    0.090130
   122  H    0.097862
   123  H    0.073860
   124  H    0.057337
   125  H    0.116908
   126  H    0.110203
   127  H    0.082023
   128  H    0.098174
   129  H    0.113695
   130  H    0.133545
   131  H    0.155130
   132  H    0.148048
   133  O   -0.399934
   134  H    0.049203
 Sum of Mulliken charges =   0.00000

 Dipole moment (field-independent basis, Debye):
    X=              2.1362    Y=             -5.7122    Z=             -0.9435  Tot=              6.1711
 Quadrupole moment (field-independent basis, Debye-Ang):
   XX=           -378.6268   YY=           -425.6821   ZZ=           -392.5778
   XY=             19.5794   XZ=             12.6222   YZ=            -29.6017

 Normal termination of Gaussian 09 at Fri Oct  4 06:30:16 2019.
