 Gaussian 09, Revision D.01,
 Gaussian 09:  ES64L-G09RevD.01 24-Apr-2013

 ----------------------------------------------------------------------
 # td=(NStates=1) iop(3/107=0140000000,3/108=0140000000) iop(3/107=0140
 000000,3/108=0140000000) CAM-B3LYP/6-31G(d,p)
 ----------------------------------------------------------------------

 --
 TD
 --
 Symbolic Z-matrix:
 Charge =  0 Multiplicity = 1

                         Standard orientation:
 ---------------------------------------------------------------------
 Center     Atomic      Atomic             Coordinates (Angstroms)
 Number     Number       Type             X           Y           Z
 ---------------------------------------------------------------------
      1         12           0       -5.696818    1.237406    0.262447
      2          6           0       -4.919050   -2.080484   -0.323208
      3          6           0       -3.408352    1.318139    2.782947
      4          6           0       -6.263670    4.619625    0.582669
      5          6           0       -7.937517    1.154402   -2.382507
      6          7           0       -4.383245   -0.194250    1.118181
      7          6           0       -4.177013   -1.478163    0.667336
      8          6           0       -3.125967   -2.264815    1.512747
      9          6           0       -2.974336   -1.260048    2.681245
     10          6           0       -3.547159    0.035295    2.156424
     11          6           0       -3.637655   -1.728169    4.092138
     12          6           0       -1.946487   -2.599767    0.677709
     13          6           0       -1.055989   -3.649740    1.368314
     14          6           0        0.212173   -4.045493    0.551936
     15          8           0        0.441968   -3.730469   -0.581254
     16          8           0        1.035962   -4.731306    1.272346
     17          7           0       -4.861336    2.705688    1.477043
     18          6           0       -3.977957    2.490663    2.489818
     19          6           0       -3.747386    3.705037    3.215038
     20          6           0       -4.595267    4.660872    2.590751
     21          6           0       -5.466922    3.991832    1.584457
     22          6           0       -2.853871    3.863147    4.391322
     23          6           0       -4.692058    6.086116    2.948903
     24          8           0       -4.003486    6.628786    3.884079
     25          7           0       -6.779018    2.633088   -0.759472
     26          6           0       -6.922161    3.943324   -0.421468
     27          6           0       -7.943396    4.577325   -1.256986
     28          6           0       -8.416899    3.644501   -2.065512
     29          6           0       -7.781226    2.384964   -1.747518
     30          6           0       -8.241876    5.994760   -1.238966
     31          6           0       -9.432119    3.721263   -3.305384
     32          6           0       -8.714853    3.979487   -4.665675
     33          7           0       -6.383097   -0.160863   -1.075186
     34          6           0       -7.323519   -0.047390   -2.110031
     35          6           0       -7.472811   -1.390376   -2.762974
     36          6           0       -6.619547   -2.204817   -2.112035
     37          6           0       -5.895377   -1.445594   -1.117130
     38          6           0       -8.541748   -1.686135   -3.768372
     39          6           0       -6.038572   -3.559800   -2.017362
     40          8           0       -6.470599   -4.553879   -2.631904
     41          6           0       -4.976782   -3.526554   -0.845068
     42          6           0       -5.178272   -4.676390    0.199397
     43          8           0       -5.497021   -4.503882    1.349852
     44          8           0       -4.946602   -5.856794   -0.399882
     45          6           0       -5.296925   -7.028247    0.425242
     46          6           0        2.345330   -5.060340    0.623949
     47          6           0        3.476776   -4.200784    1.024566
     48          6           0        3.934164   -3.262278    0.228301
     49          6           0        3.577984   -3.139974   -1.240083
     50          6           0        5.164764   -2.405134    0.626333
     51          6           0        6.507238   -2.705659   -0.057841
     52          6           0        7.567149   -1.910682    0.619856
     53          6           0        8.945390   -2.148972   -0.036761
     54          6           0        9.456556   -3.551425    0.233949
     55          6           0        9.997972   -1.044367    0.550547
     56          6           0       11.282463   -0.890883   -0.173916
     57          6           0       12.205552    0.234976    0.254833
     58          6           0       13.498481    0.506363   -0.557612
     59          6           0       14.486483   -0.656412   -0.378402
     60          6           0       14.198927    1.843334   -0.111512
     61          6           0       15.404244    2.268319   -1.005984
     62          6           0       15.996280    3.564055   -0.659277
     63          6           0       17.230839    3.947197   -1.416641
     64          6           0       17.063600    4.208217   -2.916458
     65          6           0       17.975503    5.177020   -0.880752
     66          1           0       -2.709666    1.262244    3.624534
     67          1           0       -6.671936    5.524805    0.778376
     68          1           0       -8.616098    1.158063   -3.248933
     69          1           0       -3.779764   -3.118045    1.608408
     70          1           0       -1.795447   -1.149145    2.611882
     71          1           0       -3.247967   -2.755425    4.235474
     72          1           0       -3.450623   -1.056428    4.813132
     73          1           0       -4.716562   -1.958622    4.012309
     74          1           0       -2.324095   -2.851825   -0.387049
     75          1           0       -1.359842   -1.721313    0.540530
     76          1           0       -0.755641   -3.435376    2.276543
     77          1           0       -1.619041   -4.459214    1.861549
     78          1           0       -1.809917    3.532789    4.263228
     79          1           0       -2.742107    4.911714    4.627678
     80          1           0       -3.491594    3.372274    5.298705
     81          1           0       -5.401833    6.682285    2.392071
     82          1           0      -10.091736    2.861132   -3.420247
     83          1           0      -10.004776    4.486483   -2.983058
     84          1           0       -9.382781    4.228669   -5.494281
     85          1           0       -8.152995    4.974308   -4.694106
     86          1           0       -8.159568    2.927477   -4.744665
     87          1           0       -8.366881   -1.203485   -4.688748
     88          1           0       -8.379376   -2.770899   -4.107932
     89          1           0       -9.562148   -1.546794   -3.396334
     90          1           0       -3.989888   -4.024425   -1.420576
     91          1           0        2.598578   -6.104138    0.677666
     92          1           0        2.150952   -4.861747   -0.466339
     93          1           0        3.845559   -4.422218    2.118742
     94          1           0        2.729267   -3.501130   -1.392087
     95          1           0        3.454198   -2.107545   -1.534718
     96          1           0        4.292758   -3.578239   -2.108041
     97          1           0        5.038304   -1.353709    0.497635
     98          1           0        5.253240   -2.264327    1.787331
     99          1           0        6.638019   -3.801536   -0.023074
    100          1           0        6.380045   -2.621824   -1.016965
    101          1           0        7.431087   -0.882857    0.495826
    102          1           0        7.619333   -2.158449    1.565358
    103          1           0        8.989675   -1.934631   -1.179687
    104          1           0        8.811648   -4.328329   -0.320554
    105          1           0       10.622793   -3.606896   -0.208759
    106          1           0        9.391295   -3.772420    1.168807
    107          1           0        9.480315   -0.077970    0.328323
    108          1           0       10.013108   -1.109187    1.545233
    109          1           0       11.887258   -1.751274   -0.007019
    110          1           0       11.246773   -0.936669   -1.287153
    111          1           0       11.694530    1.286408    0.459114
    112          1           0       12.662345   -0.060747    1.366761
    113          1           0       13.082622    0.628806   -1.518862
    114          1           0       14.572091   -0.746432    0.681165
    115          1           0       14.009619   -1.469209   -0.567237
    116          1           0       15.368169   -0.518977   -0.877979
    117          1           0       13.348160    2.645854   -0.203384
    118          1           0       14.577934    2.023446    0.876138
    119          1           0       16.229660    1.556660   -1.104196
    120          1           0       15.118910    2.385374   -2.132972
    121          1           0       15.396018    4.485368   -0.646179
    122          1           0       16.348291    3.637945    0.368906
    123          1           0       17.863892    3.042233   -1.344392
    124          1           0       16.160281    4.909718   -3.398229
    125          1           0       17.972716    4.567363   -3.351476
    126          1           0       16.603045    3.302136   -3.321077
    127          1           0       18.296929    5.095221    0.129888
    128          1           0       19.003291    5.389430   -1.443887
    129          1           0       17.567691    6.235534   -0.971411
    130          1           0       -4.904408   -7.917380   -0.204022
    131          1           0       -6.351603   -7.117489    0.540392
    132          1           0       -4.686373   -6.965790    1.410178
    133          8           0       -7.777891    6.904022   -0.511571
    134          1           0       -8.706467    6.294028   -2.304660
 ---------------------------------------------------------------------

 SCF Done:  E(RCAM-B3LYP) =  -3043.49715917     A.U. after   16 cycles

 Excitation energies and oscillator strengths:

 Excited State   1:      Singlet-A      2.0212 eV  613.40 nm  f=0.1813  <S**2>=0.000
     243 -> 246       -0.26809
     244 -> 245        0.64679
 This state for optimization and/or second-order correction.
 Total Energy, E(TD-HF/TD-KS) =  -3043.42287962
 Copying the excited state density for this state as the 1-particle RhoCI density.

 The electronic state is 1-A.
 Alpha  occ. eigenvalues --  -46.81266 -19.23689 -19.22554 -19.18417 -19.17896
 Alpha  occ. eigenvalues --  -19.17275 -19.16330 -19.16095 -14.39301 -14.37019
 Alpha  occ. eigenvalues --  -14.36666 -14.36269 -10.36272 -10.34705 -10.32176
 Alpha  occ. eigenvalues --  -10.31505 -10.29585 -10.29176 -10.28137 -10.27593
 Alpha  occ. eigenvalues --  -10.27376 -10.27081 -10.27003 -10.26335 -10.26196
 Alpha  occ. eigenvalues --  -10.26038 -10.25978 -10.25969 -10.25728 -10.25418
 Alpha  occ. eigenvalues --  -10.24753 -10.24465 -10.24450 -10.24393 -10.23798
 Alpha  occ. eigenvalues --  -10.23654 -10.23370 -10.23328 -10.23326 -10.23292
 Alpha  occ. eigenvalues --  -10.22941 -10.22832 -10.22828 -10.22815 -10.22686
 Alpha  occ. eigenvalues --  -10.22530 -10.22488 -10.22431 -10.22429 -10.22410
 Alpha  occ. eigenvalues --  -10.22323 -10.21706 -10.21675 -10.21558 -10.21477
 Alpha  occ. eigenvalues --  -10.21355 -10.20739 -10.20711 -10.20680 -10.20430
 Alpha  occ. eigenvalues --  -10.20332 -10.20123 -10.19911 -10.19683 -10.19463
 Alpha  occ. eigenvalues --  -10.17656  -3.09790  -1.84739  -1.84273  -1.84174
 Alpha  occ. eigenvalues --   -1.14941  -1.14281  -1.06135  -1.05494  -1.05333
 Alpha  occ. eigenvalues --   -1.04774  -1.02360  -1.00546  -0.99244  -0.98528
 Alpha  occ. eigenvalues --   -0.97722  -0.88387  -0.86842  -0.86287  -0.85635
 Alpha  occ. eigenvalues --   -0.85298  -0.85096  -0.84250  -0.83901  -0.83833
 Alpha  occ. eigenvalues --   -0.83220  -0.81994  -0.81514  -0.80916  -0.79982
 Alpha  occ. eigenvalues --   -0.79258  -0.78594  -0.78176  -0.77598  -0.77223
 Alpha  occ. eigenvalues --   -0.76209  -0.74977  -0.74652  -0.72986  -0.72344
 Alpha  occ. eigenvalues --   -0.72151  -0.71578  -0.70625  -0.70087  -0.69983
 Alpha  occ. eigenvalues --   -0.69741  -0.69233  -0.68225  -0.66733  -0.66562
 Alpha  occ. eigenvalues --   -0.65913  -0.65572  -0.64605  -0.64160  -0.62562
 Alpha  occ. eigenvalues --   -0.61864  -0.61378  -0.61080  -0.60210  -0.59409
 Alpha  occ. eigenvalues --   -0.58895  -0.58823  -0.57908  -0.57420  -0.56852
 Alpha  occ. eigenvalues --   -0.56306  -0.55794  -0.55473  -0.55087  -0.54676
 Alpha  occ. eigenvalues --   -0.54322  -0.53013  -0.52787  -0.52150  -0.51968
 Alpha  occ. eigenvalues --   -0.51870  -0.51346  -0.51046  -0.50980  -0.50608
 Alpha  occ. eigenvalues --   -0.50430  -0.50055  -0.49991  -0.49414  -0.49184
 Alpha  occ. eigenvalues --   -0.48942  -0.48696  -0.48664  -0.48343  -0.48150
 Alpha  occ. eigenvalues --   -0.47793  -0.47527  -0.47373  -0.47265  -0.46928
 Alpha  occ. eigenvalues --   -0.46879  -0.46785  -0.46416  -0.46336  -0.46220
 Alpha  occ. eigenvalues --   -0.45558  -0.45292  -0.45089  -0.44800  -0.44692
 Alpha  occ. eigenvalues --   -0.44627  -0.44476  -0.44410  -0.44351  -0.44125
 Alpha  occ. eigenvalues --   -0.43668  -0.43633  -0.43292  -0.42940  -0.42802
 Alpha  occ. eigenvalues --   -0.42576  -0.42506  -0.42444  -0.42067  -0.41982
 Alpha  occ. eigenvalues --   -0.41688  -0.41642  -0.41417  -0.41040  -0.40946
 Alpha  occ. eigenvalues --   -0.40735  -0.40459  -0.40197  -0.40125  -0.40100
 Alpha  occ. eigenvalues --   -0.39782  -0.39667  -0.39531  -0.39435  -0.39254
 Alpha  occ. eigenvalues --   -0.39150  -0.39028  -0.38762  -0.38668  -0.38517
 Alpha  occ. eigenvalues --   -0.38330  -0.38104  -0.37640  -0.37403  -0.37041
 Alpha  occ. eigenvalues --   -0.36792  -0.36368  -0.36317  -0.36102  -0.35740
 Alpha  occ. eigenvalues --   -0.35553  -0.35416  -0.35373  -0.34814  -0.34688
 Alpha  occ. eigenvalues --   -0.34321  -0.33981  -0.33912  -0.33434  -0.33210
 Alpha  occ. eigenvalues --   -0.33165  -0.32788  -0.32104  -0.31868  -0.31748
 Alpha  occ. eigenvalues --   -0.31603  -0.31503  -0.31253  -0.30560  -0.29958
 Alpha  occ. eigenvalues --   -0.29403  -0.28580  -0.28458  -0.27985  -0.27847
 Alpha  occ. eigenvalues --   -0.27134  -0.26551  -0.23248  -0.21508
 Alpha virt. eigenvalues --   -0.08511  -0.06758  -0.02031  -0.01499  -0.00154
 Alpha virt. eigenvalues --    0.02589   0.02690   0.03143   0.04046   0.04825
 Alpha virt. eigenvalues --    0.05347   0.05684   0.07840   0.08213   0.09223

 Mulliken charges:
               1
     1  Mg   0.817079
     2  C    0.120481
     3  C   -0.211720
     4  C   -0.123309
     5  C   -0.182380
     6  N   -0.616429
     7  C    0.251451
     8  C   -0.144971
     9  C   -0.162725
    10  C    0.341491
    11  C   -0.308977
    12  C   -0.163083
    13  C   -0.275665
    14  C    0.607316
    15  O   -0.478694
    16  O   -0.448760
    17  N   -0.701198
    18  C    0.394708
    19  C    0.057034
    20  C   -0.048245
    21  C    0.236502
    22  C   -0.388626
    23  C    0.234097
    24  O   -0.451547
    25  N   -0.694076
    26  C    0.313494
    27  C   -0.000620
    28  C    0.022721
    29  C    0.264983
    30  C    0.228585
    31  C   -0.233800
    32  C   -0.297858
    33  N   -0.727470
    34  C    0.284528
    35  C   -0.003707
    36  C    0.076125
    37  C    0.246513
    38  C   -0.393561
    39  C    0.371888
    40  O   -0.464270
    41  C   -0.345113
    42  C    0.633188
    43  O   -0.465125
    44  O   -0.436594
    45  C   -0.093210
    46  C   -0.033812
    47  C   -0.100298
    48  C    0.112290
    49  C   -0.357033
    50  C   -0.240168
    51  C   -0.161157
    52  C   -0.155465
    53  C   -0.080679
    54  C   -0.283702
    55  C   -0.171310
    56  C   -0.175194
    57  C   -0.174486
    58  C   -0.060705
    59  C   -0.297605
    60  C   -0.170625
    61  C   -0.179441
    62  C   -0.159569
    63  C   -0.047713
    64  C   -0.295055
    65  C   -0.324492
    66  H    0.085185
    67  H    0.120518
    68  H    0.086042
    69  H    0.137107
    70  H    0.096233
    71  H    0.115482
    72  H    0.129318
    73  H    0.134057
    74  H    0.116396
    75  H    0.115517
    76  H    0.137476
    77  H    0.122098
    78  H    0.121275
    79  H    0.169647
    80  H    0.112401
    81  H    0.098522
    82  H    0.115935
    83  H    0.115349
    84  H    0.117552
    85  H    0.113242
    86  H    0.101710
    87  H    0.134324
    88  H    0.139076
    89  H    0.137795
    90  H    0.148325
    91  H    0.120453
    92  H    0.137593
    93  H    0.083993
    94  H    0.145505
    95  H    0.116073
    96  H    0.096199
    97  H    0.102299
    98  H    0.069809
    99  H    0.089136
   100  H    0.108515
   101  H    0.099518
   102  H    0.103499
   103  H    0.069150
   104  H    0.089961
   105  H    0.070547
   106  H    0.115033
   107  H    0.081639
   108  H    0.098755
   109  H    0.101360
   110  H    0.085636
   111  H    0.067199
   112  H    0.048632
   113  H    0.091690
   114  H    0.100933
   115  H    0.105630
   116  H    0.107948
   117  H    0.074692
   118  H    0.099778
   119  H    0.094690
   120  H    0.078854
   121  H    0.091784
   122  H    0.082788
   123  H    0.087660
   124  H    0.063831
   125  H    0.108933
   126  H    0.093645
   127  H    0.100902
   128  H    0.078103
   129  H    0.102861
   130  H    0.128277
   131  H    0.151175
   132  H    0.129859
   133  O   -0.429359
   134  H    0.050007
 Sum of Mulliken charges =   0.00000

 Dipole moment (field-independent basis, Debye):
    X=              0.7922    Y=             -6.9346    Z=             -0.4193  Tot=              6.9923
 Quadrupole moment (field-independent basis, Debye-Ang):
   XX=           -373.5615   YY=           -441.6317   ZZ=           -393.4672
   XY=             12.2427   XZ=             22.4301   YZ=            -36.5797

 Normal termination of Gaussian 09 at Wed Oct  9 00:42:03 2019.
