 Gaussian 09, Revision D.01,
 Gaussian 09:  ES64L-G09RevD.01 24-Apr-2013

 ----------------------------------------------------------------------
 # td=(NStates=1) iop(3/107=0140000000,3/108=0140000000) iop(3/107=0140
 000000,3/108=0140000000) CAM-B3LYP/6-31G(d,p)
 ----------------------------------------------------------------------

 --
 TD
 --
 Symbolic Z-matrix:
 Charge =  0 Multiplicity = 1

                         Standard orientation:
 ---------------------------------------------------------------------
 Center     Atomic      Atomic             Coordinates (Angstroms)
 Number     Number       Type             X           Y           Z
 ---------------------------------------------------------------------
      1         12           0       -5.765288    1.289234    0.224898
      2          6           0       -5.077617   -2.109277   -0.240573
      3          6           0       -3.474950    1.236300    2.730503
      4          6           0       -6.225271    4.544682    0.629399
      5          6           0       -7.845089    1.145970   -2.440418
      6          7           0       -4.386286   -0.285596    1.111425
      7          6           0       -4.208979   -1.658607    0.671239
      8          6           0       -3.207048   -2.271586    1.468604
      9          6           0       -2.882061   -1.300949    2.675324
     10          6           0       -3.710081   -0.022741    2.198751
     11          6           0       -3.397525   -1.755434    4.107796
     12          6           0       -1.862779   -2.502812    0.613506
     13          6           0       -0.884242   -3.380226    1.472539
     14          6           0        0.322493   -3.822092    0.569888
     15          8           0        0.514311   -3.434334   -0.581032
     16          8           0        1.168816   -4.553260    1.283411
     17          7           0       -4.957913    2.618615    1.503380
     18          6           0       -4.084231    2.457359    2.540274
     19          6           0       -3.830745    3.709498    3.147006
     20          6           0       -4.613116    4.641594    2.503420
     21          6           0       -5.373806    3.971426    1.500763
     22          6           0       -3.000429    3.935644    4.414691
     23          6           0       -4.706243    6.173407    2.788364
     24          8           0       -3.979990    6.664966    3.666563
     25          7           0       -6.922061    2.658047   -0.738334
     26          6           0       -6.958746    3.961602   -0.407669
     27          6           0       -7.891819    4.646667   -1.341085
     28          6           0       -8.355423    3.606389   -2.189390
     29          6           0       -7.748274    2.395906   -1.825976
     30          6           0       -8.471426    5.976613   -1.164125
     31          6           0       -9.344816    3.753550   -3.358233
     32          6           0       -8.763506    3.623605   -4.671675
     33          7           0       -6.371803   -0.219826   -1.019733
     34          6           0       -7.243378   -0.129222   -2.057622
     35          6           0       -7.527726   -1.343679   -2.682710
     36          6           0       -6.662041   -2.191305   -2.063775
     37          6           0       -5.976388   -1.442360   -1.033927
     38          6           0       -8.605014   -1.741656   -3.714483
     39          6           0       -6.248479   -3.593329   -1.931495
     40          8           0       -6.635570   -4.544431   -2.561416
     41          6           0       -5.119814   -3.621344   -0.819988
     42          6           0       -5.324615   -4.668428    0.136341
     43          8           0       -5.796928   -4.512578    1.274809
     44          8           0       -5.099909   -5.804457   -0.316663
     45          6           0       -5.311787   -6.959845    0.634896
     46          6           0        2.350955   -5.116951    0.640118
     47          6           0        3.428311   -4.126181    1.010419
     48          6           0        3.975014   -3.273213    0.122751
     49          6           0        3.709645   -3.081429   -1.284599
     50          6           0        5.159088   -2.328658    0.689333
     51          6           0        6.505111   -2.654737   -0.114884
     52          6           0        7.635664   -1.749961    0.570878
     53          6           0        9.075166   -2.110904    0.008732
     54          6           0        9.512423   -3.518807    0.197777
     55          6           0       10.039639   -0.900294    0.380361
     56          6           0       11.353427   -0.796626   -0.259332
     57          6           0       12.222015    0.368276    0.275463
     58          6           0       13.471020    0.444161   -0.592699
     59          6           0       14.464454   -0.801416   -0.265093
     60          6           0       14.260584    1.814630   -0.230182
     61          6           0       15.444624    2.152546   -1.107889
     62          6           0       16.146208    3.385559   -0.619978
     63          6           0       17.505307    3.859340   -1.302698
     64          6           0       17.335128    4.049322   -2.821515
     65          6           0       18.015735    5.147686   -0.786488
     66          1           0       -2.686431    1.277127    3.394942
     67          1           0       -6.374989    5.614046    0.732669
     68          1           0       -8.466295    1.011910   -3.348927
     69          1           0       -3.497937   -3.344312    1.709533
     70          1           0       -1.893594   -1.059583    2.477379
     71          1           0       -2.802188   -2.558411    4.367983
     72          1           0       -3.249379   -0.776626    4.750849
     73          1           0       -4.398140   -2.096738    4.256920
     74          1           0       -2.071512   -3.333883   -0.256636
     75          1           0       -1.466700   -1.652184    0.261497
     76          1           0       -0.423704   -2.871460    2.328977
     77          1           0       -1.290526   -4.310559    1.917742
     78          1           0       -1.843258    3.987949    4.196766
     79          1           0       -3.208877    4.896364    4.965098
     80          1           0       -3.028325    3.116038    5.162848
     81          1           0       -5.464668    6.490034    2.053056
     82          1           0      -10.041751    2.980936   -3.269393
     83          1           0      -10.052602    4.516323   -3.160668
     84          1           0       -9.510099    3.655147   -5.389510
     85          1           0       -8.032662    4.470302   -4.783874
     86          1           0       -8.111828    2.738892   -5.031300
     87          1           0       -8.245625   -1.151149   -4.648476
     88          1           0       -8.286514   -2.785299   -4.051654
     89          1           0       -9.542352   -1.598170   -3.410051
     90          1           0       -4.118270   -3.921528   -1.256375
     91          1           0        2.349654   -6.133912    0.886098
     92          1           0        2.062819   -5.143636   -0.336393
     93          1           0        3.680389   -4.385160    2.132628
     94          1           0        2.581869   -3.277276   -1.501797
     95          1           0        4.038037   -1.940337   -1.466305
     96          1           0        4.184597   -3.483393   -2.224506
     97          1           0        4.738242   -1.349005    0.384112
     98          1           0        5.198685   -2.451168    1.835822
     99          1           0        6.710784   -3.635704   -0.248789
    100          1           0        6.196699   -2.452564   -1.179450
    101          1           0        7.347942   -0.712102    0.451843
    102          1           0        7.565979   -2.009138    1.725353
    103          1           0        8.991950   -2.074670   -1.048735
    104          1           0        8.866436   -4.334000   -0.066740
    105          1           0       10.427731   -3.491555   -0.391485
    106          1           0        9.794110   -3.526903    1.301224
    107          1           0        9.435294   -0.093006   -0.054965
    108          1           0       10.045889   -0.567718    1.538255
    109          1           0       11.962746   -1.829995   -0.076840
    110          1           0       11.349511   -0.767737   -1.404937
    111          1           0       11.808641    1.443301    0.194667
    112          1           0       12.443743    0.126845    1.320834
    113          1           0       13.134959    0.273636   -1.660207
    114          1           0       14.891913   -0.642407    0.716501
    115          1           0       14.142375   -1.888816   -0.509188
    116          1           0       15.329436   -0.655488   -0.855686
    117          1           0       13.491480    2.688929   -0.401715
    118          1           0       14.618177    1.665357    0.624537
    119          1           0       16.162515    1.197098   -0.919041
    120          1           0       15.198284    2.106451   -2.250979
    121          1           0       15.378987    4.247921   -0.626124
    122          1           0       16.584346    3.085289    0.359999
    123          1           0       18.120377    3.076359   -1.193940
    124          1           0       16.523623    4.900696   -2.929961
    125          1           0       18.226910    4.398594   -3.368311
    126          1           0       17.130717    3.214828   -3.215825
    127          1           0       17.941714    5.275200    0.446746
    128          1           0       19.124097    5.298922   -1.185560
    129          1           0       17.475392    5.964424   -0.979199
    130          1           0       -4.914814   -7.923487    0.052730
    131          1           0       -6.380001   -6.997796    0.886460
    132          1           0       -4.828366   -6.645924    1.556308
    133          8           0       -7.896218    6.814267   -0.450672
    134          1           0       -9.539146    6.077037   -1.726584
 ---------------------------------------------------------------------

 SCF Done:  E(RCAM-B3LYP) =  -3043.47804269     A.U. after   15 cycles

 Excitation energies and oscillator strengths:

 Excited State   1:      Singlet-A      2.1664 eV  572.31 nm  f=0.1074  <S**2>=0.000
     243 -> 246       -0.33227
     244 -> 245        0.60803
 This state for optimization and/or second-order correction.
 Total Energy, E(TD-HF/TD-KS) =  -3043.39843003
 Copying the excited state density for this state as the 1-particle RhoCI density.

 The electronic state is 1-A.
 Alpha  occ. eigenvalues --  -46.81217 -19.23032 -19.21889 -19.18478 -19.17318
 Alpha  occ. eigenvalues --  -19.16908 -19.16828 -19.14346 -14.37718 -14.36534
 Alpha  occ. eigenvalues --  -14.36144 -14.35566 -10.34931 -10.33163 -10.31742
 Alpha  occ. eigenvalues --  -10.31384 -10.31127 -10.29226 -10.26873 -10.26441
 Alpha  occ. eigenvalues --  -10.26166 -10.26165 -10.25792 -10.25616 -10.25574
 Alpha  occ. eigenvalues --  -10.25492 -10.25200 -10.24602 -10.24462 -10.24389
 Alpha  occ. eigenvalues --  -10.24338 -10.24251 -10.24105 -10.24036 -10.23929
 Alpha  occ. eigenvalues --  -10.23836 -10.23665 -10.23309 -10.23081 -10.22857
 Alpha  occ. eigenvalues --  -10.22685 -10.22602 -10.22587 -10.22527 -10.22525
 Alpha  occ. eigenvalues --  -10.22493 -10.22408 -10.22338 -10.22237 -10.22126
 Alpha  occ. eigenvalues --  -10.22079 -10.22023 -10.21583 -10.21556 -10.21552
 Alpha  occ. eigenvalues --  -10.21421 -10.21358 -10.21333 -10.21237 -10.21073
 Alpha  occ. eigenvalues --  -10.20871 -10.20577 -10.20552 -10.20343 -10.20080
 Alpha  occ. eigenvalues --  -10.18957  -3.09738  -1.84684  -1.84196  -1.84149
 Alpha  occ. eigenvalues --   -1.16216  -1.13271  -1.07344  -1.06122  -1.05605
 Alpha  occ. eigenvalues --   -1.04101  -1.02379  -1.01861  -0.99552  -0.99035
 Alpha  occ. eigenvalues --   -0.98133  -0.87897  -0.85818  -0.85416  -0.85225
 Alpha  occ. eigenvalues --   -0.84854  -0.84485  -0.84304  -0.83996  -0.82928
 Alpha  occ. eigenvalues --   -0.82679  -0.81864  -0.80992  -0.80755  -0.79862
 Alpha  occ. eigenvalues --   -0.79155  -0.78647  -0.77990  -0.77638  -0.76512
 Alpha  occ. eigenvalues --   -0.75383  -0.74705  -0.73967  -0.73181  -0.72244
 Alpha  occ. eigenvalues --   -0.71069  -0.70765  -0.70394  -0.70174  -0.69951
 Alpha  occ. eigenvalues --   -0.69094  -0.68749  -0.67670  -0.66917  -0.66395
 Alpha  occ. eigenvalues --   -0.66276  -0.64493  -0.64398  -0.62877  -0.62525
 Alpha  occ. eigenvalues --   -0.61723  -0.60737  -0.60542  -0.59561  -0.58882
 Alpha  occ. eigenvalues --   -0.58852  -0.58152  -0.57911  -0.57594  -0.56812
 Alpha  occ. eigenvalues --   -0.56330  -0.56101  -0.55451  -0.55260  -0.54328
 Alpha  occ. eigenvalues --   -0.53649  -0.53149  -0.52779  -0.52393  -0.52179
 Alpha  occ. eigenvalues --   -0.51513  -0.51280  -0.51085  -0.50874  -0.50103
 Alpha  occ. eigenvalues --   -0.49800  -0.49775  -0.49441  -0.48946  -0.48809
 Alpha  occ. eigenvalues --   -0.48647  -0.48580  -0.48393  -0.48121  -0.47662
 Alpha  occ. eigenvalues --   -0.47634  -0.47514  -0.47045  -0.46778  -0.46722
 Alpha  occ. eigenvalues --   -0.46324  -0.46305  -0.46147  -0.45812  -0.45619
 Alpha  occ. eigenvalues --   -0.45573  -0.45236  -0.45179  -0.44956  -0.44737
 Alpha  occ. eigenvalues --   -0.44591  -0.44395  -0.44334  -0.44274  -0.43812
 Alpha  occ. eigenvalues --   -0.43431  -0.43146  -0.43086  -0.43000  -0.42808
 Alpha  occ. eigenvalues --   -0.42428  -0.42003  -0.41653  -0.41492  -0.41396
 Alpha  occ. eigenvalues --   -0.41370  -0.41309  -0.41133  -0.41077  -0.40877
 Alpha  occ. eigenvalues --   -0.40641  -0.40538  -0.40403  -0.40234  -0.40086
 Alpha  occ. eigenvalues --   -0.39870  -0.39561  -0.39331  -0.39153  -0.39139
 Alpha  occ. eigenvalues --   -0.38969  -0.38400  -0.38365  -0.38100  -0.37984
 Alpha  occ. eigenvalues --   -0.37841  -0.37660  -0.37366  -0.37226  -0.37149
 Alpha  occ. eigenvalues --   -0.36604  -0.36452  -0.36050  -0.35824  -0.35790
 Alpha  occ. eigenvalues --   -0.35403  -0.35313  -0.34918  -0.34607  -0.34555
 Alpha  occ. eigenvalues --   -0.34192  -0.33405  -0.33235  -0.33164  -0.32710
 Alpha  occ. eigenvalues --   -0.32631  -0.32565  -0.32100  -0.31548  -0.31204
 Alpha  occ. eigenvalues --   -0.31082  -0.30343  -0.30058  -0.29863  -0.28987
 Alpha  occ. eigenvalues --   -0.28738  -0.28172  -0.27882  -0.27829  -0.27373
 Alpha  occ. eigenvalues --   -0.27243  -0.26835  -0.22389  -0.21814
 Alpha virt. eigenvalues --   -0.07924  -0.06379  -0.01260  -0.00852   0.01262
 Alpha virt. eigenvalues --    0.02877   0.03763   0.04555   0.04797   0.04918
 Alpha virt. eigenvalues --    0.05429   0.05859   0.08327   0.08642   0.10041

 Mulliken charges:
               1
     1  Mg   0.833286
     2  C    0.127247
     3  C   -0.183671
     4  C   -0.195396
     5  C   -0.174356
     6  N   -0.596628
     7  C    0.305207
     8  C   -0.201356
     9  C   -0.127658
    10  C    0.314603
    11  C   -0.307243
    12  C   -0.170634
    13  C   -0.271202
    14  C    0.586067
    15  O   -0.478393
    16  O   -0.454022
    17  N   -0.738513
    18  C    0.337450
    19  C    0.042526
    20  C   -0.063242
    21  C    0.351231
    22  C   -0.387657
    23  C    0.303269
    24  O   -0.429601
    25  N   -0.735685
    26  C    0.310317
    27  C   -0.031672
    28  C   -0.006279
    29  C    0.334940
    30  C    0.240302
    31  C   -0.228765
    32  C   -0.308980
    33  N   -0.707597
    34  C    0.241441
    35  C    0.023351
    36  C    0.013004
    37  C    0.272779
    38  C   -0.363429
    39  C    0.374944
    40  O   -0.451898
    41  C   -0.334810
    42  C    0.609972
    43  O   -0.538411
    44  O   -0.403040
    45  C   -0.096036
    46  C   -0.015532
    47  C   -0.121312
    48  C    0.131989
    49  C   -0.391617
    50  C   -0.229965
    51  C   -0.179764
    52  C   -0.163050
    53  C   -0.070874
    54  C   -0.303293
    55  C   -0.169092
    56  C   -0.176402
    57  C   -0.145029
    58  C   -0.068823
    59  C   -0.337099
    60  C   -0.142076
    61  C   -0.184257
    62  C   -0.158222
    63  C   -0.056074
    64  C   -0.289167
    65  C   -0.280889
    66  H    0.070553
    67  H    0.125933
    68  H    0.091491
    69  H    0.114246
    70  H    0.119576
    71  H    0.120317
    72  H    0.098678
    73  H    0.141526
    74  H    0.099062
    75  H    0.130266
    76  H    0.136972
    77  H    0.129139
    78  H    0.109629
    79  H    0.156781
    80  H    0.114873
    81  H    0.110070
    82  H    0.114958
    83  H    0.110840
    84  H    0.117390
    85  H    0.109435
    86  H    0.105358
    87  H    0.114656
    88  H    0.150308
    89  H    0.144390
    90  H    0.149866
    91  H    0.119458
    92  H    0.122636
    93  H    0.091568
    94  H    0.153727
    95  H    0.087297
    96  H    0.125928
    97  H    0.105765
    98  H    0.089601
    99  H    0.108675
   100  H    0.084852
   101  H    0.098923
   102  H    0.075674
   103  H    0.089438
   104  H    0.110706
   105  H    0.104116
   106  H    0.091086
   107  H    0.099369
   108  H    0.070416
   109  H    0.072113
   110  H    0.082597
   111  H    0.079631
   112  H    0.096373
   113  H    0.078799
   114  H    0.101504
   115  H    0.097337
   116  H    0.108559
   117  H    0.075725
   118  H    0.103404
   119  H    0.058688
   120  H    0.083360
   121  H    0.077621
   122  H    0.093750
   123  H    0.094356
   124  H    0.078070
   125  H    0.090341
   126  H    0.107832
   127  H    0.051997
   128  H    0.086065
   129  H    0.120250
   130  H    0.127335
   131  H    0.155079
   132  H    0.147681
   133  O   -0.433315
   134  H    0.064092
 Sum of Mulliken charges =   0.00000

 Dipole moment (field-independent basis, Debye):
    X=              2.2750    Y=             -5.7210    Z=             -1.0703  Tot=              6.2491
 Quadrupole moment (field-independent basis, Debye-Ang):
   XX=           -372.9345   YY=           -428.5504   ZZ=           -391.7289
   XY=              4.2982   XZ=             15.8386   YZ=            -29.4036

 Normal termination of Gaussian 09 at Tue Oct  8 20:44:26 2019.
