 Gaussian 09, Revision D.01,
 Gaussian 09:  ES64L-G09RevD.01 24-Apr-2013

 ----------------------------------------------------------------------
 # td=(NStates=1) iop(3/107=0140000000,3/108=0140000000) iop(3/107=0140
 000000,3/108=0140000000) CAM-B3LYP/6-31G(d,p)
 ----------------------------------------------------------------------

 --
 TD
 --
 Symbolic Z-matrix:
 Charge =  0 Multiplicity = 1

                         Standard orientation:
 ---------------------------------------------------------------------
 Center     Atomic      Atomic             Coordinates (Angstroms)
 Number     Number       Type             X           Y           Z
 ---------------------------------------------------------------------
      1         12           0       -5.623788    1.214136    0.240240
      2          6           0       -5.155375   -2.160532   -0.363172
      3          6           0       -3.333908    1.141358    2.836239
      4          6           0       -6.133257    4.549615    0.643134
      5          6           0       -7.952751    1.219845   -2.392198
      6          7           0       -4.339884   -0.282526    0.983545
      7          6           0       -4.326716   -1.617027    0.649414
      8          6           0       -3.266232   -2.422396    1.402602
      9          6           0       -2.932630   -1.366989    2.558274
     10          6           0       -3.564576   -0.081524    2.184101
     11          6           0       -3.399055   -1.868765    3.957994
     12          6           0       -2.075072   -2.713275    0.579907
     13          6           0       -1.063714   -3.672012    1.338732
     14          6           0        0.328704   -3.842185    0.473896
     15          8           0        0.549599   -3.251085   -0.536355
     16          8           0        1.032718   -4.706412    1.158871
     17          7           0       -4.824428    2.651470    1.499096
     18          6           0       -3.952929    2.346083    2.488525
     19          6           0       -3.764521    3.589426    3.179912
     20          6           0       -4.503540    4.661200    2.584130
     21          6           0       -5.228324    3.929330    1.501164
     22          6           0       -2.736548    3.802297    4.396650
     23          6           0       -4.590812    5.959781    2.980167
     24          8           0       -3.974802    6.507041    3.939595
     25          7           0       -6.884901    2.645636   -0.592320
     26          6           0       -6.901904    3.885531   -0.290882
     27          6           0       -7.770841    4.668748   -1.239723
     28          6           0       -8.329768    3.684608   -2.068914
     29          6           0       -7.746550    2.423739   -1.608458
     30          6           0       -8.162095    6.044381   -1.254803
     31          6           0       -9.243295    3.842967   -3.166616
     32          6           0       -8.814322    4.137490   -4.572239
     33          7           0       -6.427840   -0.097585   -1.055565
     34          6           0       -7.433824   -0.024267   -1.981790
     35          6           0       -7.638842   -1.302108   -2.582788
     36          6           0       -6.768402   -2.194581   -2.057096
     37          6           0       -6.082445   -1.447000   -1.012331
     38          6           0       -8.622836   -1.453209   -3.800436
     39          6           0       -6.418792   -3.551057   -2.013518
     40          8           0       -6.807695   -4.534231   -2.665730
     41          6           0       -5.258693   -3.609591   -0.918126
     42          6           0       -5.498845   -4.607575    0.124841
     43          8           0       -5.783505   -4.415633    1.322129
     44          8           0       -5.154216   -5.768579   -0.329699
     45          6           0       -5.290602   -6.954482    0.499423
     46          6           0        2.367731   -5.022588    0.495364
     47          6           0        3.444891   -4.129304    0.961273
     48          6           0        4.031397   -3.254436    0.137325
     49          6           0        3.705223   -3.081956   -1.215062
     50          6           0        5.209222   -2.384971    0.680583
     51          6           0        6.642817   -2.672231   -0.080673
     52          6           0        7.738062   -1.899979    0.604890
     53          6           0        9.118376   -1.975011   -0.037276
     54          6           0        9.515873   -3.464225    0.065754
     55          6           0       10.123115   -1.014257    0.534320
     56          6           0       11.420220   -1.041673   -0.260663
     57          6           0       12.366487    0.193531    0.237930
     58          6           0       13.609489    0.392304   -0.693264
     59          6           0       14.719712   -0.828083   -0.444094
     60          6           0       14.184164    1.666767   -0.223093
     61          6           0       15.387965    2.146327   -1.065003
     62          6           0       16.016935    3.539077   -0.697660
     63          6           0       17.281168    4.003015   -1.331529
     64          6           0       17.035457    4.141611   -2.808388
     65          6           0       17.825704    5.320519   -0.681860
     66          1           0       -2.758171    0.970950    3.743896
     67          1           0       -6.315489    5.638880    0.492832
     68          1           0       -8.807322    1.189606   -3.271453
     69          1           0       -3.902230   -3.306100    1.727782
     70          1           0       -1.938285   -1.101353    2.539877
     71          1           0       -2.717450   -2.551362    4.563396
     72          1           0       -3.105414   -1.133304    4.661975
     73          1           0       -4.364565   -2.048770    3.865198
     74          1           0       -2.449834   -3.219808   -0.357230
     75          1           0       -1.386643   -1.869426    0.482012
     76          1           0       -0.806146   -3.161840    2.261287
     77          1           0       -1.448950   -4.736656    1.702906
     78          1           0       -1.683687    3.709869    4.145149
     79          1           0       -2.882944    4.907042    4.596969
     80          1           0       -2.920765    3.022214    5.218000
     81          1           0       -5.529944    6.616443    2.714733
     82          1           0      -10.097774    3.045477   -3.374304
     83          1           0       -9.870728    4.678562   -2.908137
     84          1           0       -9.510027    4.036959   -5.161002
     85          1           0       -8.123553    4.912744   -4.667198
     86          1           0       -8.378760    3.309374   -4.933166
     87          1           0       -8.163879   -0.849997   -4.679389
     88          1           0       -8.723047   -2.653498   -3.949107
     89          1           0       -9.739219   -1.011717   -3.818263
     90          1           0       -4.452675   -3.934683   -1.439040
     91          1           0        2.413551   -6.125459    0.699343
     92          1           0        2.000146   -5.004494   -0.561378
     93          1           0        3.659466   -4.279467    2.013708
     94          1           0        2.526610   -3.045548   -1.633229
     95          1           0        4.149303   -2.043507   -1.721555
     96          1           0        4.141597   -3.809363   -1.632906
     97          1           0        5.017112   -1.390995    0.475812
     98          1           0        5.590757   -2.445227    1.781116
     99          1           0        6.886874   -3.796359    0.033496
    100          1           0        6.546521   -2.499555   -1.178115
    101          1           0        7.195609   -0.940067    0.653453
    102          1           0        7.957816   -2.113366    1.722969
    103          1           0        8.870289   -1.660362   -1.007310
    104          1           0        8.707263   -4.119894   -0.207082
    105          1           0       10.667335   -3.581921   -0.331794
    106          1           0        9.660962   -3.697371    1.148787
    107          1           0        9.677754   -0.136175    0.523401
    108          1           0        9.994938   -1.254005    1.640603
    109          1           0       11.857482   -1.982122   -0.175899
    110          1           0       11.202115   -0.647777   -1.198522
    111          1           0       11.955555    1.054676    0.319826
    112          1           0       12.820930    0.236556    1.233220
    113          1           0       13.320338    0.312139   -1.733510
    114          1           0       14.808450   -0.696469    0.709722
    115          1           0       14.288268   -1.816021   -0.507595
    116          1           0       15.680849   -0.782338   -1.009715
    117          1           0       13.394116    2.389811   -0.174102
    118          1           0       14.390470    1.663002    0.824200
    119          1           0       16.210204    1.219007   -0.863896
    120          1           0       15.260486    1.985205   -2.150958
    121          1           0       15.192105    4.323358   -0.812620
    122          1           0       16.077569    3.536374    0.329089
    123          1           0       18.040655    3.240047   -1.223370
    124          1           0       16.323345    4.987149   -3.126444
    125          1           0       18.003936    4.264595   -3.488743
    126          1           0       16.294342    3.338627   -3.213003
    127          1           0       17.858299    5.381964    0.420140
    128          1           0       18.817941    5.856087   -1.135323
    129          1           0       17.065273    6.200358   -0.966128
    130          1           0       -5.208971   -7.845494   -0.106698
    131          1           0       -6.424913   -6.748720    1.047513
    132          1           0       -4.636807   -6.894110    1.254451
    133          8           0       -7.733183    6.895011   -0.497804
    134          1           0       -9.049117    6.316554   -2.092242
 ---------------------------------------------------------------------

 SCF Done:  E(RCAM-B3LYP) =  -3043.38511909     A.U. after   16 cycles

 Excitation energies and oscillator strengths:

 Excited State   1:      Singlet-A      1.9498 eV  635.88 nm  f=0.2307  <S**2>=0.000
     243 -> 246       -0.23502
     244 -> 245        0.66042
 This state for optimization and/or second-order correction.
 Total Energy, E(TD-HF/TD-KS) =  -3043.31346514
 Copying the excited state density for this state as the 1-particle RhoCI density.

 The electronic state is 1-A.
 Alpha  occ. eigenvalues --  -46.81773 -19.23498 -19.22670 -19.17851 -19.17726
 Alpha  occ. eigenvalues --  -19.17515 -19.16827 -19.15272 -14.39557 -14.37501
 Alpha  occ. eigenvalues --  -14.37416 -14.36878 -10.35186 -10.35133 -10.31982
 Alpha  occ. eigenvalues --  -10.31278 -10.28936 -10.28773 -10.28219 -10.28185
 Alpha  occ. eigenvalues --  -10.28045 -10.26892 -10.26823 -10.26748 -10.26199
 Alpha  occ. eigenvalues --  -10.26069 -10.26057 -10.25955 -10.25782 -10.25748
 Alpha  occ. eigenvalues --  -10.24735 -10.24634 -10.24523 -10.24285 -10.24095
 Alpha  occ. eigenvalues --  -10.23999 -10.23912 -10.23885 -10.23700 -10.23365
 Alpha  occ. eigenvalues --  -10.23303 -10.23267 -10.23108 -10.23051 -10.22932
 Alpha  occ. eigenvalues --  -10.22697 -10.22517 -10.22368 -10.22337 -10.22007
 Alpha  occ. eigenvalues --  -10.21953 -10.21836 -10.21738 -10.21579 -10.21544
 Alpha  occ. eigenvalues --  -10.21500 -10.21448 -10.21329 -10.21272 -10.21028
 Alpha  occ. eigenvalues --  -10.20734 -10.20509 -10.20166 -10.19771 -10.19750
 Alpha  occ. eigenvalues --  -10.18710  -3.10352  -1.85300  -1.84819  -1.84759
 Alpha  occ. eigenvalues --   -1.15469  -1.14103  -1.07224  -1.06292  -1.06167
 Alpha  occ. eigenvalues --   -1.03781  -1.03072  -1.02545  -1.00435  -1.00224
 Alpha  occ. eigenvalues --   -0.98220  -0.89698  -0.87375  -0.86790  -0.86332
 Alpha  occ. eigenvalues --   -0.85469  -0.85217  -0.85162  -0.84015  -0.83647
 Alpha  occ. eigenvalues --   -0.83024  -0.81953  -0.81792  -0.80929  -0.80792
 Alpha  occ. eigenvalues --   -0.80179  -0.78886  -0.78307  -0.77273  -0.76745
 Alpha  occ. eigenvalues --   -0.74676  -0.74569  -0.73947  -0.73812  -0.72035
 Alpha  occ. eigenvalues --   -0.71438  -0.70955  -0.70837  -0.70171  -0.69642
 Alpha  occ. eigenvalues --   -0.69557  -0.69031  -0.68744  -0.67830  -0.66822
 Alpha  occ. eigenvalues --   -0.66567  -0.65287  -0.64951  -0.62658  -0.62261
 Alpha  occ. eigenvalues --   -0.62044  -0.61733  -0.61457  -0.60059  -0.59713
 Alpha  occ. eigenvalues --   -0.59347  -0.58719  -0.58418  -0.58087  -0.57212
 Alpha  occ. eigenvalues --   -0.56364  -0.56258  -0.55820  -0.55479  -0.54699
 Alpha  occ. eigenvalues --   -0.54275  -0.53638  -0.52844  -0.52617  -0.52432
 Alpha  occ. eigenvalues --   -0.52102  -0.51990  -0.51896  -0.51538  -0.51167
 Alpha  occ. eigenvalues --   -0.50782  -0.50650  -0.50101  -0.50023  -0.49584
 Alpha  occ. eigenvalues --   -0.49384  -0.49210  -0.48669  -0.48581  -0.48139
 Alpha  occ. eigenvalues --   -0.47968  -0.47568  -0.47475  -0.47279  -0.47158
 Alpha  occ. eigenvalues --   -0.46886  -0.46722  -0.46508  -0.46395  -0.46200
 Alpha  occ. eigenvalues --   -0.45852  -0.45813  -0.45558  -0.45390  -0.45178
 Alpha  occ. eigenvalues --   -0.44756  -0.44101  -0.44039  -0.43912  -0.43625
 Alpha  occ. eigenvalues --   -0.43429  -0.43209  -0.42938  -0.42781  -0.42614
 Alpha  occ. eigenvalues --   -0.42388  -0.42260  -0.42029  -0.41983  -0.41715
 Alpha  occ. eigenvalues --   -0.41600  -0.41245  -0.41127  -0.40825  -0.40676
 Alpha  occ. eigenvalues --   -0.40544  -0.40278  -0.40028  -0.39882  -0.39764
 Alpha  occ. eigenvalues --   -0.39714  -0.39551  -0.39446  -0.39169  -0.39040
 Alpha  occ. eigenvalues --   -0.38920  -0.38670  -0.38556  -0.38542  -0.37987
 Alpha  occ. eigenvalues --   -0.37880  -0.37775  -0.37623  -0.37082  -0.37035
 Alpha  occ. eigenvalues --   -0.36844  -0.36808  -0.36693  -0.36612  -0.36127
 Alpha  occ. eigenvalues --   -0.35945  -0.35486  -0.35125  -0.35038  -0.34725
 Alpha  occ. eigenvalues --   -0.34252  -0.34110  -0.33795  -0.33507  -0.33292
 Alpha  occ. eigenvalues --   -0.33257  -0.32836  -0.32710  -0.31910  -0.31836
 Alpha  occ. eigenvalues --   -0.31483  -0.30863  -0.30656  -0.30433  -0.30269
 Alpha  occ. eigenvalues --   -0.29369  -0.28704  -0.28494  -0.28067  -0.27810
 Alpha  occ. eigenvalues --   -0.27487  -0.25979  -0.23469  -0.21573
 Alpha virt. eigenvalues --   -0.09009  -0.06837  -0.02669  -0.01106   0.00306
 Alpha virt. eigenvalues --    0.02239   0.02492   0.03720   0.03888   0.04528
 Alpha virt. eigenvalues --    0.05292   0.05926   0.07352   0.08752   0.09134

 Mulliken charges:
               1
     1  Mg   0.824860
     2  C    0.069190
     3  C   -0.160575
     4  C   -0.142711
     5  C   -0.170104
     6  N   -0.639407
     7  C    0.288949
     8  C   -0.138904
     9  C   -0.183698
    10  C    0.317939
    11  C   -0.295642
    12  C   -0.153817
    13  C   -0.282374
    14  C    0.602069
    15  O   -0.456835
    16  O   -0.449201
    17  N   -0.731580
    18  C    0.360966
    19  C   -0.020513
    20  C    0.063725
    21  C    0.305615
    22  C   -0.391857
    23  C    0.154077
    24  O   -0.444628
    25  N   -0.671080
    26  C    0.322356
    27  C   -0.022298
    28  C    0.069323
    29  C    0.261115
    30  C    0.231752
    31  C   -0.301397
    32  C   -0.277781
    33  N   -0.720823
    34  C    0.313050
    35  C   -0.006865
    36  C    0.093914
    37  C    0.275439
    38  C   -0.379802
    39  C    0.341260
    40  O   -0.469805
    41  C   -0.317515
    42  C    0.622456
    43  O   -0.511215
    44  O   -0.419099
    45  C   -0.082075
    46  C   -0.040118
    47  C   -0.118475
    48  C    0.164648
    49  C   -0.387977
    50  C   -0.241698
    51  C   -0.193050
    52  C   -0.176618
    53  C   -0.057764
    54  C   -0.308185
    55  C   -0.160302
    56  C   -0.171512
    57  C   -0.187926
    58  C   -0.066545
    59  C   -0.318627
    60  C   -0.172379
    61  C   -0.178742
    62  C   -0.167788
    63  C   -0.025889
    64  C   -0.303850
    65  C   -0.310783
    66  H    0.099539
    67  H    0.147601
    68  H    0.096616
    69  H    0.140903
    70  H    0.111779
    71  H    0.104511
    72  H    0.105095
    73  H    0.138023
    74  H    0.102399
    75  H    0.126350
    76  H    0.128815
    77  H    0.105708
    78  H    0.123839
    79  H    0.168018
    80  H    0.101615
    81  H    0.077985
    82  H    0.090173
    83  H    0.117183
    84  H    0.110383
    85  H    0.119745
    86  H    0.108358
    87  H    0.128240
    88  H    0.133323
    89  H    0.114408
    90  H    0.170600
    91  H    0.116890
    92  H    0.125854
    93  H    0.096057
    94  H    0.150128
    95  H    0.082393
    96  H    0.149588
    97  H    0.118280
    98  H    0.098711
    99  H    0.085394
   100  H    0.101293
   101  H    0.082012
   102  H    0.073503
   103  H    0.083724
   104  H    0.110749
   105  H    0.078605
   106  H    0.096173
   107  H    0.098817
   108  H    0.072307
   109  H    0.109943
   110  H    0.114418
   111  H    0.095454
   112  H    0.079808
   113  H    0.085369
   114  H    0.085677
   115  H    0.099299
   116  H    0.107987
   117  H    0.088847
   118  H    0.096307
   119  H    0.054842
   120  H    0.095768
   121  H    0.077762
   122  H    0.095567
   123  H    0.099857
   124  H    0.090229
   125  H    0.086352
   126  H    0.091495
   127  H    0.107630
   128  H    0.085991
   129  H    0.080390
   130  H    0.141616
   131  H    0.114224
   132  H    0.146203
   133  O   -0.418294
   134  H    0.042707
 Sum of Mulliken charges =   0.00000

 Dipole moment (field-independent basis, Debye):
    X=              2.4095    Y=             -7.1518    Z=             -2.3471  Tot=              7.9034
 Quadrupole moment (field-independent basis, Debye-Ang):
   XX=           -397.1121   YY=           -443.3002   ZZ=           -398.1668
   XY=             13.7589   XZ=             30.8166   YZ=            -38.3482

 Normal termination of Gaussian 09 at Mon Oct  7 12:49:31 2019.
