 Gaussian 09, Revision D.01,
 Gaussian 09:  ES64L-G09RevD.01 24-Apr-2013

 ----------------------------------------------------------------------
 # td=(NStates=1) iop(3/107=0140000000,3/108=0140000000) iop(3/107=0140
 000000,3/108=0140000000) CAM-B3LYP/6-31G(d,p)
 ----------------------------------------------------------------------

 --
 TD
 --
 Symbolic Z-matrix:
 Charge =  0 Multiplicity = 1

                         Standard orientation:
 ---------------------------------------------------------------------
 Center     Atomic      Atomic             Coordinates (Angstroms)
 Number     Number       Type             X           Y           Z
 ---------------------------------------------------------------------
      1         12           0       -5.583858    1.239260    0.106940
      2          6           0       -5.002508   -2.147693   -0.337015
      3          6           0       -3.360701    1.214688    2.679695
      4          6           0       -6.254154    4.592592    0.588152
      5          6           0       -8.008995    1.134069   -2.357284
      6          7           0       -4.308374   -0.232448    0.900920
      7          6           0       -4.146448   -1.640923    0.630228
      8          6           0       -3.208914   -2.298178    1.501626
      9          6           0       -2.958255   -1.287588    2.617930
     10          6           0       -3.584474   -0.038208    2.096186
     11          6           0       -3.770930   -1.657461    3.799785
     12          6           0       -1.875635   -2.771484    0.658316
     13          6           0       -0.998151   -3.720899    1.360409
     14          6           0        0.316272   -3.808286    0.584195
     15          8           0        0.598793   -3.235101   -0.493498
     16          8           0        1.216046   -4.708335    1.251715
     17          7           0       -4.950508    2.623316    1.340157
     18          6           0       -3.897191    2.416898    2.359803
     19          6           0       -3.625236    3.643830    3.021026
     20          6           0       -4.531342    4.585606    2.530524
     21          6           0       -5.268339    3.975457    1.457376
     22          6           0       -2.759498    3.814629    4.247192
     23          6           0       -4.681320    5.986515    2.917978
     24          8           0       -4.126150    6.496337    3.853612
     25          7           0       -6.861612    2.548507   -0.846980
     26          6           0       -7.062733    3.927827   -0.375568
     27          6           0       -8.123397    4.562020   -1.211510
     28          6           0       -8.623254    3.568389   -2.059288
     29          6           0       -7.799452    2.339962   -1.772664
     30          6           0       -8.552522    5.933460   -0.996285
     31          6           0       -9.600503    3.765719   -3.106511
     32          6           0       -8.851124    4.083569   -4.453853
     33          7           0       -6.381565   -0.129300   -1.010856
     34          6           0       -7.407716   -0.083901   -2.052621
     35          6           0       -7.530017   -1.345644   -2.671925
     36          6           0       -6.679989   -2.193417   -1.944038
     37          6           0       -5.984990   -1.359606   -1.097388
     38          6           0       -8.631767   -1.773360   -3.638801
     39          6           0       -6.266536   -3.571369   -1.975252
     40          8           0       -6.688478   -4.491479   -2.573097
     41          6           0       -5.013989   -3.588636   -0.827586
     42          6           0       -5.280748   -4.594919    0.176909
     43          8           0       -5.767193   -4.343234    1.309566
     44          8           0       -5.119575   -5.904039   -0.298288
     45          6           0       -5.363169   -6.937988    0.567066
     46          6           0        2.476808   -5.017664    0.453425
     47          6           0        3.560650   -4.258092    0.894695
     48          6           0        4.148441   -3.277620    0.072520
     49          6           0        3.959190   -3.065640   -1.443672
     50          6           0        5.202005   -2.361485    0.636397
     51          6           0        6.496859   -2.648250   -0.064965
     52          6           0        7.674185   -1.675578    0.631090
     53          6           0        9.184141   -1.997455    0.038572
     54          6           0        9.547910   -3.409701    0.153794
     55          6           0       10.083691   -0.974411    0.633215
     56          6           0       11.446031   -0.992230   -0.031117
     57          6           0       12.252655    0.199348    0.355630
     58          6           0       13.579177    0.412119   -0.455082
     59          6           0       14.624058   -0.686161   -0.302095
     60          6           0       14.254197    1.759993   -0.134638
     61          6           0       15.472225    2.271713   -0.884983
     62          6           0       15.873418    3.714929   -0.655081
     63          6           0       17.336236    3.927576   -1.392838
     64          6           0       17.214172    3.938354   -3.013294
     65          6           0       17.925441    5.300267   -0.997645
     66          1           0       -2.667434    1.270134    3.531539
     67          1           0       -6.455000    5.643200    0.767148
     68          1           0       -8.703833    0.896672   -3.207728
     69          1           0       -3.756382   -3.280668    1.949832
     70          1           0       -1.933986   -1.034563    2.681615
     71          1           0       -3.371830   -2.650352    4.358582
     72          1           0       -3.777745   -0.859060    4.601517
     73          1           0       -4.900444   -1.816827    3.558552
     74          1           0       -2.327913   -3.254413   -0.367354
     75          1           0       -1.443492   -1.860209    0.408797
     76          1           0       -0.764281   -3.441023    2.375370
     77          1           0       -1.329854   -4.829650    1.375456
     78          1           0       -1.787069    3.521430    3.998551
     79          1           0       -2.683397    4.892770    4.590798
     80          1           0       -3.338136    3.384623    5.204332
     81          1           0       -5.414487    6.276957    2.247962
     82          1           0      -10.335333    2.849773   -3.282162
     83          1           0      -10.274587    4.534369   -2.768347
     84          1           0       -9.376513    4.495665   -5.416505
     85          1           0       -7.904226    4.918345   -3.991160
     86          1           0       -8.246886    3.181210   -4.815338
     87          1           0       -8.612346   -1.250478   -4.596780
     88          1           0       -8.820069   -2.786192   -3.613068
     89          1           0       -9.738304   -1.528046   -3.437421
     90          1           0       -4.081172   -3.994209   -1.322072
     91          1           0        2.633693   -6.056258    0.723950
     92          1           0        1.960742   -4.912937   -0.620025
     93          1           0        3.711333   -4.070842    1.934046
     94          1           0        2.866453   -3.368355   -1.697649
     95          1           0        4.060772   -1.941880   -1.705894
     96          1           0        4.623223   -3.747836   -1.867915
     97          1           0        4.992668   -1.330944    0.606669
     98          1           0        5.090179   -2.507160    1.738910
     99          1           0        6.905175   -3.717762    0.101070
    100          1           0        6.537536   -2.360374   -1.090400
    101          1           0        7.509158   -0.689799    0.580221
    102          1           0        7.844072   -1.664923    1.761685
    103          1           0        9.238873   -1.760704   -1.050004
    104          1           0        8.787276   -4.144372   -0.475063
    105          1           0       10.624483   -3.774402   -0.259608
    106          1           0        9.793040   -3.721537    1.264163
    107          1           0        9.773938   -0.107372    0.513933
    108          1           0       10.212264   -1.006627    1.766515
    109          1           0       12.059276   -1.778369    0.341409
    110          1           0       11.198496   -0.730175   -1.130791
    111          1           0       11.707141    1.223035    0.357160
    112          1           0       12.703928    0.070115    1.253663
    113          1           0       13.389984    0.498210   -1.577338
    114          1           0       15.091086   -1.042604    0.784401
    115          1           0       14.337023   -1.672204   -0.805732
    116          1           0       15.455650   -0.333563   -0.944189
    117          1           0       13.518893    2.725775   -0.216753
    118          1           0       14.481070    1.868016    0.900241
    119          1           0       16.398705    1.584892   -0.848341
    120          1           0       15.280276    2.226433   -1.994554
    121          1           0       15.221800    4.514081   -1.116986
    122          1           0       16.121437    3.701913    0.330897
    123          1           0       18.057981    3.096588   -0.840924
    124          1           0       16.392972    4.653504   -3.084399
    125          1           0       18.104911    4.300481   -3.472737
    126          1           0       17.080596    2.873560   -3.357865
    127          1           0       17.852727    5.397229    0.189357
    128          1           0       19.010579    5.366250   -1.295055
    129          1           0       17.331670    6.247901   -1.419225
    130          1           0       -4.996019   -7.847219    0.120606
    131          1           0       -6.583928   -7.264612    0.669011
    132          1           0       -4.691813   -6.578269    1.435278
    133          8           0       -8.006706    6.758624   -0.323125
    134          1           0       -9.520384    6.065749   -1.579289
 ---------------------------------------------------------------------

 SCF Done:  E(RCAM-B3LYP) =  -3043.42984442     A.U. after   16 cycles

 Excitation energies and oscillator strengths:

 Excited State   1:      Singlet-A      1.8904 eV  655.85 nm  f=0.2087  <S**2>=0.000
     243 -> 246        0.20580
     244 -> 245        0.66782
 This state for optimization and/or second-order correction.
 Total Energy, E(TD-HF/TD-KS) =  -3043.36037227
 Copying the excited state density for this state as the 1-particle RhoCI density.

 The electronic state is 1-A.
 Alpha  occ. eigenvalues --  -46.79727 -19.22168 -19.20840 -19.18542 -19.18295
 Alpha  occ. eigenvalues --  -19.18233 -19.17326 -19.17029 -14.39258 -14.37298
 Alpha  occ. eigenvalues --  -14.36582 -14.36420 -10.35752 -10.35119 -10.32238
 Alpha  occ. eigenvalues --  -10.31098 -10.29335 -10.28294 -10.27855 -10.27548
 Alpha  occ. eigenvalues --  -10.27061 -10.26932 -10.26899 -10.26452 -10.26437
 Alpha  occ. eigenvalues --  -10.25981 -10.25834 -10.25705 -10.25635 -10.25291
 Alpha  occ. eigenvalues --  -10.25123 -10.25026 -10.24922 -10.24726 -10.24480
 Alpha  occ. eigenvalues --  -10.24355 -10.24240 -10.24209 -10.24083 -10.24001
 Alpha  occ. eigenvalues --  -10.23967 -10.23672 -10.23652 -10.23616 -10.23077
 Alpha  occ. eigenvalues --  -10.22867 -10.22700 -10.22695 -10.22526 -10.22328
 Alpha  occ. eigenvalues --  -10.22150 -10.22054 -10.21974 -10.21842 -10.21713
 Alpha  occ. eigenvalues --  -10.21688 -10.21214 -10.21150 -10.21077 -10.20979
 Alpha  occ. eigenvalues --  -10.20941 -10.20845 -10.20743 -10.20520 -10.19892
 Alpha  occ. eigenvalues --  -10.18846  -3.08699  -1.83598  -1.83172  -1.83157
 Alpha  occ. eigenvalues --   -1.12519  -1.10177  -1.09324  -1.08917  -1.07589
 Alpha  occ. eigenvalues --   -1.03505  -1.02254  -1.00812  -0.98521  -0.98204
 Alpha  occ. eigenvalues --   -0.96793  -0.87856  -0.86285  -0.86048  -0.85720
 Alpha  occ. eigenvalues --   -0.85498  -0.85067  -0.84118  -0.84057  -0.83844
 Alpha  occ. eigenvalues --   -0.82740  -0.82541  -0.82092  -0.80321  -0.79850
 Alpha  occ. eigenvalues --   -0.79073  -0.78464  -0.77395  -0.76942  -0.76199
 Alpha  occ. eigenvalues --   -0.75295  -0.74923  -0.74234  -0.72179  -0.71662
 Alpha  occ. eigenvalues --   -0.70987  -0.70739  -0.70048  -0.69921  -0.69454
 Alpha  occ. eigenvalues --   -0.69260  -0.68581  -0.67792  -0.66766  -0.66233
 Alpha  occ. eigenvalues --   -0.66099  -0.64295  -0.64094  -0.62672  -0.62413
 Alpha  occ. eigenvalues --   -0.61776  -0.59951  -0.59900  -0.58802  -0.57901
 Alpha  occ. eigenvalues --   -0.57821  -0.57745  -0.57162  -0.56998  -0.56485
 Alpha  occ. eigenvalues --   -0.56252  -0.55515  -0.55406  -0.54796  -0.54497
 Alpha  occ. eigenvalues --   -0.53723  -0.53412  -0.52429  -0.52302  -0.52192
 Alpha  occ. eigenvalues --   -0.51975  -0.51672  -0.51272  -0.50975  -0.50718
 Alpha  occ. eigenvalues --   -0.50675  -0.49893  -0.49632  -0.49205  -0.48622
 Alpha  occ. eigenvalues --   -0.48425  -0.48353  -0.48094  -0.47930  -0.47721
 Alpha  occ. eigenvalues --   -0.47670  -0.47491  -0.47328  -0.47220  -0.46769
 Alpha  occ. eigenvalues --   -0.46659  -0.46358  -0.46121  -0.45958  -0.45816
 Alpha  occ. eigenvalues --   -0.45605  -0.45276  -0.45245  -0.44929  -0.44802
 Alpha  occ. eigenvalues --   -0.44543  -0.44312  -0.44219  -0.43934  -0.43897
 Alpha  occ. eigenvalues --   -0.43801  -0.43364  -0.43162  -0.43045  -0.42957
 Alpha  occ. eigenvalues --   -0.42716  -0.42415  -0.42261  -0.42203  -0.41938
 Alpha  occ. eigenvalues --   -0.41662  -0.41539  -0.41401  -0.41140  -0.40974
 Alpha  occ. eigenvalues --   -0.40757  -0.40645  -0.40202  -0.40140  -0.39982
 Alpha  occ. eigenvalues --   -0.39868  -0.39522  -0.39381  -0.39314  -0.39257
 Alpha  occ. eigenvalues --   -0.38750  -0.38705  -0.38556  -0.38124  -0.37855
 Alpha  occ. eigenvalues --   -0.37330  -0.37172  -0.37103  -0.36617  -0.36222
 Alpha  occ. eigenvalues --   -0.36199  -0.36116  -0.35918  -0.35828  -0.35587
 Alpha  occ. eigenvalues --   -0.35489  -0.35361  -0.35043  -0.35001  -0.34659
 Alpha  occ. eigenvalues --   -0.34357  -0.34222  -0.33391  -0.32962  -0.32842
 Alpha  occ. eigenvalues --   -0.32557  -0.32378  -0.32108  -0.32095  -0.31612
 Alpha  occ. eigenvalues --   -0.31505  -0.30889  -0.30386  -0.29943  -0.29699
 Alpha  occ. eigenvalues --   -0.28996  -0.28713  -0.28508  -0.28139  -0.27634
 Alpha  occ. eigenvalues --   -0.27462  -0.26134  -0.23282  -0.21347
 Alpha virt. eigenvalues --   -0.09191  -0.06567  -0.01527  -0.00941   0.00280
 Alpha virt. eigenvalues --    0.01888   0.02204   0.02652   0.03411   0.04421
 Alpha virt. eigenvalues --    0.04673   0.05909   0.07417   0.08169   0.09030

 Mulliken charges:
               1
     1  Mg   0.814387
     2  C    0.059557
     3  C   -0.192794
     4  C   -0.200499
     5  C   -0.170397
     6  N   -0.606468
     7  C    0.323481
     8  C   -0.195630
     9  C   -0.112233
    10  C    0.305815
    11  C   -0.308823
    12  C   -0.160816
    13  C   -0.252780
    14  C    0.599975
    15  O   -0.473598
    16  O   -0.516994
    17  N   -0.725260
    18  C    0.311066
    19  C    0.037484
    20  C   -0.052722
    21  C    0.313293
    22  C   -0.384343
    23  C    0.300893
    24  O   -0.429764
    25  N   -0.670524
    26  C    0.252499
    27  C    0.000771
    28  C    0.031731
    29  C    0.347570
    30  C    0.266280
    31  C   -0.251641
    32  C   -0.285068
    33  N   -0.734420
    34  C    0.240161
    35  C    0.026332
    36  C    0.016929
    37  C    0.362154
    38  C   -0.388534
    39  C    0.372657
    40  O   -0.409950
    41  C   -0.362297
    42  C    0.624263
    43  O   -0.488176
    44  O   -0.444750
    45  C   -0.057294
    46  C    0.006431
    47  C   -0.119623
    48  C    0.104674
    49  C   -0.369035
    50  C   -0.213687
    51  C   -0.183926
    52  C   -0.201484
    53  C   -0.039667
    54  C   -0.291910
    55  C   -0.150352
    56  C   -0.167827
    57  C   -0.179922
    58  C   -0.059326
    59  C   -0.312179
    60  C   -0.162953
    61  C   -0.183562
    62  C   -0.161150
    63  C   -0.071676
    64  C   -0.304996
    65  C   -0.292102
    66  H    0.090247
    67  H    0.143728
    68  H    0.088041
    69  H    0.127833
    70  H    0.114774
    71  H    0.093566
    72  H    0.108591
    73  H    0.139190
    74  H    0.097739
    75  H    0.134765
    76  H    0.147600
    77  H    0.144459
    78  H    0.124775
    79  H    0.159708
    80  H    0.120819
    81  H    0.073077
    82  H    0.100160
    83  H    0.121830
    84  H    0.113700
    85  H    0.066656
    86  H    0.117438
    87  H    0.127086
    88  H    0.152944
    89  H    0.112665
    90  H    0.145390
    91  H    0.111116
    92  H    0.122265
    93  H    0.093272
    94  H    0.131440
    95  H    0.109212
    96  H    0.139059
    97  H    0.109770
    98  H    0.089445
    99  H    0.106183
   100  H    0.119402
   101  H    0.099171
   102  H    0.078610
   103  H    0.076465
   104  H    0.084151
   105  H    0.082490
   106  H    0.087683
   107  H    0.097287
   108  H    0.069360
   109  H    0.106312
   110  H    0.084103
   111  H    0.072033
   112  H    0.101194
   113  H    0.077037
   114  H    0.077046
   115  H    0.096191
   116  H    0.109840
   117  H    0.056348
   118  H    0.092087
   119  H    0.081470
   120  H    0.082146
   121  H    0.092590
   122  H    0.106172
   123  H    0.060424
   124  H    0.108812
   125  H    0.111553
   126  H    0.104557
   127  H    0.078608
   128  H    0.102141
   129  H    0.080351
   130  H    0.125312
   131  H    0.092661
   132  H    0.108808
   133  O   -0.409878
   134  H    0.051666
 Sum of Mulliken charges =   0.00000

 Dipole moment (field-independent basis, Debye):
    X=              1.8545    Y=             -3.3143    Z=             -1.5784  Tot=              4.1128
 Quadrupole moment (field-independent basis, Debye-Ang):
   XX=           -370.8601   YY=           -441.6499   ZZ=           -394.3077
   XY=              5.6539   XZ=             24.8848   YZ=            -27.0962

 Normal termination of Gaussian 09 at Wed Oct  9 02:10:07 2019.
