 Gaussian 09, Revision D.01,
 Gaussian 09:  ES64L-G09RevD.01 24-Apr-2013

 ----------------------------------------------------------------------
 # td=(NStates=1) iop(3/107=0140000000,3/108=0140000000) iop(3/107=0140
 000000,3/108=0140000000) CAM-B3LYP/6-31G(d,p)
 ----------------------------------------------------------------------

 --
 TD
 --
 Symbolic Z-matrix:
 Charge =  0 Multiplicity = 1

                         Standard orientation:
 ---------------------------------------------------------------------
 Center     Atomic      Atomic             Coordinates (Angstroms)
 Number     Number       Type             X           Y           Z
 ---------------------------------------------------------------------
      1         12           0       -5.566635    1.236315    0.195843
      2          6           0       -5.016771   -2.184236   -0.397259
      3          6           0       -3.312203    1.246981    2.699856
      4          6           0       -6.234894    4.562324    0.715068
      5          6           0       -7.917278    1.218296   -2.378860
      6          7           0       -4.313855   -0.278614    0.948496
      7          6           0       -4.198021   -1.602792    0.640972
      8          6           0       -3.141156   -2.263001    1.442254
      9          6           0       -2.826939   -1.257488    2.542184
     10          6           0       -3.382395   -0.007122    2.009200
     11          6           0       -3.297128   -1.687483    3.816211
     12          6           0       -1.910661   -2.707105    0.633819
     13          6           0       -1.064043   -3.745234    1.399372
     14          6           0        0.246575   -3.904732    0.560396
     15          8           0        0.420404   -3.420329   -0.498972
     16          8           0        1.061156   -4.772098    1.182243
     17          7           0       -4.897181    2.570911    1.471548
     18          6           0       -3.948633    2.494973    2.384496
     19          6           0       -3.890619    3.654601    3.277595
     20          6           0       -4.609195    4.658515    2.551309
     21          6           0       -5.277594    3.920922    1.537084
     22          6           0       -2.865754    3.776290    4.404824
     23          6           0       -4.759287    6.041331    2.892850
     24          8           0       -4.098379    6.593536    3.851583
     25          7           0       -6.756501    2.616567   -0.743351
     26          6           0       -6.910218    3.938293   -0.330622
     27          6           0       -7.845879    4.608576   -1.232391
     28          6           0       -8.302019    3.643460   -2.175343
     29          6           0       -7.699722    2.398054   -1.691390
     30          6           0       -8.272556    5.972266   -1.144925
     31          6           0       -9.292173    3.783938   -3.219451
     32          6           0       -8.646951    4.073787   -4.564187
     33          7           0       -6.338166   -0.146346   -1.114081
     34          6           0       -7.286970   -0.015251   -2.126566
     35          6           0       -7.546762   -1.321995   -2.758010
     36          6           0       -6.704518   -2.149256   -2.090795
     37          6           0       -6.012888   -1.426887   -1.068593
     38          6           0       -8.470658   -1.681954   -3.734523
     39          6           0       -6.238852   -3.528087   -1.906377
     40          8           0       -6.684252   -4.592346   -2.421955
     41          6           0       -5.041559   -3.519546   -0.896251
     42          6           0       -5.315033   -4.618052    0.172899
     43          8           0       -5.797542   -4.350204    1.274815
     44          8           0       -4.861599   -5.794264   -0.177023
     45          6           0       -5.222832   -6.920288    0.687567
     46          6           0        2.264022   -5.069308    0.572696
     47          6           0        3.411537   -4.073401    0.877606
     48          6           0        4.036402   -3.328128    0.015384
     49          6           0        3.854705   -3.282661   -1.458079
     50          6           0        5.103982   -2.434235    0.648926
     51          6           0        6.537417   -2.840702    0.033401
     52          6           0        7.632637   -1.885169    0.662128
     53          6           0        9.012166   -2.085279   -0.114194
     54          6           0        9.617505   -3.360141    0.218083
     55          6           0       10.032188   -0.945156    0.419112
     56          6           0       11.304078   -0.835077   -0.343927
     57          6           0       12.156094    0.317728    0.160773
     58          6           0       13.412253    0.521607   -0.553837
     59          6           0       14.426710   -0.579715   -0.437387
     60          6           0       14.122837    1.757669   -0.120315
     61          6           0       15.294980    2.150346   -0.822106
     62          6           0       15.922328    3.518328   -0.597934
     63          6           0       17.186643    4.016105   -1.359809
     64          6           0       16.934639    4.227091   -2.909387
     65          6           0       17.793501    5.212934   -0.737990
     66          1           0       -2.649634    1.078081    3.423306
     67          1           0       -6.247418    5.716799    0.693653
     68          1           0       -8.880875    1.109927   -3.001606
     69          1           0       -3.685858   -3.201964    1.742420
     70          1           0       -1.768627   -0.871687    2.633166
     71          1           0       -2.931356   -2.693713    4.035741
     72          1           0       -3.217536   -1.051131    4.695231
     73          1           0       -4.406325   -1.909301    3.890585
     74          1           0       -2.513689   -3.110441   -0.042727
     75          1           0       -1.142631   -1.790379    0.202452
     76          1           0       -0.748595   -3.315738    2.521328
     77          1           0       -1.502185   -4.874221    1.499273
     78          1           0       -1.863393    3.447191    4.350723
     79          1           0       -2.766932    4.962892    4.611864
     80          1           0       -3.133999    3.244340    5.242581
     81          1           0       -5.648122    6.562934    2.440957
     82          1           0       -9.747584    2.887118   -3.368771
     83          1           0       -9.829674    4.610269   -2.960493
     84          1           0       -9.319092    3.972264   -5.365835
     85          1           0       -8.026365    5.089326   -4.568081
     86          1           0       -7.903581    3.424563   -4.908194
     87          1           0       -8.316182   -1.355124   -4.871047
     88          1           0       -8.871566   -2.821560   -3.825191
     89          1           0       -9.511518   -1.377654   -3.378546
     90          1           0       -4.229261   -4.021612   -1.565723
     91          1           0        2.595432   -6.081302    1.121123
     92          1           0        2.074863   -5.191590   -0.496461
     93          1           0        3.657618   -4.210959    1.874344
     94          1           0        2.807556   -3.500630   -1.771602
     95          1           0        4.161999   -2.340460   -1.924185
     96          1           0        4.512708   -4.003759   -1.893226
     97          1           0        4.784369   -1.447175    0.742878
     98          1           0        5.040357   -2.813212    1.805626
     99          1           0        6.679060   -3.790032    0.317404
    100          1           0        6.870872   -2.649026   -1.039426
    101          1           0        7.155160   -0.857568    0.578818
    102          1           0        7.800369   -2.107110    1.836626
    103          1           0        8.881649   -1.934188   -1.135922
    104          1           0        8.991337   -4.254927   -0.026376
    105          1           0       10.535930   -3.481155   -0.209274
    106          1           0        9.602174   -3.431738    1.263900
    107          1           0        9.377332   -0.008180    0.241528
    108          1           0       10.189191   -1.174392    1.466638
    109          1           0       11.719889   -1.689583   -0.358983
    110          1           0       11.166485   -0.593799   -1.440796
    111          1           0       11.520617    1.217690    0.277219
    112          1           0       12.243631   -0.082428    1.267618
    113          1           0       13.096628    0.629957   -1.535586
    114          1           0       14.662395   -1.055659    0.554084
    115          1           0       13.976028   -1.752347   -0.769819
    116          1           0       15.307517   -0.324107   -1.144424
    117          1           0       13.303168    2.396479   -0.243409
    118          1           0       14.308700    1.630951    1.077131
    119          1           0       15.943232    1.485275   -0.420750
    120          1           0       15.079103    2.069069   -1.938540
    121          1           0       15.071719    4.359294   -0.799562
    122          1           0       16.107727    3.625237    0.582212
    123          1           0       17.969636    3.167423   -1.170963
    124          1           0       16.082406    4.785358   -3.083253
    125          1           0       17.750751    4.768022   -3.526833
    126          1           0       16.444042    3.309529   -3.311048
    127          1           0       17.985665    5.131125    0.379125
    128          1           0       18.852520    5.244885   -1.100549
    129          1           0       17.289242    6.304338   -0.845089
    130          1           0       -4.751111   -7.868764    0.365544
    131          1           0       -6.470870   -6.997901    0.610431
    132          1           0       -4.936054   -6.771062    1.875868
    133          8           0       -7.721081    6.766576   -0.405888
    134          1           0       -9.235392    6.227264   -1.739248
 ---------------------------------------------------------------------

 SCF Done:  E(RCAM-B3LYP) =  -3043.42106931     A.U. after   16 cycles

 Excitation energies and oscillator strengths:

 Excited State   1:      Singlet-A      1.9278 eV  643.14 nm  f=0.1939  <S**2>=0.000
     243 -> 246       -0.25883
     244 -> 245        0.65067
 This state for optimization and/or second-order correction.
 Total Energy, E(TD-HF/TD-KS) =  -3043.35022441
 Copying the excited state density for this state as the 1-particle RhoCI density.

 The electronic state is 1-A.
 Alpha  occ. eigenvalues --  -46.80882 -19.24478 -19.22259 -19.17867 -19.17188
 Alpha  occ. eigenvalues --  -19.16955 -19.16873 -19.16620 -14.38863 -14.37248
 Alpha  occ. eigenvalues --  -14.37004 -14.36484 -10.35518 -10.34924 -10.31496
 Alpha  occ. eigenvalues --  -10.30992 -10.30568 -10.30481 -10.27818 -10.27663
 Alpha  occ. eigenvalues --  -10.27412 -10.26698 -10.26592 -10.26461 -10.26376
 Alpha  occ. eigenvalues --  -10.26142 -10.25986 -10.25541 -10.25434 -10.24897
 Alpha  occ. eigenvalues --  -10.24878 -10.24524 -10.24405 -10.24310 -10.23900
 Alpha  occ. eigenvalues --  -10.23876 -10.23709 -10.23677 -10.23531 -10.23257
 Alpha  occ. eigenvalues --  -10.23153 -10.22655 -10.22564 -10.22521 -10.22418
 Alpha  occ. eigenvalues --  -10.22395 -10.22389 -10.22266 -10.22104 -10.22037
 Alpha  occ. eigenvalues --  -10.21692 -10.21665 -10.21554 -10.21342 -10.21025
 Alpha  occ. eigenvalues --  -10.21000 -10.20862 -10.20764 -10.20749 -10.20704
 Alpha  occ. eigenvalues --  -10.20487 -10.20079 -10.20051 -10.19953 -10.19044
 Alpha  occ. eigenvalues --  -10.18782  -3.09622  -1.84553  -1.84082  -1.84058
 Alpha  occ. eigenvalues --   -1.15310  -1.15012  -1.07346  -1.07155  -1.04496
 Alpha  occ. eigenvalues --   -1.04164  -1.02798  -1.00889  -1.00502  -0.99181
 Alpha  occ. eigenvalues --   -0.98697  -0.89157  -0.87826  -0.86592  -0.86531
 Alpha  occ. eigenvalues --   -0.85959  -0.85117  -0.84969  -0.84496  -0.83926
 Alpha  occ. eigenvalues --   -0.83288  -0.83012  -0.81614  -0.80992  -0.79839
 Alpha  occ. eigenvalues --   -0.79321  -0.78591  -0.77892  -0.77290  -0.76684
 Alpha  occ. eigenvalues --   -0.76093  -0.75094  -0.74167  -0.72989  -0.72290
 Alpha  occ. eigenvalues --   -0.71942  -0.71182  -0.70272  -0.69960  -0.69764
 Alpha  occ. eigenvalues --   -0.69387  -0.68998  -0.68096  -0.67367  -0.67041
 Alpha  occ. eigenvalues --   -0.66158  -0.65044  -0.64002  -0.62670  -0.61992
 Alpha  occ. eigenvalues --   -0.61376  -0.60758  -0.60717  -0.59682  -0.58914
 Alpha  occ. eigenvalues --   -0.58641  -0.58333  -0.58069  -0.57397  -0.57136
 Alpha  occ. eigenvalues --   -0.56608  -0.56244  -0.55755  -0.55410  -0.55028
 Alpha  occ. eigenvalues --   -0.53710  -0.53328  -0.53171  -0.52352  -0.52262
 Alpha  occ. eigenvalues --   -0.52211  -0.52052  -0.51856  -0.51213  -0.51149
 Alpha  occ. eigenvalues --   -0.51002  -0.50362  -0.49956  -0.49812  -0.49378
 Alpha  occ. eigenvalues --   -0.49160  -0.48664  -0.48394  -0.48188  -0.48047
 Alpha  occ. eigenvalues --   -0.47849  -0.47668  -0.47349  -0.47302  -0.46907
 Alpha  occ. eigenvalues --   -0.46679  -0.46605  -0.46398  -0.46004  -0.45843
 Alpha  occ. eigenvalues --   -0.45639  -0.45230  -0.45058  -0.44920  -0.44755
 Alpha  occ. eigenvalues --   -0.44538  -0.44454  -0.44260  -0.43909  -0.43628
 Alpha  occ. eigenvalues --   -0.43589  -0.43448  -0.43345  -0.43322  -0.43104
 Alpha  occ. eigenvalues --   -0.42873  -0.42388  -0.42305  -0.42226  -0.41733
 Alpha  occ. eigenvalues --   -0.41659  -0.41562  -0.41256  -0.40837  -0.40751
 Alpha  occ. eigenvalues --   -0.40550  -0.40525  -0.40144  -0.40041  -0.39989
 Alpha  occ. eigenvalues --   -0.39700  -0.39623  -0.39366  -0.39220  -0.39010
 Alpha  occ. eigenvalues --   -0.38689  -0.38556  -0.38255  -0.38204  -0.38055
 Alpha  occ. eigenvalues --   -0.37931  -0.37746  -0.37458  -0.37177  -0.37006
 Alpha  occ. eigenvalues --   -0.36924  -0.36739  -0.36203  -0.36075  -0.35811
 Alpha  occ. eigenvalues --   -0.35388  -0.35103  -0.35081  -0.34692  -0.34513
 Alpha  occ. eigenvalues --   -0.34278  -0.33960  -0.33801  -0.33669  -0.33356
 Alpha  occ. eigenvalues --   -0.33091  -0.32190  -0.32103  -0.31707  -0.31252
 Alpha  occ. eigenvalues --   -0.31133  -0.31114  -0.30529  -0.30227  -0.29218
 Alpha  occ. eigenvalues --   -0.28731  -0.28218  -0.28044  -0.27659  -0.27439
 Alpha  occ. eigenvalues --   -0.27389  -0.27231  -0.22649  -0.21339
 Alpha virt. eigenvalues --   -0.08818  -0.06459  -0.02353  -0.01331   0.00235
 Alpha virt. eigenvalues --    0.02965   0.03289   0.04023   0.04240   0.04315
 Alpha virt. eigenvalues --    0.05228   0.05288   0.07618   0.08673   0.09082

 Mulliken charges:
               1
     1  Mg   0.825856
     2  C    0.114240
     3  C   -0.147713
     4  C   -0.196293
     5  C   -0.181566
     6  N   -0.623678
     7  C    0.339093
     8  C   -0.212702
     9  C   -0.107365
    10  C    0.261976
    11  C   -0.315238
    12  C   -0.111527
    13  C   -0.267403
    14  C    0.602602
    15  O   -0.436348
    16  O   -0.436399
    17  N   -0.678939
    18  C    0.301147
    19  C    0.031191
    20  C    0.001160
    21  C    0.313489
    22  C   -0.398464
    23  C    0.216164
    24  O   -0.444738
    25  N   -0.683162
    26  C    0.307865
    27  C   -0.036568
    28  C    0.045674
    29  C    0.297419
    30  C    0.229692
    31  C   -0.214041
    32  C   -0.328271
    33  N   -0.714328
    34  C    0.247463
    35  C    0.086408
    36  C    0.055902
    37  C    0.296884
    38  C   -0.438334
    39  C    0.350663
    40  O   -0.490939
    41  C   -0.358054
    42  C    0.628586
    43  O   -0.489823
    44  O   -0.417274
    45  C   -0.087721
    46  C   -0.009655
    47  C   -0.136736
    48  C    0.160935
    49  C   -0.384060
    50  C   -0.249590
    51  C   -0.166702
    52  C   -0.174468
    53  C   -0.081906
    54  C   -0.296675
    55  C   -0.172541
    56  C   -0.158961
    57  C   -0.171331
    58  C   -0.031940
    59  C   -0.305806
    60  C   -0.146680
    61  C   -0.157664
    62  C   -0.167152
    63  C   -0.025116
    64  C   -0.323436
    65  C   -0.299832
    66  H    0.060811
    67  H    0.153917
    68  H    0.093527
    69  H    0.132747
    70  H    0.108334
    71  H    0.113158
    72  H    0.111208
    73  H    0.119679
    74  H    0.112025
    75  H    0.110374
    76  H    0.111651
    77  H    0.124920
    78  H    0.127167
    79  H    0.150215
    80  H    0.127721
    81  H    0.102637
    82  H    0.113919
    83  H    0.118082
    84  H    0.113028
    85  H    0.096233
    86  H    0.125404
    87  H    0.124369
    88  H    0.138207
    89  H    0.122090
    90  H    0.162109
    91  H    0.087803
    92  H    0.108375
    93  H    0.084836
    94  H    0.138413
    95  H    0.112609
    96  H    0.130056
    97  H    0.117517
    98  H    0.075061
    99  H    0.115409
   100  H    0.095457
   101  H    0.086942
   102  H    0.063969
   103  H    0.086944
   104  H    0.084181
   105  H    0.111111
   106  H    0.106050
   107  H    0.074166
   108  H    0.090051
   109  H    0.102780
   110  H    0.069091
   111  H    0.089328
   112  H    0.063429
   113  H    0.093289
   114  H    0.113259
   115  H    0.033139
   116  H    0.110147
   117  H    0.081353
   118  H    0.061581
   119  H    0.113880
   120  H    0.077818
   121  H    0.056152
   122  H    0.067030
   123  H    0.074967
   124  H    0.115930
   125  H    0.101975
   126  H    0.095411
   127  H    0.094162
   128  H    0.099746
   129  H    0.085372
   130  H    0.139625
   131  H    0.125044
   132  H    0.121517
   133  O   -0.425908
   134  H    0.060127
 Sum of Mulliken charges =   0.00000

 Dipole moment (field-independent basis, Debye):
    X=              1.7429    Y=             -5.8547    Z=             -1.8561  Tot=              6.3844
 Quadrupole moment (field-independent basis, Debye-Ang):
   XX=           -376.2432   YY=           -436.6794   ZZ=           -394.5882
   XY=              6.4188   XZ=             22.9197   YZ=            -39.0916

 Normal termination of Gaussian 09 at Fri Oct  4 21:38:20 2019.
