 Gaussian 09, Revision D.01,
 Gaussian 09:  ES64L-G09RevD.01 24-Apr-2013

 ----------------------------------------------------------------------
 # td=(NStates=1) iop(3/107=0140000000,3/108=0140000000) iop(3/107=0140
 000000,3/108=0140000000) CAM-B3LYP/6-31G(d,p)
 ----------------------------------------------------------------------

 --
 TD
 --
 Symbolic Z-matrix:
 Charge =  0 Multiplicity = 1

                         Standard orientation:
 ---------------------------------------------------------------------
 Center     Atomic      Atomic             Coordinates (Angstroms)
 Number     Number       Type             X           Y           Z
 ---------------------------------------------------------------------
      1         12           0       -5.661706    1.231349    0.163921
      2          6           0       -5.117290   -2.224140   -0.251046
      3          6           0       -3.380653    1.115389    2.775038
      4          6           0       -6.152267    4.511629    0.741277
      5          6           0       -8.039317    1.197233   -2.468905
      6          7           0       -4.399307   -0.273039    1.022865
      7          6           0       -4.266504   -1.589736    0.734736
      8          6           0       -3.223121   -2.345560    1.467264
      9          6           0       -2.857055   -1.326104    2.591377
     10          6           0       -3.571656   -0.136164    2.189083
     11          6           0       -3.400171   -1.874149    3.970514
     12          6           0       -1.984527   -2.740378    0.598203
     13          6           0       -1.023121   -3.661357    1.443425
     14          6           0        0.248930   -3.982244    0.581246
     15          8           0        0.458853   -3.398053   -0.451623
     16          8           0        1.032087   -4.797333    1.155301
     17          7           0       -4.873870    2.580937    1.484550
     18          6           0       -3.973245    2.402404    2.491806
     19          6           0       -3.692686    3.597540    3.211512
     20          6           0       -4.335905    4.634778    2.574296
     21          6           0       -5.152199    3.927642    1.491672
     22          6           0       -2.657420    3.711006    4.257875
     23          6           0       -4.488389    5.992692    3.023423
     24          8           0       -3.990688    6.558947    3.941335
     25          7           0       -6.839445    2.653724   -0.788878
     26          6           0       -6.971696    3.983409   -0.370407
     27          6           0       -7.898266    4.667505   -1.255922
     28          6           0       -8.377401    3.739461   -2.006373
     29          6           0       -7.670966    2.508182   -1.744445
     30          6           0       -8.292139    6.012282   -0.983110
     31          6           0       -9.435096    3.885801   -3.089385
     32          6           0       -8.813812    3.980997   -4.430147
     33          7           0       -6.470770   -0.134110   -1.010045
     34          6           0       -7.394682    0.029312   -2.038509
     35          6           0       -7.503459   -1.251267   -2.739275
     36          6           0       -6.644174   -2.172496   -2.096570
     37          6           0       -6.044450   -1.331816   -1.092880
     38          6           0       -8.441059   -1.367353   -3.895728
     39          6           0       -6.242572   -3.525404   -2.148332
     40          8           0       -6.432850   -4.491717   -2.815405
     41          6           0       -5.108427   -3.606567   -0.945511
     42          6           0       -5.388429   -4.615622    0.071766
     43          8           0       -5.632596   -4.498184    1.211808
     44          8           0       -5.168785   -5.901868   -0.497057
     45          6           0       -5.450917   -6.987494    0.519739
     46          6           0        2.319202   -5.074720    0.623951
     47          6           0        3.335940   -4.038749    1.017599
     48          6           0        4.020479   -3.242556    0.255979
     49          6           0        3.800335   -3.153767   -1.256196
     50          6           0        5.153047   -2.406578    0.778781
     51          6           0        6.557954   -2.718683    0.029891
     52          6           0        7.670147   -1.840191    0.656268
     53          6           0        8.948388   -2.012158   -0.051690
     54          6           0        9.583315   -3.314630    0.198481
     55          6           0       10.004159   -0.897580    0.387780
     56          6           0       11.406777   -0.880074   -0.199968
     57          6           0       12.245903    0.328012    0.205009
     58          6           0       13.514936    0.485216   -0.537930
     59          6           0       14.510316   -0.745736   -0.278989
     60          6           0       14.214442    1.810737   -0.189165
     61          6           0       15.410535    2.130179   -0.935008
     62          6           0       15.934324    3.539663   -0.669492
     63          6           0       17.196738    3.856776   -1.490238
     64          6           0       16.918247    4.112396   -3.034766
     65          6           0       17.920579    5.216298   -0.900209
     66          1           0       -2.569299    1.295934    3.372590
     67          1           0       -6.247548    5.403671    0.840658
     68          1           0       -8.722898    1.104659   -3.163286
     69          1           0       -3.694255   -3.167208    1.877356
     70          1           0       -1.672893   -1.154677    2.637868
     71          1           0       -3.092807   -3.017395    4.141772
     72          1           0       -3.099483   -1.273977    4.817175
     73          1           0       -4.515202   -1.964634    3.893680
     74          1           0       -2.460755   -3.348254   -0.220585
     75          1           0       -1.452507   -1.875946    0.083765
     76          1           0       -0.773537   -3.164354    2.251606
     77          1           0       -1.710358   -4.520603    1.656604
     78          1           0       -1.781118    3.325255    4.036955
     79          1           0       -2.425210    4.684167    4.496099
     80          1           0       -3.026291    3.255533    5.277700
     81          1           0       -5.000794    6.632828    2.278906
     82          1           0       -9.924378    2.806773   -3.274068
     83          1           0      -10.166619    4.885558   -2.954033
     84          1           0       -9.432421    4.046027   -5.319012
     85          1           0       -8.283037    5.114565   -4.655002
     86          1           0       -7.981431    3.331652   -4.646043
     87          1           0       -8.176673   -0.763944   -4.697142
     88          1           0       -8.151933   -2.426494   -4.185803
     89          1           0       -9.601730   -1.114897   -3.439591
     90          1           0       -4.197849   -3.924679   -1.199269
     91          1           0        2.557363   -6.109732    0.727526
     92          1           0        2.116434   -5.067639   -0.434300
     93          1           0        3.611809   -3.889111    1.922211
     94          1           0        2.575638   -3.247051   -1.529506
     95          1           0        4.153936   -2.116609   -1.698759
     96          1           0        4.401808   -4.057208   -1.724866
     97          1           0        4.726397   -1.450234    0.694720
     98          1           0        5.322722   -2.566339    1.886791
     99          1           0        6.514227   -3.867320   -0.008852
    100          1           0        6.482726   -2.446723   -0.989430
    101          1           0        7.414034   -0.821673    0.648484
    102          1           0        7.719954   -2.080224    1.687094
    103          1           0        8.631572   -1.905126   -1.139253
    104          1           0        8.727017   -3.965980    0.157252
    105          1           0       10.582048   -3.442883   -0.268959
    106          1           0       10.110669   -3.289288    1.241514
    107          1           0        9.608611    0.071544    0.134933
    108          1           0       10.098712   -0.853748    1.547596
    109          1           0       11.838059   -1.924613   -0.193442
    110          1           0       11.107779   -0.781078   -1.279432
    111          1           0       11.387765    1.137621    0.255942
    112          1           0       12.454759    0.177875    1.298260
    113          1           0       13.226173    0.620358   -1.494059
    114          1           0       14.778496   -0.882770    0.741911
    115          1           0       13.957080   -1.549470   -0.691528
    116          1           0       15.243630   -0.838941   -0.884572
    117          1           0       13.451259    2.536978   -0.257872
    118          1           0       14.404262    1.649039    1.058128
    119          1           0       16.311906    1.463695   -0.814592
    120          1           0       15.038471    1.931781   -1.890855
    121          1           0       15.199061    4.250955   -0.712981
    122          1           0       16.273835    3.664823    0.398268
    123          1           0       17.934543    2.911058   -1.458634
    124          1           0       16.218188    5.114050   -3.066489
    125          1           0       17.887939    4.235163   -3.496718
    126          1           0       16.398733    3.295629   -3.573788
    127          1           0       18.055330    5.040801    0.098542
    128          1           0       18.773616    5.474554   -1.537634
    129          1           0       17.090396    6.049820   -0.917237
    130          1           0       -5.106742   -7.842888   -0.184765
    131          1           0       -6.498723   -7.066362    0.697043
    132          1           0       -4.468717   -6.803787    1.311027
    133          8           0       -7.833185    6.828647   -0.309071
    134          1           0       -9.119950    6.219597   -1.703220
 ---------------------------------------------------------------------

 SCF Done:  E(RCAM-B3LYP) =  -3043.36723689     A.U. after   16 cycles

 Excitation energies and oscillator strengths:

 Excited State   1:      Singlet-A      1.9367 eV  640.17 nm  f=0.1329  <S**2>=0.000
     243 -> 245        0.12096
     243 -> 246       -0.28446
     244 -> 245        0.62041
     244 -> 246        0.10331
 This state for optimization and/or second-order correction.
 Total Energy, E(TD-HF/TD-KS) =  -3043.29606338
 Copying the excited state density for this state as the 1-particle RhoCI density.

 The electronic state is 1-A.
 Alpha  occ. eigenvalues --  -46.82136 -19.23221 -19.20064 -19.18211 -19.17861
 Alpha  occ. eigenvalues --  -19.17383 -19.16629 -19.16476 -14.38914 -14.37534
 Alpha  occ. eigenvalues --  -14.37394 -14.37253 -10.34892 -10.33638 -10.32342
 Alpha  occ. eigenvalues --  -10.29824 -10.29297 -10.28658 -10.27819 -10.27524
 Alpha  occ. eigenvalues --  -10.27317 -10.27079 -10.26659 -10.26623 -10.26471
 Alpha  occ. eigenvalues --  -10.26400 -10.26339 -10.26075 -10.25807 -10.25108
 Alpha  occ. eigenvalues --  -10.24929 -10.24524 -10.24189 -10.23959 -10.23574
 Alpha  occ. eigenvalues --  -10.23545 -10.23432 -10.23306 -10.23290 -10.23258
 Alpha  occ. eigenvalues --  -10.23150 -10.23128 -10.23116 -10.22851 -10.22726
 Alpha  occ. eigenvalues --  -10.22594 -10.22544 -10.22342 -10.22069 -10.21718
 Alpha  occ. eigenvalues --  -10.21638 -10.21583 -10.21552 -10.21203 -10.21016
 Alpha  occ. eigenvalues --  -10.20983 -10.20808 -10.20748 -10.20661 -10.20545
 Alpha  occ. eigenvalues --  -10.20420 -10.20260 -10.20039 -10.19945 -10.19505
 Alpha  occ. eigenvalues --  -10.18524  -3.10734  -1.85671  -1.85206  -1.85150
 Alpha  occ. eigenvalues --   -1.16810  -1.12493  -1.10984  -1.09271  -1.07925
 Alpha  occ. eigenvalues --   -1.05647  -1.03042  -1.02590  -1.01803  -0.99789
 Alpha  occ. eigenvalues --   -0.98951  -0.87348  -0.87043  -0.86296  -0.86288
 Alpha  occ. eigenvalues --   -0.85613  -0.85447  -0.85174  -0.84508  -0.83561
 Alpha  occ. eigenvalues --   -0.83195  -0.82877  -0.81713  -0.80683  -0.80042
 Alpha  occ. eigenvalues --   -0.79782  -0.78640  -0.77504  -0.76993  -0.76448
 Alpha  occ. eigenvalues --   -0.75652  -0.75062  -0.73708  -0.72615  -0.72033
 Alpha  occ. eigenvalues --   -0.71285  -0.71062  -0.70709  -0.69976  -0.69811
 Alpha  occ. eigenvalues --   -0.69696  -0.69267  -0.68136  -0.67508  -0.66406
 Alpha  occ. eigenvalues --   -0.65639  -0.65177  -0.65018  -0.63644  -0.62495
 Alpha  occ. eigenvalues --   -0.61461  -0.61009  -0.60598  -0.60507  -0.59518
 Alpha  occ. eigenvalues --   -0.58621  -0.57593  -0.57417  -0.57410  -0.57140
 Alpha  occ. eigenvalues --   -0.56488  -0.56226  -0.55936  -0.55385  -0.55169
 Alpha  occ. eigenvalues --   -0.54415  -0.53675  -0.53074  -0.52705  -0.52256
 Alpha  occ. eigenvalues --   -0.52121  -0.52068  -0.51760  -0.51192  -0.50977
 Alpha  occ. eigenvalues --   -0.50587  -0.50033  -0.49936  -0.49588  -0.49128
 Alpha  occ. eigenvalues --   -0.49024  -0.48757  -0.48674  -0.48648  -0.48162
 Alpha  occ. eigenvalues --   -0.47741  -0.47619  -0.47486  -0.47387  -0.47239
 Alpha  occ. eigenvalues --   -0.47072  -0.46829  -0.46784  -0.46572  -0.46284
 Alpha  occ. eigenvalues --   -0.45733  -0.45687  -0.45500  -0.45312  -0.44879
 Alpha  occ. eigenvalues --   -0.44781  -0.44504  -0.44397  -0.44335  -0.44274
 Alpha  occ. eigenvalues --   -0.43983  -0.43843  -0.43519  -0.43402  -0.43381
 Alpha  occ. eigenvalues --   -0.42932  -0.42766  -0.42574  -0.42411  -0.42280
 Alpha  occ. eigenvalues --   -0.42224  -0.42040  -0.42001  -0.41723  -0.41647
 Alpha  occ. eigenvalues --   -0.41596  -0.41250  -0.40573  -0.40285  -0.40147
 Alpha  occ. eigenvalues --   -0.39852  -0.39839  -0.39487  -0.39281  -0.39119
 Alpha  occ. eigenvalues --   -0.38997  -0.38723  -0.38546  -0.38439  -0.38214
 Alpha  occ. eigenvalues --   -0.38062  -0.37820  -0.37484  -0.37202  -0.37172
 Alpha  occ. eigenvalues --   -0.36670  -0.36284  -0.36059  -0.35944  -0.35465
 Alpha  occ. eigenvalues --   -0.35215  -0.35046  -0.34930  -0.34652  -0.34352
 Alpha  occ. eigenvalues --   -0.34067  -0.33888  -0.33795  -0.33190  -0.33079
 Alpha  occ. eigenvalues --   -0.32866  -0.32540  -0.32522  -0.32203  -0.32153
 Alpha  occ. eigenvalues --   -0.31462  -0.31043  -0.30730  -0.30459  -0.30090
 Alpha  occ. eigenvalues --   -0.29588  -0.29087  -0.28292  -0.28049  -0.28006
 Alpha  occ. eigenvalues --   -0.27953  -0.27269  -0.22312  -0.21452
 Alpha virt. eigenvalues --   -0.08548  -0.06718  -0.01324  -0.00384   0.00619
 Alpha virt. eigenvalues --    0.03160   0.03880   0.04250   0.04375   0.04871
 Alpha virt. eigenvalues --    0.05320   0.05812   0.07454   0.07730   0.08206

 Mulliken charges:
               1
     1  Mg   0.838578
     2  C    0.027721
     3  C   -0.190291
     4  C   -0.073660
     5  C   -0.112479
     6  N   -0.608390
     7  C    0.312842
     8  C   -0.144491
     9  C   -0.161125
    10  C    0.345984
    11  C   -0.311158
    12  C   -0.180916
    13  C   -0.260691
    14  C    0.584756
    15  O   -0.467737
    16  O   -0.410975
    17  N   -0.685013
    18  C    0.294096
    19  C    0.051314
    20  C   -0.021817
    21  C    0.279993
    22  C   -0.382258
    23  C    0.240929
    24  O   -0.402600
    25  N   -0.656409
    26  C    0.191275
    27  C    0.044211
    28  C    0.010605
    29  C    0.300734
    30  C    0.267938
    31  C   -0.239363
    32  C   -0.300564
    33  N   -0.728322
    34  C    0.279877
    35  C   -0.009253
    36  C    0.064426
    37  C    0.306893
    38  C   -0.371742
    39  C    0.356095
    40  O   -0.421507
    41  C   -0.332964
    42  C    0.610607
    43  O   -0.438816
    44  O   -0.503920
    45  C   -0.076589
    46  C   -0.015571
    47  C   -0.090549
    48  C    0.125081
    49  C   -0.373646
    50  C   -0.234633
    51  C   -0.201643
    52  C   -0.162048
    53  C   -0.044984
    54  C   -0.295388
    55  C   -0.193395
    56  C   -0.181101
    57  C   -0.161383
    58  C   -0.070899
    59  C   -0.311541
    60  C   -0.149136
    61  C   -0.156619
    62  C   -0.160059
    63  C   -0.061159
    64  C   -0.294106
    65  C   -0.313554
    66  H    0.068831
    67  H    0.041665
    68  H    0.071725
    69  H    0.134176
    70  H    0.100459
    71  H    0.094023
    72  H    0.121308
    73  H    0.128437
    74  H    0.100882
    75  H    0.126181
    76  H    0.138719
    77  H    0.124013
    78  H    0.133520
    79  H    0.151109
    80  H    0.110181
    81  H    0.060507
    82  H    0.096298
    83  H    0.106192
    84  H    0.117615
    85  H    0.057719
    86  H    0.120380
    87  H    0.146487
    88  H    0.140483
    89  H    0.112193
    90  H    0.157734
    91  H    0.127938
    92  H    0.121619
    93  H    0.056005
    94  H    0.135964
    95  H    0.096667
    96  H    0.105144
    97  H    0.117108
    98  H    0.087507
    99  H    0.102366
   100  H    0.111020
   101  H    0.104270
   102  H    0.098144
   103  H    0.071832
   104  H    0.097329
   105  H    0.105885
   106  H    0.083224
   107  H    0.082719
   108  H    0.070180
   109  H    0.084778
   110  H    0.082843
   111  H    0.076576
   112  H    0.085843
   113  H    0.087974
   114  H    0.111618
   115  H    0.100654
   116  H    0.110848
   117  H    0.091288
   118  H    0.030466
   119  H    0.089951
   120  H    0.095540
   121  H    0.094938
   122  H    0.082651
   123  H    0.061035
   124  H    0.075071
   125  H    0.105115
   126  H    0.099408
   127  H    0.115491
   128  H    0.107014
   129  H    0.085576
   130  H    0.122516
   131  H    0.150536
   132  H    0.109076
   133  O   -0.381740
   134  H    0.019689
 Sum of Mulliken charges =   0.00000

 Dipole moment (field-independent basis, Debye):
    X=              2.5682    Y=             -4.9602    Z=             -1.4386  Tot=              5.7680
 Quadrupole moment (field-independent basis, Debye-Ang):
   XX=           -376.3318   YY=           -443.6794   ZZ=           -399.1627
   XY=              7.3912   XZ=             19.3509   YZ=            -33.9226

 Normal termination of Gaussian 09 at Thu Oct  3 22:20:30 2019.
