 Gaussian 09, Revision D.01,
 Gaussian 09:  ES64L-G09RevD.01 24-Apr-2013

 ----------------------------------------------------------------------
 # td=(NStates=1) iop(3/107=0140000000,3/108=0140000000) iop(3/107=0140
 000000,3/108=0140000000) CAM-B3LYP/6-31G(d,p)
 ----------------------------------------------------------------------

 --
 TD
 --
 Symbolic Z-matrix:
 Charge =  0 Multiplicity = 1

                         Standard orientation:
 ---------------------------------------------------------------------
 Center     Atomic      Atomic             Coordinates (Angstroms)
 Number     Number       Type             X           Y           Z
 ---------------------------------------------------------------------
      1         12           0       -5.658294    1.166151    0.298544
      2          6           0       -4.941957   -2.215825   -0.423740
      3          6           0       -3.368033    1.313653    2.642654
      4          6           0       -6.265082    4.612627    0.578882
      5          6           0       -8.061771    1.075746   -2.330514
      6          7           0       -4.254833   -0.221443    0.943143
      7          6           0       -4.214832   -1.633514    0.623313
      8          6           0       -3.179622   -2.272168    1.553162
      9          6           0       -2.933034   -1.253252    2.651051
     10          6           0       -3.504896   -0.011772    2.088560
     11          6           0       -3.417906   -1.680221    3.999854
     12          6           0       -1.970093   -2.645358    0.674215
     13          6           0       -0.971798   -3.503332    1.517051
     14          6           0        0.275603   -3.833462    0.662303
     15          8           0        0.437880   -3.477223   -0.517887
     16          8           0        1.129256   -4.642321    1.386138
     17          7           0       -4.956364    2.648019    1.449742
     18          6           0       -4.027567    2.487357    2.397725
     19          6           0       -3.685760    3.772587    3.089622
     20          6           0       -4.569153    4.676540    2.530834
     21          6           0       -5.313558    4.062932    1.439404
     22          6           0       -2.871959    3.913864    4.357744
     23          6           0       -4.619185    6.162238    2.764351
     24          8           0       -3.977028    6.644032    3.651964
     25          7           0       -6.907382    2.568636   -0.751272
     26          6           0       -6.936026    3.969368   -0.492398
     27          6           0       -7.966008    4.566422   -1.238711
     28          6           0       -8.522686    3.555873   -2.028757
     29          6           0       -7.720952    2.335823   -1.698116
     30          6           0       -8.450904    5.906807   -1.085356
     31          6           0       -9.573949    3.634254   -3.119747
     32          6           0       -8.990715    3.907896   -4.536193
     33          7           0       -6.237375   -0.157579   -1.146712
     34          6           0       -7.239506   -0.088648   -2.111720
     35          6           0       -7.476030   -1.321988   -2.696266
     36          6           0       -6.724124   -2.255221   -2.050855
     37          6           0       -5.906502   -1.433956   -1.155107
     38          6           0       -8.521133   -1.713375   -3.796091
     39          6           0       -6.255866   -3.604867   -2.035012
     40          8           0       -6.597264   -4.676066   -2.582223
     41          6           0       -5.074598   -3.661543   -0.964948
     42          6           0       -5.289342   -4.673028    0.104255
     43          8           0       -5.667602   -4.426801    1.267060
     44          8           0       -5.012147   -5.884878   -0.336346
     45          6           0       -5.339492   -7.016911    0.699517
     46          6           0        2.307014   -4.986139    0.696041
     47          6           0        3.464520   -4.119772    1.076561
     48          6           0        3.988065   -3.165042    0.309791
     49          6           0        3.815431   -2.984307   -1.261912
     50          6           0        5.158640   -2.347493    0.701326
     51          6           0        6.449896   -2.588192    0.046687
     52          6           0        7.601095   -1.701385    0.558361
     53          6           0        8.936921   -1.973739   -0.029359
     54          6           0        9.377399   -3.466589    0.207747
     55          6           0       10.006402   -0.932506    0.528724
     56          6           0       11.377728   -0.956255   -0.253403
     57          6           0       12.173805    0.298227    0.143434
     58          6           0       13.571387    0.394726   -0.616335
     59          6           0       14.489971   -0.816520   -0.315333
     60          6           0       14.254496    1.787411   -0.280174
     61          6           0       15.519981    2.063544   -1.029116
     62          6           0       16.127006    3.502801   -0.699854
     63          6           0       17.406624    3.809449   -1.366695
     64          6           0       17.219127    4.026908   -2.860479
     65          6           0       18.114430    5.116963   -0.872068
     66          1           0       -2.792594    1.291859    3.527963
     67          1           0       -6.255362    5.671934    0.717223
     68          1           0       -8.803348    1.137457   -3.018106
     69          1           0       -3.600581   -3.215274    2.026360
     70          1           0       -1.951207   -0.951242    2.823849
     71          1           0       -2.934701   -2.756682    4.336218
     72          1           0       -3.448569   -0.828359    4.659304
     73          1           0       -4.573753   -1.681693    3.828531
     74          1           0       -2.160552   -3.280442   -0.206267
     75          1           0       -1.626600   -1.580502    0.143017
     76          1           0       -0.491222   -2.907597    2.232447
     77          1           0       -1.425790   -4.264897    1.952674
     78          1           0       -1.742078    3.737594    4.088323
     79          1           0       -2.995967    4.984041    4.875251
     80          1           0       -3.373486    3.123112    5.012226
     81          1           0       -5.413492    6.730372    2.213236
     82          1           0      -10.249546    2.606665   -3.067003
     83          1           0      -10.174374    4.459909   -2.962086
     84          1           0       -9.819110    4.132393   -5.265304
     85          1           0       -8.527067    4.866069   -4.632605
     86          1           0       -8.292185    3.043719   -4.902290
     87          1           0       -8.615886   -1.357072   -4.891681
     88          1           0       -8.282525   -2.844034   -4.229958
     89          1           0       -9.597217   -1.612268   -3.572211
     90          1           0       -3.983610   -3.997715   -1.460616
     91          1           0        2.512808   -5.966584    0.977484
     92          1           0        2.173679   -4.998657   -0.296018
     93          1           0        3.923180   -4.018483    2.054671
     94          1           0        2.764787   -3.203557   -1.670872
     95          1           0        4.192988   -1.771519   -1.514105
     96          1           0        4.526717   -3.640404   -1.680338
     97          1           0        4.891174   -1.082059    0.647691
     98          1           0        5.248800   -2.391527    1.770602
     99          1           0        6.956493   -3.535792    0.140221
    100          1           0        6.248271   -2.577676   -1.010641
    101          1           0        7.426126   -0.546573    0.513475
    102          1           0        7.644344   -1.888290    1.557044
    103          1           0        8.914788   -1.845254   -1.090100
    104          1           0        8.707890   -3.967752   -0.211894
    105          1           0       10.291926   -3.729516   -0.389448
    106          1           0        9.331321   -3.532504    1.355883
    107          1           0        9.535556   -0.064384    0.565703
    108          1           0       10.069850   -0.992732    1.503151
    109          1           0       11.992001   -1.902229   -0.156118
    110          1           0       11.339120   -0.811295   -1.325073
    111          1           0       11.786876    1.313801   -0.087313
    112          1           0       12.285536    0.504039    1.266308
    113          1           0       13.269099    0.267839   -1.670421
    114          1           0       14.538900   -0.789297    0.645687
    115          1           0       13.917645   -1.589509   -0.818821
    116          1           0       15.549526   -0.751392   -0.725613
    117          1           0       13.532621    2.692675   -0.581896
    118          1           0       14.494684    1.915284    0.769083
    119          1           0       16.319141    1.324393   -0.722708
    120          1           0       15.440975    1.995088   -2.224432
    121          1           0       15.442487    4.233395   -1.027650
    122          1           0       16.306109    3.725195    0.387519
    123          1           0       18.054595    2.982584   -1.087780
    124          1           0       16.621150    4.944210   -2.980178
    125          1           0       18.182029    4.410858   -3.178122
    126          1           0       16.628414    3.255280   -3.403894
    127          1           0       18.065003    5.042451    0.226716
    128          1           0       19.282078    4.969047   -1.106087
    129          1           0       17.508758    6.023079   -1.263442
    130          1           0       -5.201093   -8.051458    0.195920
    131          1           0       -6.494034   -6.961266    0.848478
    132          1           0       -4.715431   -6.818786    1.527474
    133          8           0       -7.938034    6.786617   -0.378415
    134          1           0       -9.374322    6.291982   -1.697248
 ---------------------------------------------------------------------

 SCF Done:  E(RCAM-B3LYP) =  -3043.47119900     A.U. after   16 cycles

 Excitation energies and oscillator strengths:

 Excited State   1:      Singlet-A      1.9894 eV  623.23 nm  f=0.1957  <S**2>=0.000
     243 -> 246        0.24076
     244 -> 245        0.65266
 This state for optimization and/or second-order correction.
 Total Energy, E(TD-HF/TD-KS) =  -3043.39809097
 Copying the excited state density for this state as the 1-particle RhoCI density.

 The electronic state is 1-A.
 Alpha  occ. eigenvalues --  -46.81708 -19.22986 -19.22835 -19.18076 -19.17582
 Alpha  occ. eigenvalues --  -19.16767 -19.16747 -19.16093 -14.38999 -14.37195
 Alpha  occ. eigenvalues --  -14.36933 -14.36520 -10.35975 -10.34598 -10.31739
 Alpha  occ. eigenvalues --  -10.30721 -10.30680 -10.29507 -10.28321 -10.27987
 Alpha  occ. eigenvalues --  -10.26675 -10.26448 -10.26405 -10.26309 -10.26296
 Alpha  occ. eigenvalues --  -10.26075 -10.26037 -10.25838 -10.25318 -10.24886
 Alpha  occ. eigenvalues --  -10.24758 -10.24616 -10.24581 -10.24439 -10.24317
 Alpha  occ. eigenvalues --  -10.24314 -10.24197 -10.24153 -10.24128 -10.23452
 Alpha  occ. eigenvalues --  -10.23279 -10.23190 -10.23177 -10.23052 -10.22898
 Alpha  occ. eigenvalues --  -10.22696 -10.22632 -10.22480 -10.22447 -10.22212
 Alpha  occ. eigenvalues --  -10.21914 -10.21760 -10.21736 -10.21704 -10.21471
 Alpha  occ. eigenvalues --  -10.21203 -10.21062 -10.20871 -10.20621 -10.20455
 Alpha  occ. eigenvalues --  -10.20391 -10.19695 -10.19577 -10.19523 -10.18883
 Alpha  occ. eigenvalues --  -10.18794  -3.10256  -1.85184  -1.84714  -1.84681
 Alpha  occ. eigenvalues --   -1.13177  -1.12310  -1.08358  -1.05493  -1.04849
 Alpha  occ. eigenvalues --   -1.04623  -1.02308  -1.01520  -1.00494  -0.98702
 Alpha  occ. eigenvalues --   -0.97674  -0.87611  -0.86759  -0.86027  -0.84990
 Alpha  occ. eigenvalues --   -0.84862  -0.84651  -0.84589  -0.83834  -0.83410
 Alpha  occ. eigenvalues --   -0.83200  -0.82734  -0.82121  -0.80541  -0.79499
 Alpha  occ. eigenvalues --   -0.79165  -0.78432  -0.77156  -0.76860  -0.76354
 Alpha  occ. eigenvalues --   -0.75279  -0.74122  -0.73853  -0.72566  -0.72010
 Alpha  occ. eigenvalues --   -0.71513  -0.70556  -0.70443  -0.69912  -0.69639
 Alpha  occ. eigenvalues --   -0.69499  -0.69034  -0.67834  -0.66698  -0.66031
 Alpha  occ. eigenvalues --   -0.65882  -0.65301  -0.64460  -0.63445  -0.62207
 Alpha  occ. eigenvalues --   -0.61704  -0.60740  -0.60508  -0.60354  -0.59651
 Alpha  occ. eigenvalues --   -0.58317  -0.58013  -0.57795  -0.57347  -0.57107
 Alpha  occ. eigenvalues --   -0.56317  -0.56022  -0.55657  -0.55142  -0.54237
 Alpha  occ. eigenvalues --   -0.53753  -0.53008  -0.52892  -0.52535  -0.51805
 Alpha  occ. eigenvalues --   -0.51702  -0.51627  -0.51015  -0.50699  -0.50133
 Alpha  occ. eigenvalues --   -0.49929  -0.49739  -0.49672  -0.49134  -0.48997
 Alpha  occ. eigenvalues --   -0.48739  -0.48230  -0.48133  -0.47833  -0.47558
 Alpha  occ. eigenvalues --   -0.47468  -0.47257  -0.47217  -0.47124  -0.46809
 Alpha  occ. eigenvalues --   -0.46692  -0.46569  -0.46235  -0.46012  -0.45874
 Alpha  occ. eigenvalues --   -0.45650  -0.45407  -0.45276  -0.44951  -0.44581
 Alpha  occ. eigenvalues --   -0.44291  -0.44134  -0.43777  -0.43625  -0.43302
 Alpha  occ. eigenvalues --   -0.43277  -0.43253  -0.42959  -0.42831  -0.42669
 Alpha  occ. eigenvalues --   -0.42633  -0.42460  -0.42251  -0.41924  -0.41654
 Alpha  occ. eigenvalues --   -0.41567  -0.41436  -0.41336  -0.41098  -0.40956
 Alpha  occ. eigenvalues --   -0.40651  -0.40494  -0.40362  -0.39978  -0.39816
 Alpha  occ. eigenvalues --   -0.39615  -0.39370  -0.39271  -0.39177  -0.38887
 Alpha  occ. eigenvalues --   -0.38745  -0.38552  -0.38492  -0.38326  -0.38155
 Alpha  occ. eigenvalues --   -0.37869  -0.37764  -0.37248  -0.37016  -0.36827
 Alpha  occ. eigenvalues --   -0.36757  -0.36555  -0.36492  -0.36121  -0.36033
 Alpha  occ. eigenvalues --   -0.35678  -0.34858  -0.34758  -0.34683  -0.34647
 Alpha  occ. eigenvalues --   -0.34100  -0.33966  -0.33560  -0.33461  -0.33154
 Alpha  occ. eigenvalues --   -0.33051  -0.32738  -0.32220  -0.31976  -0.31808
 Alpha  occ. eigenvalues --   -0.31271  -0.31170  -0.30266  -0.30083  -0.29748
 Alpha  occ. eigenvalues --   -0.29152  -0.28533  -0.27994  -0.27976  -0.27675
 Alpha  occ. eigenvalues --   -0.27580  -0.27379  -0.22954  -0.21295
 Alpha virt. eigenvalues --   -0.08498  -0.06348  -0.02193  -0.01038   0.00169
 Alpha virt. eigenvalues --    0.02285   0.02706   0.03330   0.03892   0.04272
 Alpha virt. eigenvalues --    0.04964   0.05909   0.07907   0.08338   0.09119

 Mulliken charges:
               1
     1  Mg   0.836623
     2  C    0.102287
     3  C   -0.196596
     4  C   -0.154409
     5  C   -0.119293
     6  N   -0.636878
     7  C    0.266893
     8  C   -0.163833
     9  C   -0.119370
    10  C    0.328555
    11  C   -0.301777
    12  C   -0.166075
    13  C   -0.251520
    14  C    0.589921
    15  O   -0.470461
    16  O   -0.458948
    17  N   -0.726372
    18  C    0.357062
    19  C    0.042584
    20  C   -0.048249
    21  C    0.269539
    22  C   -0.374784
    23  C    0.253401
    24  O   -0.398105
    25  N   -0.657186
    26  C    0.243221
    27  C    0.027988
    28  C   -0.001157
    29  C    0.319062
    30  C    0.219420
    31  C   -0.234601
    32  C   -0.311678
    33  N   -0.703290
    34  C    0.255392
    35  C    0.037736
    36  C    0.077999
    37  C    0.258319
    38  C   -0.404344
    39  C    0.357613
    40  O   -0.476045
    41  C   -0.321607
    42  C    0.637775
    43  O   -0.509921
    44  O   -0.448550
    45  C   -0.094565
    46  C    0.020204
    47  C   -0.136512
    48  C    0.141428
    49  C   -0.373348
    50  C   -0.221482
    51  C   -0.164296
    52  C   -0.175244
    53  C   -0.083058
    54  C   -0.300719
    55  C   -0.161229
    56  C   -0.186260
    57  C   -0.181372
    58  C   -0.083888
    59  C   -0.293218
    60  C   -0.163540
    61  C   -0.169935
    62  C   -0.159241
    63  C   -0.052773
    64  C   -0.304136
    65  C   -0.313972
    66  H    0.066267
    67  H    0.124163
    68  H    0.085753
    69  H    0.123548
    70  H    0.121051
    71  H    0.108158
    72  H    0.117573
    73  H    0.110866
    74  H    0.122223
    75  H    0.102614
    76  H    0.145497
    77  H    0.140355
    78  H    0.119391
    79  H    0.157629
    80  H    0.122395
    81  H    0.090911
    82  H    0.089961
    83  H    0.117556
    84  H    0.105087
    85  H    0.125781
    86  H    0.107115
    87  H    0.118348
    88  H    0.123810
    89  H    0.132538
    90  H    0.143879
    91  H    0.111683
    92  H    0.130634
    93  H    0.076776
    94  H    0.134342
    95  H    0.077688
    96  H    0.137175
    97  H    0.059593
    98  H    0.086195
    99  H    0.100436
   100  H    0.096839
   101  H    0.070897
   102  H    0.099016
   103  H    0.083844
   104  H    0.117355
   105  H    0.093373
   106  H    0.091068
   107  H    0.092181
   108  H    0.094397
   109  H    0.100615
   110  H    0.098793
   111  H    0.093728
   112  H    0.070403
   113  H    0.078990
   114  H    0.117572
   115  H    0.098441
   116  H    0.090988
   117  H    0.068708
   118  H    0.097622
   119  H    0.085011
   120  H    0.072892
   121  H    0.086926
   122  H    0.070645
   123  H    0.080944
   124  H    0.092972
   125  H    0.102430
   126  H    0.097121
   127  H    0.097185
   128  H    0.093872
   129  H    0.100084
   130  H    0.132095
   131  H    0.146859
   132  H    0.152632
   133  O   -0.431247
   134  H    0.058573
 Sum of Mulliken charges =   0.00000

 Dipole moment (field-independent basis, Debye):
    X=              1.0788    Y=             -4.6819    Z=              0.8534  Tot=              4.8798
 Quadrupole moment (field-independent basis, Debye-Ang):
   XX=           -383.4631   YY=           -427.2045   ZZ=           -391.8751
   XY=              2.7603   XZ=             19.3247   YZ=            -31.4859

 Normal termination of Gaussian 09 at Sat Oct  5 11:35:07 2019.
