 Gaussian 09, Revision D.01,
 Gaussian 09:  ES64L-G09RevD.01 24-Apr-2013

 ----------------------------------------------------------------------
 # td=(NStates=1) iop(3/107=0140000000,3/108=0140000000) iop(3/107=0140
 000000,3/108=0140000000) CAM-B3LYP/6-31G(d,p)
 ----------------------------------------------------------------------

 --
 TD
 --
 Symbolic Z-matrix:
 Charge =  0 Multiplicity = 1

                         Standard orientation:
 ---------------------------------------------------------------------
 Center     Atomic      Atomic             Coordinates (Angstroms)
 Number     Number       Type             X           Y           Z
 ---------------------------------------------------------------------
      1         12           0        5.736956    1.174636   -0.198588
      2          6           0        4.962664   -2.173718    0.293270
      3          6           0        3.289709    1.330223   -2.748148
      4          6           0        6.305292    4.563829   -0.561095
      5          6           0        7.874489    1.068376    2.429323
      6          7           0        4.291636   -0.245877   -1.059666
      7          6           0        4.187919   -1.559118   -0.664724
      8          6           0        3.170955   -2.231429   -1.507642
      9          6           0        2.875590   -1.192672   -2.604563
     10          6           0        3.526014    0.103811   -2.092746
     11          6           0        3.472146   -1.584400   -3.987466
     12          6           0        1.915591   -2.691294   -0.752383
     13          6           0        0.979733   -3.614125   -1.397853
     14          6           0       -0.292671   -3.990866   -0.688193
     15          8           0       -0.416672   -3.714638    0.469610
     16          8           0       -1.122211   -4.688189   -1.329135
     17          7           0        5.007783    2.660397   -1.472651
     18          6           0        4.058945    2.482316   -2.493825
     19          6           0        3.901342    3.799780   -3.156046
     20          6           0        4.596045    4.696096   -2.454057
     21          6           0        5.416246    3.967401   -1.534523
     22          6           0        2.883308    3.995423   -4.262093
     23          6           0        4.802866    6.095844   -2.874480
     24          8           0        4.094825    6.835899   -3.651286
     25          7           0        6.938446    2.617135    0.709770
     26          6           0        7.049624    3.958096    0.393018
     27          6           0        7.969063    4.633400    1.350640
     28          6           0        8.512426    3.575034    2.180000
     29          6           0        7.847719    2.437672    1.779063
     30          6           0        8.434954    6.071974    1.186428
     31          6           0        9.375006    3.607325    3.316305
     32          6           0        8.739777    3.581668    4.780242
     33          7           0        6.314220   -0.224833    0.988956
     34          6           0        7.286900   -0.136366    2.086232
     35          6           0        7.492643   -1.422052    2.660137
     36          6           0        6.605224   -2.256294    2.029699
     37          6           0        5.855083   -1.483227    0.999649
     38          6           0        8.555154   -1.747833    3.654071
     39          6           0        6.065566   -3.612368    2.070936
     40          8           0        6.323268   -4.587968    2.656069
     41          6           0        4.904221   -3.521253    0.827232
     42          6           0        5.341533   -4.632844   -0.190573
     43          8           0        5.727021   -4.499342   -1.358381
     44          8           0        4.990485   -5.868128    0.291606
     45          6           0        5.306577   -6.974514   -0.596413
     46          6           0       -2.337296   -5.167777   -0.694513
     47          6           0       -3.370257   -4.094497   -0.925572
     48          6           0       -3.981680   -3.157175   -0.139176
     49          6           0       -3.786756   -3.271666    1.431153
     50          6           0       -5.015110   -2.354589   -0.591806
     51          6           0       -6.607725   -2.701571   -0.097259
     52          6           0       -7.654012   -1.780492   -0.637110
     53          6           0       -9.089169   -1.997838    0.061696
     54          6           0       -9.576581   -3.360634   -0.335414
     55          6           0       -9.931183   -0.878248   -0.447317
     56          6           0      -11.367824   -0.915355    0.192661
     57          6           0      -12.172202    0.320324   -0.226000
     58          6           0      -13.470900    0.652182    0.541807
     59          6           0      -14.453845   -0.698228    0.317555
     60          6           0      -14.254686    1.819171    0.154598
     61          6           0      -15.444043    2.258829    1.051576
     62          6           0      -16.160441    3.524347    0.635147
     63          6           0      -17.383237    3.876354    1.461573
     64          6           0      -17.064105    4.119423    2.964235
     65          6           0      -17.994543    5.090158    0.802830
     66          1           0        2.556321    1.599589   -3.501861
     67          1           0        6.649821    5.742591   -0.766581
     68          1           0        8.768022    1.134917    3.153200
     69          1           0        3.750871   -3.184662   -2.064672
     70          1           0        1.709992   -0.966168   -2.737257
     71          1           0        2.725699   -2.463985   -4.406877
     72          1           0        3.402501   -0.854956   -4.608797
     73          1           0        4.602993   -2.035676   -3.826132
     74          1           0        2.525017   -3.255423    0.046992
     75          1           0        1.167489   -1.919938   -0.533267
     76          1           0        0.386250   -3.067454   -2.349391
     77          1           0        1.484193   -4.488544   -1.742359
     78          1           0        1.814950    3.810290   -3.951220
     79          1           0        2.803476    5.068483   -4.548758
     80          1           0        3.050665    3.502366   -5.160957
     81          1           0        5.745204    6.431355   -2.538058
     82          1           0        9.859229    2.679107    3.206430
     83          1           0        9.979101    4.482485    3.131884
     84          1           0        9.451825    3.718047    5.398379
     85          1           0        8.011711    4.488900    4.807967
     86          1           0        8.054356    2.746428    5.011530
     87          1           0        8.534564   -1.000165    4.630670
     88          1           0        8.532810   -2.793792    3.898451
     89          1           0        9.542461   -1.622113    3.290307
     90          1           0        4.009402   -3.802620    1.127729
     91          1           0       -2.718908   -6.027189   -1.187100
     92          1           0       -2.215250   -5.386975    0.314929
     93          1           0       -3.533274   -4.077148   -1.918055
     94          1           0       -2.778319   -3.312364    1.643051
     95          1           0       -4.120493   -2.335060    1.929114
     96          1           0       -4.334852   -4.090163    2.088190
     97          1           0       -4.810845   -1.155737   -0.476895
     98          1           0       -5.096859   -2.180695   -1.639348
     99          1           0       -6.754276   -3.790861   -0.610577
    100          1           0       -6.730697   -2.971017    1.042023
    101          1           0       -7.366667   -0.780259   -0.242094
    102          1           0       -7.768718   -1.727396   -1.606071
    103          1           0       -8.945178   -1.944600    1.106272
    104          1           0       -8.663197   -4.266445   -0.474954
    105          1           0      -10.341274   -3.656692    0.299647
    106          1           0       -9.753021   -3.273949   -1.389433
    107          1           0       -9.537344    0.179927   -0.016798
    108          1           0      -10.064123   -1.006798   -1.501106
    109          1           0      -11.970452   -1.868537   -0.141304
    110          1           0      -11.432990   -1.024207    1.238994
    111          1           0      -11.714953    1.134744   -0.186070
    112          1           0      -12.387719    0.267108   -1.240360
    113          1           0      -13.139818    0.554791    1.557572
    114          1           0      -14.706435   -0.702859   -0.741156
    115          1           0      -13.801840   -1.682237    0.320923
    116          1           0      -15.494814   -0.662860    0.986645
    117          1           0      -13.754224    2.811448    0.238216
    118          1           0      -14.473474    1.850286   -0.889680
    119          1           0      -16.108448    1.401483    0.869678
    120          1           0      -15.177605    2.184890    2.255226
    121          1           0      -15.485270    4.369049    0.851837
    122          1           0      -16.594796    3.577868   -0.329071
    123          1           0      -18.072625    3.159763    1.204699
    124          1           0      -16.300725    4.796390    3.216306
    125          1           0      -17.835147    4.363374    3.524862
    126          1           0      -17.026131    3.091707    3.676756
    127          1           0      -18.292603    5.101150   -0.275960
    128          1           0      -18.893748    5.796210    1.168733
    129          1           0      -17.166547    5.693199    0.781523
    130          1           0        5.018437   -7.956528    0.037529
    131          1           0        6.356072   -7.063986   -0.668907
    132          1           0        4.706914   -6.886282   -1.436302
    133          8           0        8.065299    6.885027    0.412557
    134          1           0        9.246761    6.344048    2.000517
 ---------------------------------------------------------------------

 SCF Done:  E(RCAM-B3LYP) =  -3043.34725679     A.U. after   15 cycles

 Excitation energies and oscillator strengths:

 Excited State   1:      Singlet-A      2.0202 eV  613.74 nm  f=0.1516  <S**2>=0.000
     243 -> 246        0.27749
     244 -> 245        0.63905
 This state for optimization and/or second-order correction.
 Total Energy, E(TD-HF/TD-KS) =  -3043.27301754
 Copying the excited state density for this state as the 1-particle RhoCI density.

 The electronic state is 1-A.
 Alpha  occ. eigenvalues --  -46.81163 -19.23031 -19.22199 -19.18942 -19.17993
 Alpha  occ. eigenvalues --  -19.17409 -19.17053 -19.14894 -14.39029 -14.37039
 Alpha  occ. eigenvalues --  -14.37003 -14.36662 -10.35429 -10.33739 -10.32558
 Alpha  occ. eigenvalues --  -10.31344 -10.30123 -10.28042 -10.27932 -10.27782
 Alpha  occ. eigenvalues --  -10.27400 -10.27220 -10.26724 -10.26576 -10.26268
 Alpha  occ. eigenvalues --  -10.26204 -10.26094 -10.26071 -10.25676 -10.24572
 Alpha  occ. eigenvalues --  -10.24302 -10.24295 -10.24176 -10.24164 -10.24059
 Alpha  occ. eigenvalues --  -10.24019 -10.23974 -10.23875 -10.23689 -10.23564
 Alpha  occ. eigenvalues --  -10.23469 -10.23332 -10.23234 -10.23059 -10.23025
 Alpha  occ. eigenvalues --  -10.22869 -10.22703 -10.22634 -10.22153 -10.21931
 Alpha  occ. eigenvalues --  -10.21735 -10.21643 -10.21538 -10.21430 -10.21289
 Alpha  occ. eigenvalues --  -10.21286 -10.21205 -10.20988 -10.20970 -10.20789
 Alpha  occ. eigenvalues --  -10.20277 -10.20246 -10.20174 -10.20136 -10.19969
 Alpha  occ. eigenvalues --  -10.18097  -3.09785  -1.84718  -1.84237  -1.84219
 Alpha  occ. eigenvalues --   -1.16624  -1.12389  -1.11008  -1.09339  -1.04759
 Alpha  occ. eigenvalues --   -1.03492  -1.02749  -1.00969  -0.99198  -0.98997
 Alpha  occ. eigenvalues --   -0.97644  -0.89586  -0.86370  -0.86209  -0.86065
 Alpha  occ. eigenvalues --   -0.85655  -0.85285  -0.85027  -0.83878  -0.83815
 Alpha  occ. eigenvalues --   -0.83520  -0.82300  -0.81812  -0.80296  -0.79657
 Alpha  occ. eigenvalues --   -0.79149  -0.78513  -0.77730  -0.77015  -0.76760
 Alpha  occ. eigenvalues --   -0.75561  -0.74620  -0.74311  -0.73057  -0.72605
 Alpha  occ. eigenvalues --   -0.72303  -0.71396  -0.70690  -0.70573  -0.69626
 Alpha  occ. eigenvalues --   -0.69541  -0.68925  -0.68190  -0.67399  -0.66644
 Alpha  occ. eigenvalues --   -0.66049  -0.65617  -0.63644  -0.62843  -0.62627
 Alpha  occ. eigenvalues --   -0.61654  -0.61104  -0.60401  -0.60106  -0.59610
 Alpha  occ. eigenvalues --   -0.59499  -0.58898  -0.58516  -0.57639  -0.57611
 Alpha  occ. eigenvalues --   -0.56539  -0.56394  -0.55685  -0.54932  -0.54832
 Alpha  occ. eigenvalues --   -0.54610  -0.54092  -0.53207  -0.52452  -0.52374
 Alpha  occ. eigenvalues --   -0.52202  -0.51715  -0.51409  -0.51140  -0.50868
 Alpha  occ. eigenvalues --   -0.50657  -0.50396  -0.50140  -0.49716  -0.49635
 Alpha  occ. eigenvalues --   -0.49532  -0.48952  -0.48770  -0.48390  -0.48018
 Alpha  occ. eigenvalues --   -0.47626  -0.47540  -0.47423  -0.47079  -0.46945
 Alpha  occ. eigenvalues --   -0.46852  -0.46403  -0.46246  -0.45979  -0.45680
 Alpha  occ. eigenvalues --   -0.45555  -0.45513  -0.45079  -0.44980  -0.44864
 Alpha  occ. eigenvalues --   -0.44621  -0.44531  -0.44364  -0.44156  -0.44107
 Alpha  occ. eigenvalues --   -0.43562  -0.43251  -0.43118  -0.43089  -0.42944
 Alpha  occ. eigenvalues --   -0.42821  -0.42518  -0.42399  -0.42300  -0.42114
 Alpha  occ. eigenvalues --   -0.41902  -0.41664  -0.41505  -0.41429  -0.41085
 Alpha  occ. eigenvalues --   -0.40929  -0.40721  -0.40418  -0.40134  -0.40097
 Alpha  occ. eigenvalues --   -0.39774  -0.39578  -0.39301  -0.38977  -0.38893
 Alpha  occ. eigenvalues --   -0.38732  -0.38519  -0.38402  -0.38130  -0.38022
 Alpha  occ. eigenvalues --   -0.37711  -0.37683  -0.37604  -0.37505  -0.37035
 Alpha  occ. eigenvalues --   -0.36804  -0.36620  -0.36127  -0.35704  -0.35532
 Alpha  occ. eigenvalues --   -0.35387  -0.34849  -0.34838  -0.34681  -0.34557
 Alpha  occ. eigenvalues --   -0.34315  -0.34150  -0.33944  -0.33372  -0.33201
 Alpha  occ. eigenvalues --   -0.32948  -0.32832  -0.32656  -0.31643  -0.31449
 Alpha  occ. eigenvalues --   -0.31003  -0.30881  -0.30289  -0.29340  -0.29267
 Alpha  occ. eigenvalues --   -0.28982  -0.28496  -0.28261  -0.27957  -0.27358
 Alpha  occ. eigenvalues --   -0.27227  -0.26547  -0.23683  -0.21374
 Alpha virt. eigenvalues --   -0.08314  -0.07288  -0.02530  -0.00926   0.01185
 Alpha virt. eigenvalues --    0.02044   0.02720   0.03602   0.04355   0.04882
 Alpha virt. eigenvalues --    0.05565   0.06087   0.07845   0.08525   0.08857

 Mulliken charges:
               1
     1  Mg   0.832673
     2  C    0.194413
     3  C   -0.163949
     4  C   -0.191467
     5  C   -0.187058
     6  N   -0.645286
     7  C    0.322805
     8  C   -0.178166
     9  C   -0.156741
    10  C    0.355895
    11  C   -0.278309
    12  C   -0.125662
    13  C   -0.258072
    14  C    0.585752
    15  O   -0.478447
    16  O   -0.420688
    17  N   -0.683098
    18  C    0.302397
    19  C    0.033658
    20  C   -0.010628
    21  C    0.275698
    22  C   -0.412343
    23  C    0.251643
    24  O   -0.447197
    25  N   -0.671144
    26  C    0.310292
    27  C   -0.069829
    28  C    0.054542
    29  C    0.258034
    30  C    0.260743
    31  C   -0.259230
    32  C   -0.303518
    33  N   -0.779763
    34  C    0.268429
    35  C    0.083304
    36  C   -0.005681
    37  C    0.313199
    38  C   -0.384475
    39  C    0.359533
    40  O   -0.397152
    41  C   -0.395509
    42  C    0.597808
    43  O   -0.479646
    44  O   -0.452004
    45  C   -0.074756
    46  C    0.000739
    47  C   -0.131355
    48  C    0.157734
    49  C   -0.383997
    50  C   -0.247376
    51  C   -0.165969
    52  C   -0.158403
    53  C   -0.071814
    54  C   -0.286190
    55  C   -0.152743
    56  C   -0.201550
    57  C   -0.156005
    58  C   -0.058335
    59  C   -0.324826
    60  C   -0.168742
    61  C   -0.177337
    62  C   -0.165632
    63  C   -0.056962
    64  C   -0.307247
    65  C   -0.326194
    66  H    0.098220
    67  H    0.134104
    68  H    0.078438
    69  H    0.120659
    70  H    0.085303
    71  H    0.084754
    72  H    0.122422
    73  H    0.109081
    74  H    0.097168
    75  H    0.117233
    76  H    0.086356
    77  H    0.127200
    78  H    0.121958
    79  H    0.156670
    80  H    0.130859
    81  H    0.095594
    82  H    0.116417
    83  H    0.112608
    84  H    0.130536
    85  H    0.102734
    86  H    0.116067
    87  H    0.108067
    88  H    0.146914
    89  H    0.146811
    90  H    0.161800
    91  H    0.126923
    92  H    0.139334
    93  H    0.082090
    94  H    0.153248
    95  H    0.101754
    96  H    0.098402
    97  H    0.068083
    98  H    0.102617
    99  H    0.071463
   100  H    0.093250
   101  H    0.090464
   102  H    0.097866
   103  H    0.088395
   104  H    0.060527
   105  H    0.114610
   106  H    0.103052
   107  H    0.082547
   108  H    0.098993
   109  H    0.078793
   110  H    0.099084
   111  H    0.093080
   112  H    0.086320
   113  H    0.086741
   114  H    0.102786
   115  H    0.081859
   116  H    0.082710
   117  H    0.076652
   118  H    0.094530
   119  H    0.089875
   120  H    0.079297
   121  H    0.084694
   122  H    0.098455
   123  H    0.101559
   124  H    0.112571
   125  H    0.121518
   126  H    0.062424
   127  H    0.094975
   128  H    0.080642
   129  H    0.109123
   130  H    0.105098
   131  H    0.142463
   132  H    0.138267
   133  O   -0.391245
   134  H    0.037344
 Sum of Mulliken charges =   0.00000

 Dipole moment (field-independent basis, Debye):
    X=             -1.5536    Y=             -5.5151    Z=              0.7820  Tot=              5.7828
 Quadrupole moment (field-independent basis, Debye-Ang):
   XX=           -362.6992   YY=           -442.2747   ZZ=           -390.0797
   XY=            -22.8362   XZ=             31.3195   YZ=             33.2647

 Normal termination of Gaussian 09 at Thu Oct  3 16:02:57 2019.
