 Gaussian 09, Revision D.01,
 Gaussian 09:  ES64L-G09RevD.01 24-Apr-2013

 ----------------------------------------------------------------------
 # td=(NStates=1) iop(3/107=0140000000,3/108=0140000000) iop(3/107=0140
 000000,3/108=0140000000) CAM-B3LYP/6-31G(d,p)
 ----------------------------------------------------------------------

 --
 TD
 --
 Symbolic Z-matrix:
 Charge =  0 Multiplicity = 1

                         Standard orientation:
 ---------------------------------------------------------------------
 Center     Atomic      Atomic             Coordinates (Angstroms)
 Number     Number       Type             X           Y           Z
 ---------------------------------------------------------------------
      1         12           0       -5.573614    1.251385    0.252302
      2          6           0       -4.965100   -2.096010   -0.426210
      3          6           0       -3.347559    1.111330    2.956961
      4          6           0       -6.170994    4.535649    0.742224
      5          6           0       -7.805787    1.229723   -2.366704
      6          7           0       -4.276495   -0.231593    1.083743
      7          6           0       -4.272364   -1.551779    0.652163
      8          6           0       -3.316201   -2.447793    1.583270
      9          6           0       -2.999163   -1.370282    2.786158
     10          6           0       -3.573116   -0.116600    2.255097
     11          6           0       -3.627732   -1.896482    4.034161
     12          6           0       -2.001767   -2.738585    0.734961
     13          6           0       -1.033850   -3.564690    1.439539
     14          6           0        0.107594   -3.886519    0.593853
     15          8           0        0.394716   -3.472331   -0.469761
     16          8           0        1.023593   -4.717346    1.368200
     17          7           0       -5.099821    2.585575    1.730648
     18          6           0       -4.107279    2.326543    2.690048
     19          6           0       -3.684540    3.643820    3.278667
     20          6           0       -4.496444    4.561730    2.620462
     21          6           0       -5.232314    3.976143    1.640768
     22          6           0       -2.712053    3.836991    4.328694
     23          6           0       -4.658063    5.989668    2.958896
     24          8           0       -3.998230    6.635697    3.864381
     25          7           0       -6.812940    2.596717   -0.606374
     26          6           0       -6.890557    3.919181   -0.350756
     27          6           0       -7.723413    4.697934   -1.245015
     28          6           0       -8.278101    3.704710   -2.169320
     29          6           0       -7.682531    2.480340   -1.758971
     30          6           0       -8.051766    6.058346   -1.347387
     31          6           0       -9.272263    3.850021   -3.311771
     32          6           0       -8.629519    4.002442   -4.620962
     33          7           0       -6.295694   -0.119807   -1.062025
     34          6           0       -7.233407    0.073228   -2.044891
     35          6           0       -7.525029   -1.250317   -2.724678
     36          6           0       -6.640676   -2.139631   -2.069942
     37          6           0       -5.889524   -1.392678   -1.176877
     38          6           0       -8.408287   -1.529224   -3.857239
     39          6           0       -6.119533   -3.473770   -2.052760
     40          8           0       -6.380638   -4.480856   -2.726875
     41          6           0       -5.027382   -3.538867   -0.948633
     42          6           0       -5.397421   -4.662327    0.043540
     43          8           0       -5.763929   -4.521161    1.086303
     44          8           0       -4.989789   -5.839692   -0.546805
     45          6           0       -5.395317   -6.950689    0.385256
     46          6           0        2.251246   -5.112689    0.688326
     47          6           0        3.412336   -4.133727    1.008618
     48          6           0        3.965423   -3.331043    0.106028
     49          6           0        3.670275   -3.318333   -1.390612
     50          6           0        5.129190   -2.435095    0.529346
     51          6           0        6.518236   -2.701854   -0.042259
     52          6           0        7.630150   -1.770584    0.466692
     53          6           0        9.022257   -1.988049   -0.118062
     54          6           0        9.588497   -3.462430    0.130141
     55          6           0        9.999121   -0.905764    0.461987
     56          6           0       11.366386   -0.968565   -0.233730
     57          6           0       12.257170    0.239410    0.245877
     58          6           0       13.490257    0.456763   -0.606734
     59          6           0       14.405386   -0.769111   -0.348732
     60          6           0       14.131633    1.710591   -0.206419
     61          6           0       15.337492    2.152950   -1.015833
     62          6           0       15.801853    3.541058   -0.582759
     63          6           0       16.981216    3.988997   -1.349344
     64          6           0       16.932634    4.191451   -2.751421
     65          6           0       17.476186    5.457827   -0.876450
     66          1           0       -2.671149    1.036081    3.886116
     67          1           0       -6.166835    5.513872    0.886290
     68          1           0       -8.617161    1.212716   -3.131709
     69          1           0       -3.626680   -3.435089    2.042425
     70          1           0       -1.829557   -1.217430    2.898071
     71          1           0       -3.125507   -2.925532    4.406608
     72          1           0       -3.262272   -1.320673    5.017429
     73          1           0       -4.673089   -1.798114    4.087307
     74          1           0       -2.449326   -3.359838    0.109867
     75          1           0       -1.432725   -1.747790    0.255070
     76          1           0       -0.629064   -3.176487    2.502474
     77          1           0       -1.543952   -4.416945    1.624329
     78          1           0       -1.745412    3.465391    3.761543
     79          1           0       -2.538480    4.826616    4.713175
     80          1           0       -2.924822    3.117097    5.182686
     81          1           0       -5.391913    6.327569    2.478441
     82          1           0       -9.983099    3.057684   -3.264887
     83          1           0       -9.987032    4.641648   -3.198194
     84          1           0       -9.354341    4.130771   -5.261577
     85          1           0       -8.054819    5.040947   -4.604295
     86          1           0       -7.997594    3.192473   -4.906354
     87          1           0       -8.024814   -0.780131   -4.761771
     88          1           0       -8.121021   -2.615716   -4.285107
     89          1           0       -9.379794   -1.088579   -3.618400
     90          1           0       -3.912419   -3.767387   -1.500619
     91          1           0        2.472459   -6.034066    1.201954
     92          1           0        1.973773   -5.199228   -0.461318
     93          1           0        3.521725   -4.140659    2.170822
     94          1           0        2.578196   -3.796079   -1.576183
     95          1           0        3.812534   -2.336235   -1.580922
     96          1           0        4.447381   -3.804790   -2.034692
     97          1           0        4.632348   -1.376572    0.318237
     98          1           0        5.172425   -2.468678    1.580467
     99          1           0        6.805567   -3.855334    0.291167
    100          1           0        6.505333   -2.863584   -1.125271
    101          1           0        7.623992   -0.700337    0.348879
    102          1           0        7.718648   -1.827511    1.603142
    103          1           0        8.986447   -2.016218   -1.121098
    104          1           0        8.894633   -4.388179   -0.003882
    105          1           0       10.581269   -3.512614   -0.369184
    106          1           0        9.850935   -3.612013    1.090495
    107          1           0        9.651419    0.078575    0.422756
    108          1           0       10.147294   -0.936768    1.625355
    109          1           0       12.073506   -1.812695   -0.055669
    110          1           0       11.143945   -0.950849   -1.299069
    111          1           0       11.634064    1.157175    0.029388
    112          1           0       12.722270    0.023616    1.324160
    113          1           0       13.357236    0.537129   -1.507666
    114          1           0       14.446748   -0.724068    0.707556
    115          1           0       13.798547   -1.673341   -0.719448
    116          1           0       15.416423   -0.836704   -0.789924
    117          1           0       13.367899    2.494518   -0.332646
    118          1           0       14.235210    1.711442    0.909986
    119          1           0       16.184674    1.220924   -0.960067
    120          1           0       15.310542    2.112767   -2.154851
    121          1           0       15.140469    4.325747   -0.612580
    122          1           0       16.010080    3.517301    0.470510
    123          1           0       17.905190    3.273179   -1.006640
    124          1           0       16.100996    4.859996   -3.170413
    125          1           0       17.753822    4.475443   -3.301699
    126          1           0       16.618661    3.021046   -3.178937
    127          1           0       17.820911    5.263969    0.155833
    128          1           0       18.242739    6.116086   -1.591462
    129          1           0       16.288646    6.040144   -0.849016
    130          1           0       -4.886865   -7.640796   -0.370326
    131          1           0       -6.476926   -6.989227    0.314895
    132          1           0       -4.894259   -7.089122    1.319366
    133          8           0       -7.544144    6.862848   -0.582601
    134          1           0       -8.735563    6.473168   -2.226812
 ---------------------------------------------------------------------

 SCF Done:  E(RCAM-B3LYP) =  -3043.35191403     A.U. after   16 cycles

 Excitation energies and oscillator strengths:

 Excited State   1:      Singlet-A      2.0740 eV  597.80 nm  f=0.1045  <S**2>=0.000
     243 -> 246       -0.33564
     244 -> 245        0.60797
 This state for optimization and/or second-order correction.
 Total Energy, E(TD-HF/TD-KS) =  -3043.27569548
 Copying the excited state density for this state as the 1-particle RhoCI density.

 The electronic state is 1-A.
 Alpha  occ. eigenvalues --  -46.81560 -19.21919 -19.19829 -19.19149 -19.18836
 Alpha  occ. eigenvalues --  -19.16665 -19.16603 -19.15998 -14.39735 -14.37448
 Alpha  occ. eigenvalues --  -14.36940 -14.36747 -10.34912 -10.34872 -10.31197
 Alpha  occ. eigenvalues --  -10.29986 -10.28837 -10.28728 -10.28378 -10.27969
 Alpha  occ. eigenvalues --  -10.27405 -10.27255 -10.26947 -10.26605 -10.26277
 Alpha  occ. eigenvalues --  -10.26075 -10.25983 -10.25839 -10.25641 -10.25597
 Alpha  occ. eigenvalues --  -10.25595 -10.25253 -10.25128 -10.24853 -10.24516
 Alpha  occ. eigenvalues --  -10.24205 -10.23897 -10.23778 -10.23656 -10.23479
 Alpha  occ. eigenvalues --  -10.23223 -10.23186 -10.23155 -10.23101 -10.23024
 Alpha  occ. eigenvalues --  -10.22862 -10.22545 -10.22534 -10.22402 -10.22230
 Alpha  occ. eigenvalues --  -10.22095 -10.21879 -10.21722 -10.21558 -10.21396
 Alpha  occ. eigenvalues --  -10.21224 -10.21181 -10.21040 -10.21021 -10.21013
 Alpha  occ. eigenvalues --  -10.20999 -10.20179 -10.19998 -10.19946 -10.19514
 Alpha  occ. eigenvalues --  -10.18556  -3.10163  -1.85099  -1.84645  -1.84567
 Alpha  occ. eigenvalues --   -1.17064  -1.12662  -1.06888  -1.06100  -1.05546
 Alpha  occ. eigenvalues --   -1.03752  -1.02097  -1.01066  -0.99266  -0.98945
 Alpha  occ. eigenvalues --   -0.97990  -0.89326  -0.87200  -0.86884  -0.86051
 Alpha  occ. eigenvalues --   -0.85357  -0.84975  -0.84808  -0.83881  -0.83763
 Alpha  occ. eigenvalues --   -0.83720  -0.83468  -0.82464  -0.80092  -0.79962
 Alpha  occ. eigenvalues --   -0.79558  -0.78279  -0.77730  -0.76779  -0.76244
 Alpha  occ. eigenvalues --   -0.75938  -0.75067  -0.73613  -0.73265  -0.72060
 Alpha  occ. eigenvalues --   -0.71471  -0.71185  -0.69907  -0.69729  -0.69260
 Alpha  occ. eigenvalues --   -0.68813  -0.68561  -0.67999  -0.67256  -0.66774
 Alpha  occ. eigenvalues --   -0.66147  -0.64659  -0.64321  -0.62567  -0.62054
 Alpha  occ. eigenvalues --   -0.61160  -0.60841  -0.60782  -0.60408  -0.59854
 Alpha  occ. eigenvalues --   -0.58910  -0.58264  -0.57879  -0.57839  -0.56632
 Alpha  occ. eigenvalues --   -0.56092  -0.55689  -0.55329  -0.55250  -0.54979
 Alpha  occ. eigenvalues --   -0.53986  -0.53925  -0.53243  -0.52993  -0.52720
 Alpha  occ. eigenvalues --   -0.52302  -0.51969  -0.51429  -0.51170  -0.50520
 Alpha  occ. eigenvalues --   -0.50299  -0.50196  -0.50024  -0.49424  -0.49200
 Alpha  occ. eigenvalues --   -0.48935  -0.48818  -0.48194  -0.47848  -0.47714
 Alpha  occ. eigenvalues --   -0.47596  -0.47383  -0.47262  -0.46853  -0.46697
 Alpha  occ. eigenvalues --   -0.46570  -0.46398  -0.46355  -0.46184  -0.45969
 Alpha  occ. eigenvalues --   -0.45829  -0.45561  -0.45410  -0.45279  -0.44609
 Alpha  occ. eigenvalues --   -0.44194  -0.44092  -0.43959  -0.43880  -0.43764
 Alpha  occ. eigenvalues --   -0.43509  -0.43359  -0.43254  -0.42968  -0.42822
 Alpha  occ. eigenvalues --   -0.42518  -0.42198  -0.42146  -0.41952  -0.41834
 Alpha  occ. eigenvalues --   -0.41629  -0.41261  -0.41174  -0.41043  -0.40869
 Alpha  occ. eigenvalues --   -0.40626  -0.40506  -0.40286  -0.40264  -0.40132
 Alpha  occ. eigenvalues --   -0.39863  -0.39691  -0.39641  -0.39515  -0.39334
 Alpha  occ. eigenvalues --   -0.39165  -0.39099  -0.38866  -0.38695  -0.38580
 Alpha  occ. eigenvalues --   -0.38399  -0.38140  -0.37806  -0.37484  -0.37301
 Alpha  occ. eigenvalues --   -0.37138  -0.36944  -0.36244  -0.36106  -0.35670
 Alpha  occ. eigenvalues --   -0.35653  -0.35591  -0.35308  -0.35245  -0.34784
 Alpha  occ. eigenvalues --   -0.34407  -0.34283  -0.33677  -0.33479  -0.32997
 Alpha  occ. eigenvalues --   -0.32438  -0.32265  -0.32243  -0.32210  -0.31569
 Alpha  occ. eigenvalues --   -0.31427  -0.31087  -0.30263  -0.29837  -0.28814
 Alpha  occ. eigenvalues --   -0.28653  -0.27936  -0.27716  -0.27491  -0.27333
 Alpha  occ. eigenvalues --   -0.27248  -0.27054  -0.23029  -0.22087
 Alpha virt. eigenvalues --   -0.08529  -0.07293  -0.02428  -0.01127   0.00216
 Alpha virt. eigenvalues --    0.02643   0.03185   0.03726   0.04129   0.04773
 Alpha virt. eigenvalues --    0.05071   0.05402   0.07140   0.07912   0.08745

 Mulliken charges:
               1
     1  Mg   0.825916
     2  C    0.090806
     3  C   -0.193600
     4  C   -0.121220
     5  C   -0.192518
     6  N   -0.630541
     7  C    0.282881
     8  C   -0.176663
     9  C   -0.141727
    10  C    0.351977
    11  C   -0.300482
    12  C   -0.151830
    13  C   -0.253739
    14  C    0.606009
    15  O   -0.422467
    16  O   -0.520854
    17  N   -0.697107
    18  C    0.290245
    19  C    0.046072
    20  C   -0.020841
    21  C    0.268014
    22  C   -0.383679
    23  C    0.293186
    24  O   -0.466960
    25  N   -0.690425
    26  C    0.322409
    27  C    0.011653
    28  C    0.048079
    29  C    0.248280
    30  C    0.198340
    31  C   -0.254386
    32  C   -0.291591
    33  N   -0.735701
    34  C    0.318927
    35  C    0.037386
    36  C    0.073743
    37  C    0.285499
    38  C   -0.392370
    39  C    0.328951
    40  O   -0.477910
    41  C   -0.331384
    42  C    0.613815
    43  O   -0.384823
    44  O   -0.468066
    45  C   -0.115639
    46  C    0.014738
    47  C   -0.129326
    48  C    0.116329
    49  C   -0.351268
    50  C   -0.216058
    51  C   -0.171673
    52  C   -0.158076
    53  C   -0.057895
    54  C   -0.332245
    55  C   -0.183382
    56  C   -0.180979
    57  C   -0.182512
    58  C   -0.033161
    59  C   -0.310937
    60  C   -0.158576
    61  C   -0.175360
    62  C   -0.144344
    63  C   -0.050870
    64  C   -0.264684
    65  C   -0.285058
    66  H    0.098388
    67  H    0.095117
    68  H    0.079766
    69  H    0.120423
    70  H    0.102969
    71  H    0.100057
    72  H    0.083628
    73  H    0.140233
    74  H    0.118394
    75  H    0.106970
    76  H    0.130099
    77  H    0.142385
    78  H    0.117888
    79  H    0.167413
    80  H    0.121726
    81  H    0.088067
    82  H    0.114199
    83  H    0.117150
    84  H    0.121833
    85  H    0.096884
    86  H    0.116352
    87  H    0.110988
    88  H    0.159343
    89  H    0.144105
    90  H    0.147281
    91  H    0.110507
    92  H    0.098118
    93  H    0.080881
    94  H    0.123632
    95  H    0.120701
    96  H    0.112429
    97  H    0.079534
    98  H    0.103316
    99  H    0.076334
   100  H    0.097395
   101  H    0.093400
   102  H    0.082226
   103  H    0.101162
   104  H    0.086768
   105  H    0.094693
   106  H    0.114518
   107  H    0.101513
   108  H    0.076767
   109  H    0.100329
   110  H    0.094316
   111  H    0.082192
   112  H    0.079713
   113  H    0.081056
   114  H    0.098565
   115  H    0.089072
   116  H    0.097874
   117  H    0.083023
   118  H    0.076462
   119  H    0.055746
   120  H    0.096489
   121  H    0.098126
   122  H    0.099566
   123  H    0.066090
   124  H    0.093990
   125  H    0.121515
   126  H    0.032416
   127  H    0.104298
   128  H    0.091122
   129  H    0.045449
   130  H    0.130200
   131  H    0.145543
   132  H    0.138615
   133  O   -0.425618
   134  H    0.057971
 Sum of Mulliken charges =   0.00000

 Dipole moment (field-independent basis, Debye):
    X=              0.2572    Y=             -4.7911    Z=             -1.2672  Tot=              4.9625
 Quadrupole moment (field-independent basis, Debye-Ang):
   XX=           -369.4765   YY=           -452.7709   ZZ=           -391.0457
   XY=             18.7977   XZ=             23.4037   YZ=            -41.0749

 Normal termination of Gaussian 09 at Sat Oct  5 03:07:07 2019.
