 Gaussian 09, Revision D.01,
 Gaussian 09:  ES64L-G09RevD.01 24-Apr-2013

 ----------------------------------------------------------------------
 # td=(NStates=1) iop(3/107=0140000000,3/108=0140000000) iop(3/107=0140
 000000,3/108=0140000000) CAM-B3LYP/6-31G(d,p)
 ----------------------------------------------------------------------

 --
 TD
 --
 Symbolic Z-matrix:
 Charge =  0 Multiplicity = 1

                         Standard orientation:
 ---------------------------------------------------------------------
 Center     Atomic      Atomic             Coordinates (Angstroms)
 Number     Number       Type             X           Y           Z
 ---------------------------------------------------------------------
      1         12           0       -5.613396    1.284653    0.220331
      2          6           0       -4.873794   -2.183971   -0.435766
      3          6           0       -3.545582    1.171596    2.791002
      4          6           0       -6.293406    4.598389    0.573806
      5          6           0       -7.941243    1.113274   -2.327680
      6          7           0       -4.378318   -0.276781    1.076355
      7          6           0       -4.180131   -1.588045    0.633485
      8          6           0       -3.123083   -2.206957    1.479707
      9          6           0       -2.873403   -1.276375    2.691966
     10          6           0       -3.614902   -0.050602    2.155187
     11          6           0       -3.513080   -1.918883    3.944601
     12          6           0       -1.873620   -2.622989    0.672145
     13          6           0       -0.980236   -3.574915    1.397107
     14          6           0        0.299834   -3.773750    0.711907
     15          8           0        0.507135   -3.364767   -0.437359
     16          8           0        1.122317   -4.628741    1.400457
     17          7           0       -4.977181    2.706987    1.429883
     18          6           0       -4.098952    2.450668    2.505074
     19          6           0       -3.725777    3.699037    3.077276
     20          6           0       -4.509588    4.659373    2.549965
     21          6           0       -5.339044    4.087947    1.472248
     22          6           0       -2.748260    3.836685    4.245226
     23          6           0       -4.564961    6.009743    2.959555
     24          8           0       -3.978881    6.628008    3.905376
     25          7           0       -6.857351    2.620254   -0.765508
     26          6           0       -6.967820    3.930859   -0.483016
     27          6           0       -8.028744    4.508941   -1.139487
     28          6           0       -8.513394    3.528290   -1.968829
     29          6           0       -7.784859    2.384387   -1.745153
     30          6           0       -8.360205    5.902077   -1.213970
     31          6           0       -9.618793    3.683082   -2.994390
     32          6           0       -9.003656    3.945302   -4.538900
     33          7           0       -6.392294   -0.187976   -1.056490
     34          6           0       -7.290945   -0.133975   -2.018436
     35          6           0       -7.505797   -1.411346   -2.679639
     36          6           0       -6.608368   -2.174160   -2.062659
     37          6           0       -5.887917   -1.420923   -1.123676
     38          6           0       -8.552509   -1.749201   -3.770604
     39          6           0       -6.109472   -3.584015   -1.990210
     40          8           0       -6.548010   -4.497562   -2.643322
     41          6           0       -4.984958   -3.625074   -0.933069
     42          6           0       -5.279013   -4.576933    0.140348
     43          8           0       -5.648768   -4.406052    1.259056
     44          8           0       -4.932565   -5.799955   -0.425045
     45          6           0       -5.246037   -6.993643    0.320068
     46          6           0        2.376216   -5.080697    0.748472
     47          6           0        3.415199   -4.078896    1.050121
     48          6           0        4.049259   -3.283044    0.145131
     49          6           0        3.624102   -3.199921   -1.309034
     50          6           0        5.217014   -2.391983    0.625571
     51          6           0        6.599778   -2.786075    0.014060
     52          6           0        7.632280   -1.808728    0.564569
     53          6           0        9.031635   -1.891269   -0.103406
     54          6           0        9.528571   -3.297904    0.154052
     55          6           0        9.946704   -0.849730    0.538790
     56          6           0       11.248581   -0.803140   -0.095975
     57          6           0       12.178631    0.399106    0.216663
     58          6           0       13.429871    0.559055   -0.525966
     59          6           0       14.337662   -0.696294   -0.268462
     60          6           0       14.227174    1.845841   -0.138097
     61          6           0       15.542707    1.993809   -0.968394
     62          6           0       16.028929    3.441988   -0.727525
     63          6           0       17.241336    3.868281   -1.484687
     64          6           0       17.040710    3.936552   -3.051270
     65          6           0       17.980842    5.226150   -0.919820
     66          1           0       -2.803926    1.117518    3.505060
     67          1           0       -6.415589    5.666195    0.663335
     68          1           0       -8.721570    1.245432   -3.074405
     69          1           0       -3.531162   -3.122755    1.953239
     70          1           0       -1.780839   -1.139025    2.633640
     71          1           0       -2.860912   -2.807321    4.209896
     72          1           0       -3.448247   -1.342757    4.906355
     73          1           0       -4.477769   -2.281758    3.896416
     74          1           0       -2.347525   -3.234476   -0.143475
     75          1           0       -1.492262   -1.760272    0.273224
     76          1           0       -0.719797   -3.288652    2.435535
     77          1           0       -1.397241   -4.680848    1.620216
     78          1           0       -1.828716    3.347579    3.870390
     79          1           0       -2.614098    4.876984    4.490204
     80          1           0       -3.215593    3.252630    5.153910
     81          1           0       -5.120915    6.725198    2.313794
     82          1           0      -10.266919    2.820639   -3.108649
     83          1           0      -10.064537    4.643295   -2.994011
     84          1           0       -9.695416    3.731872   -5.326581
     85          1           0       -8.508891    5.008089   -4.306886
     86          1           0       -8.158778    3.214050   -4.696851
     87          1           0       -8.350422   -1.161671   -4.731137
     88          1           0       -8.334049   -2.745248   -3.938087
     89          1           0       -9.629966   -1.782387   -3.511064
     90          1           0       -4.050917   -3.729363   -1.406825
     91          1           0        2.706711   -5.916770    1.390163
     92          1           0        2.335354   -5.350142   -0.333474
     93          1           0        3.934512   -4.157179    2.001887
     94          1           0        2.681013   -3.208660   -1.626543
     95          1           0        4.001429   -2.172926   -1.633132
     96          1           0        4.220773   -3.982773   -1.726948
     97          1           0        4.958058   -1.356144    0.258894
     98          1           0        5.128968   -2.293108    1.723829
     99          1           0        6.892042   -3.805364    0.625145
    100          1           0        6.445508   -2.738362   -1.080057
    101          1           0        7.136965   -0.756608    0.457372
    102          1           0        7.673348   -1.806768    1.751474
    103          1           0        9.079483   -1.733707   -1.221535
    104          1           0        8.751786   -3.868214   -0.420263
    105          1           0       10.512879   -3.323094   -0.386482
    106          1           0        9.657185   -3.377065    1.235002
    107          1           0        9.586560    0.155356    0.401990
    108          1           0       10.119230   -1.153251    1.678625
    109          1           0       11.787506   -1.657470    0.159366
    110          1           0       11.361358   -1.142589   -1.243164
    111          1           0       11.323760    1.140992    0.283623
    112          1           0       12.634556    0.325262    1.055662
    113          1           0       13.189511    0.768734   -1.706687
    114          1           0       14.524206   -0.569331    0.776640
    115          1           0       13.750649   -1.839375   -0.523750
    116          1           0       15.270177   -0.624713   -0.764102
    117          1           0       13.642259    2.735329   -0.155986
    118          1           0       14.542623    1.734163    1.029168
    119          1           0       16.389642    1.145949   -0.834561
    120          1           0       15.201024    1.898326   -2.163020
    121          1           0       15.254433    4.381195   -1.140183
    122          1           0       16.165145    3.867450    0.449916
    123          1           0       18.032729    3.184408   -1.267039
    124          1           0       16.318637    4.844498   -3.059809
    125          1           0       18.032302    4.201907   -3.423736
    126          1           0       16.716134    3.008212   -3.543002
    127          1           0       17.995029    5.094324    0.149205
    128          1           0       18.794051    5.386812   -1.460613
    129          1           0       17.289710    6.122144   -1.074518
    130          1           0       -4.887471   -7.797180   -0.311482
    131          1           0       -6.412189   -7.023207    0.316942
    132          1           0       -4.929699   -7.078465    1.453847
    133          8           0       -7.759934    6.838155   -0.594096
    134          1           0       -9.078364    6.076592   -2.099970
 ---------------------------------------------------------------------

 SCF Done:  E(RCAM-B3LYP) =  -3043.50132710     A.U. after   16 cycles

 Excitation energies and oscillator strengths:

 Excited State   1:      Singlet-A      2.0950 eV  591.81 nm  f=0.1254  <S**2>=0.000
     243 -> 245       -0.14386
     243 -> 246        0.31891
     244 -> 245        0.59998
 This state for optimization and/or second-order correction.
 Total Energy, E(TD-HF/TD-KS) =  -3043.42433749
 Copying the excited state density for this state as the 1-particle RhoCI density.

 The electronic state is 1-A.
 Alpha  occ. eigenvalues --  -46.81607 -19.22659 -19.22153 -19.19279 -19.18141
 Alpha  occ. eigenvalues --  -19.17091 -19.16999 -19.16102 -14.38969 -14.36817
 Alpha  occ. eigenvalues --  -14.36679 -14.36248 -10.36120 -10.34967 -10.32201
 Alpha  occ. eigenvalues --  -10.30824 -10.29351 -10.28728 -10.28028 -10.27779
 Alpha  occ. eigenvalues --  -10.27349 -10.27031 -10.26899 -10.26249 -10.25541
 Alpha  occ. eigenvalues --  -10.25443 -10.25384 -10.25067 -10.25008 -10.24809
 Alpha  occ. eigenvalues --  -10.24796 -10.24675 -10.24572 -10.24442 -10.24317
 Alpha  occ. eigenvalues --  -10.23858 -10.23759 -10.23646 -10.23573 -10.23386
 Alpha  occ. eigenvalues --  -10.23301 -10.23251 -10.23080 -10.23077 -10.23049
 Alpha  occ. eigenvalues --  -10.22837 -10.22828 -10.22770 -10.22448 -10.22362
 Alpha  occ. eigenvalues --  -10.22320 -10.22216 -10.22084 -10.22021 -10.21801
 Alpha  occ. eigenvalues --  -10.21776 -10.21645 -10.21247 -10.20941 -10.20902
 Alpha  occ. eigenvalues --  -10.20455 -10.20452 -10.20025 -10.19976 -10.19872
 Alpha  occ. eigenvalues --  -10.19121  -3.10135  -1.85082  -1.84590  -1.84550
 Alpha  occ. eigenvalues --   -1.13911  -1.11594  -1.08558  -1.06514  -1.03846
 Alpha  occ. eigenvalues --   -1.03586  -1.02968  -1.02549  -1.00979  -1.00083
 Alpha  occ. eigenvalues --   -0.97739  -0.89588  -0.86777  -0.86677  -0.85487
 Alpha  occ. eigenvalues --   -0.85256  -0.84550  -0.84443  -0.84183  -0.83348
 Alpha  occ. eigenvalues --   -0.83157  -0.82901  -0.82240  -0.80934  -0.80352
 Alpha  occ. eigenvalues --   -0.79078  -0.78330  -0.77425  -0.77287  -0.76708
 Alpha  occ. eigenvalues --   -0.75426  -0.75017  -0.74526  -0.73400  -0.72496
 Alpha  occ. eigenvalues --   -0.71370  -0.70857  -0.70708  -0.70133  -0.69889
 Alpha  occ. eigenvalues --   -0.69372  -0.69236  -0.67675  -0.67078  -0.66555
 Alpha  occ. eigenvalues --   -0.66337  -0.65103  -0.64812  -0.62689  -0.62108
 Alpha  occ. eigenvalues --   -0.61768  -0.60996  -0.60259  -0.59399  -0.58591
 Alpha  occ. eigenvalues --   -0.58382  -0.58194  -0.57438  -0.57165  -0.56838
 Alpha  occ. eigenvalues --   -0.56489  -0.56143  -0.55852  -0.55520  -0.54886
 Alpha  occ. eigenvalues --   -0.54679  -0.53514  -0.52875  -0.52802  -0.52316
 Alpha  occ. eigenvalues --   -0.52128  -0.51892  -0.51522  -0.51420  -0.51188
 Alpha  occ. eigenvalues --   -0.50461  -0.50115  -0.49714  -0.49489  -0.48763
 Alpha  occ. eigenvalues --   -0.48637  -0.48522  -0.48323  -0.48171  -0.47782
 Alpha  occ. eigenvalues --   -0.47721  -0.47475  -0.47219  -0.47105  -0.46695
 Alpha  occ. eigenvalues --   -0.46651  -0.46502  -0.46357  -0.46175  -0.45726
 Alpha  occ. eigenvalues --   -0.45564  -0.45499  -0.45309  -0.44996  -0.44923
 Alpha  occ. eigenvalues --   -0.44828  -0.44607  -0.44103  -0.44069  -0.43877
 Alpha  occ. eigenvalues --   -0.43422  -0.43399  -0.43257  -0.43084  -0.42860
 Alpha  occ. eigenvalues --   -0.42741  -0.42423  -0.42307  -0.42232  -0.42174
 Alpha  occ. eigenvalues --   -0.41992  -0.41726  -0.41452  -0.41273  -0.40955
 Alpha  occ. eigenvalues --   -0.40674  -0.40249  -0.40155  -0.40015  -0.39809
 Alpha  occ. eigenvalues --   -0.39770  -0.39677  -0.39566  -0.39366  -0.39123
 Alpha  occ. eigenvalues --   -0.38992  -0.38912  -0.38780  -0.38329  -0.38265
 Alpha  occ. eigenvalues --   -0.38026  -0.37965  -0.37939  -0.37852  -0.37391
 Alpha  occ. eigenvalues --   -0.37035  -0.36796  -0.36555  -0.35926  -0.35638
 Alpha  occ. eigenvalues --   -0.35543  -0.35187  -0.35084  -0.34903  -0.34548
 Alpha  occ. eigenvalues --   -0.34492  -0.34167  -0.33388  -0.33058  -0.32810
 Alpha  occ. eigenvalues --   -0.32787  -0.32544  -0.32439  -0.32211  -0.31595
 Alpha  occ. eigenvalues --   -0.31285  -0.31095  -0.30710  -0.30521  -0.30271
 Alpha  occ. eigenvalues --   -0.29334  -0.28679  -0.28549  -0.28001  -0.27417
 Alpha  occ. eigenvalues --   -0.26733  -0.26724  -0.22751  -0.22098
 Alpha virt. eigenvalues --   -0.08528  -0.06977  -0.01685  -0.01325   0.00337
 Alpha virt. eigenvalues --    0.02486   0.02670   0.03654   0.03808   0.04101
 Alpha virt. eigenvalues --    0.04981   0.05391   0.07877   0.08234   0.09113

 Mulliken charges:
               1
     1  Mg   0.828711
     2  C   -0.000845
     3  C   -0.183777
     4  C   -0.172113
     5  C   -0.164377
     6  N   -0.636516
     7  C    0.330737
     8  C   -0.211415
     9  C   -0.122740
    10  C    0.334728
    11  C   -0.323081
    12  C   -0.149442
    13  C   -0.276275
    14  C    0.623033
    15  O   -0.480518
    16  O   -0.483543
    17  N   -0.733803
    18  C    0.318435
    19  C    0.047172
    20  C    0.012051
    21  C    0.300880
    22  C   -0.360586
    23  C    0.196404
    24  O   -0.450601
    25  N   -0.695885
    26  C    0.299083
    27  C    0.008678
    28  C    0.036942
    29  C    0.307730
    30  C    0.236625
    31  C   -0.279564
    32  C   -0.323835
    33  N   -0.694933
    34  C    0.261295
    35  C    0.016043
    36  C    0.017196
    37  C    0.312710
    38  C   -0.380062
    39  C    0.369299
    40  O   -0.436096
    41  C   -0.288716
    42  C    0.632622
    43  O   -0.443206
    44  O   -0.458631
    45  C   -0.088562
    46  C    0.002226
    47  C   -0.130866
    48  C    0.109750
    49  C   -0.364107
    50  C   -0.244132
    51  C   -0.168824
    52  C   -0.154247
    53  C   -0.073242
    54  C   -0.293104
    55  C   -0.153392
    56  C   -0.193344
    57  C   -0.121546
    58  C   -0.081000
    59  C   -0.294786
    60  C   -0.159307
    61  C   -0.162773
    62  C   -0.127939
    63  C   -0.079124
    64  C   -0.299325
    65  C   -0.319875
    66  H    0.068661
    67  H    0.136279
    68  H    0.079365
    69  H    0.119755
    70  H    0.113406
    71  H    0.105063
    72  H    0.109227
    73  H    0.148730
    74  H    0.109516
    75  H    0.129574
    76  H    0.134045
    77  H    0.137604
    78  H    0.118186
    79  H    0.162942
    80  H    0.120166
    81  H    0.082999
    82  H    0.117967
    83  H    0.128264
    84  H    0.125327
    85  H    0.102456
    86  H    0.108410
    87  H    0.120836
    88  H    0.154820
    89  H    0.131084
    90  H    0.186505
    91  H    0.117230
    92  H    0.129584
    93  H    0.074980
    94  H    0.158842
    95  H    0.090525
    96  H    0.123554
    97  H    0.095507
    98  H    0.100988
    99  H    0.094279
   100  H    0.109834
   101  H    0.070114
   102  H    0.078979
   103  H    0.083739
   104  H    0.108675
   105  H    0.092716
   106  H    0.102102
   107  H    0.090765
   108  H    0.074829
   109  H    0.101065
   110  H    0.059593
   111  H    0.071019
   112  H    0.093907
   113  H    0.049991
   114  H    0.110601
   115  H    0.069242
   116  H    0.112771
   117  H    0.114908
   118  H    0.060714
   119  H    0.092622
   120  H    0.080339
   121  H    0.046715
   122  H    0.061081
   123  H    0.086201
   124  H    0.094317
   125  H    0.101392
   126  H    0.106973
   127  H    0.108526
   128  H    0.115721
   129  H    0.084039
   130  H    0.135886
   131  H    0.119377
   132  H    0.120186
   133  O   -0.449093
   134  H    0.061183
 Sum of Mulliken charges =   0.00000

 Dipole moment (field-independent basis, Debye):
    X=              2.5884    Y=             -7.4879    Z=             -1.1044  Tot=              7.9993
 Quadrupole moment (field-independent basis, Debye-Ang):
   XX=           -366.0795   YY=           -447.3327   ZZ=           -397.4939
   XY=             18.8159   XZ=             24.5032   YZ=            -34.1386

 Normal termination of Gaussian 09 at Tue Oct  8 21:36:06 2019.
