 Gaussian 09, Revision D.01,
 Gaussian 09:  ES64L-G09RevD.01 24-Apr-2013

 ----------------------------------------------------------------------
 # td=(NStates=1) iop(3/107=0140000000,3/108=0140000000) iop(3/107=0140
 000000,3/108=0140000000) CAM-B3LYP/6-31G(d,p)
 ----------------------------------------------------------------------

 --
 TD
 --
 Symbolic Z-matrix:
 Charge =  0 Multiplicity = 1

                         Standard orientation:
 ---------------------------------------------------------------------
 Center     Atomic      Atomic             Coordinates (Angstroms)
 Number     Number       Type             X           Y           Z
 ---------------------------------------------------------------------
      1         12           0       -5.587805    1.151124    0.185794
      2          6           0       -5.005882   -2.188556   -0.340994
      3          6           0       -3.410836    1.219787    2.861068
      4          6           0       -6.265960    4.542043    0.686310
      5          6           0       -8.040477    1.209006   -2.292568
      6          7           0       -4.329114   -0.332004    0.998405
      7          6           0       -4.238030   -1.590686    0.670882
      8          6           0       -3.234606   -2.303856    1.559406
      9          6           0       -2.837563   -1.218229    2.695192
     10          6           0       -3.601445   -0.015473    2.128636
     11          6           0       -3.436200   -1.562543    4.014798
     12          6           0       -1.975846   -2.765045    0.759553
     13          6           0       -0.931614   -3.573448    1.454831
     14          6           0        0.314491   -3.880301    0.536959
     15          8           0        0.357164   -3.431060   -0.552234
     16          8           0        1.087832   -4.669087    1.203427
     17          7           0       -4.865661    2.618591    1.403269
     18          6           0       -3.976914    2.441657    2.574448
     19          6           0       -3.729755    3.607168    3.150664
     20          6           0       -4.562929    4.545455    2.528244
     21          6           0       -5.220857    3.969549    1.412248
     22          6           0       -2.780971    3.831589    4.342263
     23          6           0       -4.612810    5.942283    2.875090
     24          8           0       -3.906568    6.497746    3.653630
     25          7           0       -6.934747    2.608978   -0.649514
     26          6           0       -7.012345    3.992851   -0.382965
     27          6           0       -8.017182    4.593111   -1.162139
     28          6           0       -8.493810    3.590636   -2.070702
     29          6           0       -7.712592    2.409120   -1.684052
     30          6           0       -8.244882    6.027003   -1.207474
     31          6           0       -9.389511    3.697616   -3.221119
     32          6           0       -8.743622    3.991183   -4.477913
     33          7           0       -6.328364   -0.150419   -1.103545
     34          6           0       -7.410560   -0.031030   -2.034870
     35          6           0       -7.524024   -1.281643   -2.671840
     36          6           0       -6.588832   -2.183038   -2.138388
     37          6           0       -6.026990   -1.410885   -1.053993
     38          6           0       -8.369193   -1.535929   -3.805525
     39          6           0       -6.199432   -3.546278   -2.019839
     40          8           0       -6.470319   -4.502033   -2.537087
     41          6           0       -4.974128   -3.608295   -0.931297
     42          6           0       -5.254605   -4.622375    0.112905
     43          8           0       -5.810151   -4.420878    1.214444
     44          8           0       -4.983543   -5.884195   -0.384962
     45          6           0       -5.432218   -7.025531    0.470463
     46          6           0        2.313982   -5.036898    0.469656
     47          6           0        3.370860   -4.211486    0.908014
     48          6           0        3.967835   -3.263401    0.194824
     49          6           0        3.700663   -2.924435   -1.249218
     50          6           0        5.123696   -2.471177    0.797434
     51          6           0        6.567298   -2.816182    0.035045
     52          6           0        7.700824   -1.929857    0.621780
     53          6           0        9.116505   -2.013075   -0.079757
     54          6           0        9.598578   -3.487108    0.021194
     55          6           0        9.990184   -0.907416    0.328902
     56          6           0       11.372039   -0.912283   -0.343968
     57          6           0       12.205507    0.235430    0.259362
     58          6           0       13.595863    0.434221   -0.358412
     59          6           0       14.506468   -0.822934   -0.086471
     60          6           0       14.255927    1.812403   -0.070737
     61          6           0       15.402994    2.236087   -0.900759
     62          6           0       15.859313    3.641346   -0.719327
     63          6           0       17.179996    4.035720   -1.337811
     64          6           0       16.812696    3.969830   -2.924390
     65          6           0       17.885487    5.303128   -0.948659
     66          1           0       -2.680471    1.090272    3.718173
     67          1           0       -6.687926    5.520162    1.094739
     68          1           0       -8.950406    1.075219   -2.935491
     69          1           0       -3.547610   -3.325774    1.811373
     70          1           0       -1.827624   -1.067264    2.786235
     71          1           0       -3.090553   -2.630846    4.573701
     72          1           0       -3.080227   -0.791102    4.634925
     73          1           0       -4.522825   -1.557637    3.822308
     74          1           0       -2.368589   -3.120662   -0.150814
     75          1           0       -1.532890   -1.669162    0.311207
     76          1           0       -0.407029   -3.089678    2.241222
     77          1           0       -1.359514   -4.473083    1.745087
     78          1           0       -1.830842    3.625772    4.060060
     79          1           0       -3.080259    4.817015    4.725629
     80          1           0       -3.182382    3.337467    5.307519
     81          1           0       -5.396916    6.623322    2.512402
     82          1           0       -9.944012    2.717350   -3.260518
     83          1           0      -10.070347    4.472740   -2.863847
     84          1           0       -9.640157    3.980356   -5.197253
     85          1           0       -8.078597    4.808888   -4.578961
     86          1           0       -7.842748    3.186113   -4.726271
     87          1           0       -8.148978   -0.986618   -4.709647
     88          1           0       -8.249770   -2.575688   -4.026066
     89          1           0       -9.434212   -1.378287   -3.548994
     90          1           0       -4.055359   -3.752690   -1.562893
     91          1           0        2.548751   -6.143242    0.747029
     92          1           0        2.111496   -4.867883   -0.646344
     93          1           0        3.810487   -4.233592    1.925809
     94          1           0        2.803863   -3.229617   -1.738965
     95          1           0        3.877609   -1.792421   -1.395480
     96          1           0        4.352669   -3.521771   -2.025747
     97          1           0        4.938853   -1.373027    0.732725
     98          1           0        5.140099   -2.660065    1.912514
     99          1           0        6.564912   -3.835409    0.110337
    100          1           0        6.277421   -2.422321   -1.059687
    101          1           0        7.546147   -0.829832    0.613152
    102          1           0        8.003881   -2.215567    1.578538
    103          1           0        8.750368   -1.770348   -1.146678
    104          1           0        9.087596   -4.270218   -0.535331
    105          1           0       10.561959   -3.392113   -0.351097
    106          1           0        9.704511   -3.778503    0.944751
    107          1           0        9.468914    0.084617    0.398942
    108          1           0       10.145244   -1.159210    1.443278
    109          1           0       11.835111   -1.727006   -0.181817
    110          1           0       11.307902   -0.661581   -1.520779
    111          1           0       11.569252    1.169127    0.450076
    112          1           0       12.188100    0.019890    1.364598
    113          1           0       13.454626    0.666871   -1.555158
    114          1           0       14.825375   -1.038219    0.878416
    115          1           0       14.059040   -1.739064   -0.479044
    116          1           0       15.354189   -0.518377   -0.649007
    117          1           0       13.413273    2.601380   -0.394880
    118          1           0       14.462748    1.998995    1.027730
    119          1           0       16.542891    1.711601   -0.828285
    120          1           0       15.023004    1.967227   -1.876989
    121          1           0       15.095742    4.409422   -1.042962
    122          1           0       16.247799    3.889214    0.368581
    123          1           0       18.088962    3.298879   -1.270340
    124          1           0       16.006207    4.625884   -3.395907
    125          1           0       17.661945    4.410057   -3.467845
    126          1           0       16.598453    2.877403   -3.294949
    127          1           0       18.065173    5.278066    0.070312
    128          1           0       18.874238    5.437038   -1.302323
    129          1           0       17.090575    6.059111   -1.584836
    130          1           0       -4.953781   -7.871740   -0.043226
    131          1           0       -6.605766   -7.272231    0.375674
    132          1           0       -5.042082   -6.798218    1.502189
    133          8           0       -7.789068    6.872922   -0.472209
    134          1           0       -8.978934    6.210795   -1.940594
 ---------------------------------------------------------------------

 SCF Done:  E(RCAM-B3LYP) =  -3043.43990502     A.U. after   16 cycles

 Excitation energies and oscillator strengths:

 Excited State   1:      Singlet-A      1.9789 eV  626.53 nm  f=0.1243  <S**2>=0.000
     243 -> 245        0.10681
     243 -> 246       -0.28008
     244 -> 245        0.62547
 This state for optimization and/or second-order correction.
 Total Energy, E(TD-HF/TD-KS) =  -3043.36718123
 Copying the excited state density for this state as the 1-particle RhoCI density.

 The electronic state is 1-A.
 Alpha  occ. eigenvalues --  -46.80875 -19.23293 -19.22014 -19.17821 -19.17150
 Alpha  occ. eigenvalues --  -19.16771 -19.16664 -19.15451 -14.38947 -14.36645
 Alpha  occ. eigenvalues --  -14.36410 -14.35711 -10.34804 -10.34151 -10.31340
 Alpha  occ. eigenvalues --  -10.29608 -10.28616 -10.28497 -10.28301 -10.27878
 Alpha  occ. eigenvalues --  -10.26883 -10.26114 -10.25940 -10.25872 -10.25740
 Alpha  occ. eigenvalues --  -10.25710 -10.24996 -10.24955 -10.24886 -10.24627
 Alpha  occ. eigenvalues --  -10.24506 -10.23923 -10.23906 -10.23733 -10.23664
 Alpha  occ. eigenvalues --  -10.23650 -10.23434 -10.23385 -10.22927 -10.22899
 Alpha  occ. eigenvalues --  -10.22886 -10.22750 -10.22637 -10.22573 -10.22560
 Alpha  occ. eigenvalues --  -10.22501 -10.22185 -10.22129 -10.22093 -10.22049
 Alpha  occ. eigenvalues --  -10.21998 -10.21963 -10.21777 -10.21771 -10.21742
 Alpha  occ. eigenvalues --  -10.21724 -10.21539 -10.21172 -10.21135 -10.21012
 Alpha  occ. eigenvalues --  -10.20866 -10.20829 -10.20806 -10.20691 -10.19705
 Alpha  occ. eigenvalues --  -10.18665  -3.09468  -1.84413  -1.83943  -1.83870
 Alpha  occ. eigenvalues --   -1.15508  -1.13559  -1.10516  -1.07328  -1.07142
 Alpha  occ. eigenvalues --   -1.06851  -1.02431  -1.01163  -1.00308  -0.99698
 Alpha  occ. eigenvalues --   -0.97042  -0.87374  -0.86575  -0.86491  -0.85895
 Alpha  occ. eigenvalues --   -0.85398  -0.85161  -0.84771  -0.84376  -0.83757
 Alpha  occ. eigenvalues --   -0.83049  -0.82223  -0.81247  -0.80391  -0.79726
 Alpha  occ. eigenvalues --   -0.79486  -0.78376  -0.77782  -0.76896  -0.76472
 Alpha  occ. eigenvalues --   -0.75444  -0.74801  -0.73862  -0.72707  -0.72258
 Alpha  occ. eigenvalues --   -0.71905  -0.71665  -0.71103  -0.69905  -0.69783
 Alpha  occ. eigenvalues --   -0.69654  -0.68843  -0.67436  -0.66600  -0.66244
 Alpha  occ. eigenvalues --   -0.65763  -0.64690  -0.63692  -0.62858  -0.61774
 Alpha  occ. eigenvalues --   -0.61306  -0.61079  -0.60188  -0.59144  -0.58628
 Alpha  occ. eigenvalues --   -0.58553  -0.57875  -0.57468  -0.56861  -0.56749
 Alpha  occ. eigenvalues --   -0.56419  -0.56156  -0.55395  -0.54716  -0.54443
 Alpha  occ. eigenvalues --   -0.53772  -0.53348  -0.53204  -0.52764  -0.52489
 Alpha  occ. eigenvalues --   -0.51861  -0.51620  -0.51395  -0.50997  -0.50917
 Alpha  occ. eigenvalues --   -0.50480  -0.50074  -0.49676  -0.49433  -0.48917
 Alpha  occ. eigenvalues --   -0.48828  -0.48736  -0.48666  -0.48482  -0.48406
 Alpha  occ. eigenvalues --   -0.47875  -0.47692  -0.47657  -0.47196  -0.46939
 Alpha  occ. eigenvalues --   -0.46735  -0.46703  -0.46211  -0.46132  -0.46060
 Alpha  occ. eigenvalues --   -0.45810  -0.45495  -0.45324  -0.45138  -0.44960
 Alpha  occ. eigenvalues --   -0.44863  -0.44721  -0.44502  -0.44010  -0.43886
 Alpha  occ. eigenvalues --   -0.43751  -0.43730  -0.43446  -0.43287  -0.43233
 Alpha  occ. eigenvalues --   -0.43041  -0.42789  -0.42490  -0.42209  -0.41984
 Alpha  occ. eigenvalues --   -0.41808  -0.41485  -0.41474  -0.41166  -0.40816
 Alpha  occ. eigenvalues --   -0.40772  -0.40431  -0.40302  -0.40109  -0.39944
 Alpha  occ. eigenvalues --   -0.39726  -0.39502  -0.39462  -0.39217  -0.39053
 Alpha  occ. eigenvalues --   -0.38976  -0.38838  -0.38432  -0.38349  -0.38083
 Alpha  occ. eigenvalues --   -0.37962  -0.37825  -0.37723  -0.37571  -0.37244
 Alpha  occ. eigenvalues --   -0.37217  -0.37182  -0.36553  -0.36432  -0.35444
 Alpha  occ. eigenvalues --   -0.35256  -0.34735  -0.34662  -0.34389  -0.34108
 Alpha  occ. eigenvalues --   -0.33542  -0.33437  -0.33038  -0.32733  -0.32435
 Alpha  occ. eigenvalues --   -0.32381  -0.32185  -0.31789  -0.31588  -0.31334
 Alpha  occ. eigenvalues --   -0.30723  -0.30324  -0.29982  -0.29728  -0.29496
 Alpha  occ. eigenvalues --   -0.28658  -0.28115  -0.27897  -0.27719  -0.27353
 Alpha  occ. eigenvalues --   -0.26560  -0.25988  -0.22485  -0.21761
 Alpha virt. eigenvalues --   -0.08791  -0.06652  -0.01164  -0.00023   0.01656
 Alpha virt. eigenvalues --    0.02656   0.02990   0.04014   0.04431   0.05269
 Alpha virt. eigenvalues --    0.06244   0.06802   0.08322   0.08748   0.09685

 Mulliken charges:
               1
     1  Mg   0.810885
     2  C    0.039490
     3  C   -0.192411
     4  C   -0.170365
     5  C   -0.176090
     6  N   -0.651283
     7  C    0.360307
     8  C   -0.162731
     9  C   -0.141893
    10  C    0.306437
    11  C   -0.270505
    12  C   -0.168496
    13  C   -0.261558
    14  C    0.593004
    15  O   -0.450027
    16  O   -0.429421
    17  N   -0.717735
    18  C    0.320667
    19  C    0.049953
    20  C   -0.067391
    21  C    0.324152
    22  C   -0.369283
    23  C    0.227719
    24  O   -0.407911
    25  N   -0.648332
    26  C    0.259364
    27  C   -0.039347
    28  C   -0.003222
    29  C    0.351039
    30  C    0.272134
    31  C   -0.230970
    32  C   -0.285651
    33  N   -0.730404
    34  C    0.288153
    35  C   -0.004759
    36  C    0.016071
    37  C    0.312408
    38  C   -0.399020
    39  C    0.358225
    40  O   -0.370653
    41  C   -0.334567
    42  C    0.634885
    43  O   -0.494269
    44  O   -0.469854
    45  C   -0.083764
    46  C   -0.047929
    47  C   -0.096640
    48  C    0.156830
    49  C   -0.380423
    50  C   -0.256749
    51  C   -0.165705
    52  C   -0.166300
    53  C   -0.071988
    54  C   -0.323543
    55  C   -0.182522
    56  C   -0.138578
    57  C   -0.180109
    58  C   -0.043195
    59  C   -0.323765
    60  C   -0.180941
    61  C   -0.137335
    62  C   -0.127695
    63  C   -0.067450
    64  C   -0.330673
    65  C   -0.289842
    66  H    0.097827
    67  H    0.141356
    68  H    0.097814
    69  H    0.114049
    70  H    0.113400
    71  H    0.078326
    72  H    0.106855
    73  H    0.125447
    74  H    0.110930
    75  H    0.061936
    76  H    0.130548
    77  H    0.128953
    78  H    0.132978
    79  H    0.160824
    80  H    0.105774
    81  H    0.064692
    82  H    0.109251
    83  H    0.117813
    84  H    0.108675
    85  H    0.131165
    86  H    0.083367
    87  H    0.136233
    88  H    0.140799
    89  H    0.121811
    90  H    0.162482
    91  H    0.113381
    92  H    0.136602
    93  H    0.079551
    94  H    0.141798
    95  H    0.108952
    96  H    0.104347
    97  H    0.100628
    98  H    0.086509
    99  H    0.113743
   100  H    0.089419
   101  H    0.081562
   102  H    0.093885
   103  H    0.065751
   104  H    0.110192
   105  H    0.104743
   106  H    0.111035
   107  H    0.097849
   108  H    0.071026
   109  H    0.110826
   110  H    0.072976
   111  H    0.073755
   112  H    0.080958
   113  H    0.053866
   114  H    0.116529
   115  H    0.104430
   116  H    0.113056
   117  H    0.077389
   118  H    0.083461
   119  H    0.061072
   120  H    0.095095
   121  H    0.088523
   122  H    0.065533
   123  H    0.071567
   124  H    0.090688
   125  H    0.090014
   126  H    0.096975
   127  H    0.109571
   128  H    0.115563
   129  H    0.074933
   130  H    0.130874
   131  H    0.121816
   132  H    0.139599
   133  O   -0.426336
   134  H    0.054558
 Sum of Mulliken charges =   0.00000

 Dipole moment (field-independent basis, Debye):
    X=              2.5280    Y=             -5.7084    Z=             -1.8533  Tot=              6.5123
 Quadrupole moment (field-independent basis, Debye-Ang):
   XX=           -349.3824   YY=           -435.2759   ZZ=           -392.6067
   XY=              3.2828   XZ=             34.0635   YZ=            -29.1887

 Normal termination of Gaussian 09 at Thu Oct  3 19:41:58 2019.
