 Gaussian 09, Revision D.01,
 Gaussian 09:  ES64L-G09RevD.01 24-Apr-2013

 ----------------------------------------------------------------------
 # td=(NStates=1) iop(3/107=0140000000,3/108=0140000000) iop(3/107=0140
 000000,3/108=0140000000) CAM-B3LYP/6-31G(d,p)
 ----------------------------------------------------------------------

 --
 TD
 --
 Symbolic Z-matrix:
 Charge =  0 Multiplicity = 1

                         Standard orientation:
 ---------------------------------------------------------------------
 Center     Atomic      Atomic             Coordinates (Angstroms)
 Number     Number       Type             X           Y           Z
 ---------------------------------------------------------------------
      1         12           0       -5.568047    1.297051    0.147286
      2          6           0       -4.966702   -2.037706   -0.343721
      3          6           0       -3.269825    1.195864    2.580018
      4          6           0       -6.086455    4.621861    0.620144
      5          6           0       -7.984193    1.200736   -2.341009
      6          7           0       -4.181016   -0.273191    0.956821
      7          6           0       -4.196492   -1.593839    0.609715
      8          6           0       -3.234155   -2.284918    1.532066
      9          6           0       -2.847825   -1.315921    2.525503
     10          6           0       -3.435611   -0.024791    1.987683
     11          6           0       -3.400382   -1.609535    3.868532
     12          6           0       -1.972648   -2.812456    0.632348
     13          6           0       -0.915171   -3.489119    1.433425
     14          6           0        0.221353   -4.036174    0.474635
     15          8           0        0.484310   -3.501928   -0.612433
     16          8           0        1.010204   -4.907843    1.097513
     17          7           0       -4.797475    2.688890    1.379242
     18          6           0       -3.806702    2.429355    2.376766
     19          6           0       -3.625669    3.668122    3.166019
     20          6           0       -4.427473    4.615011    2.551154
     21          6           0       -5.119121    3.960423    1.392866
     22          6           0       -2.683177    3.765914    4.331280
     23          6           0       -4.521932    5.980958    3.008703
     24          8           0       -3.976231    6.580957    3.811526
     25          7           0       -6.837864    2.643609   -0.705959
     26          6           0       -6.897679    3.910331   -0.303310
     27          6           0       -7.796427    4.620423   -1.167908
     28          6           0       -8.420736    3.736544   -1.997146
     29          6           0       -7.809109    2.454736   -1.694663
     30          6           0       -8.258840    6.044563   -1.114091
     31          6           0       -9.565439    3.731240   -3.072931
     32          6           0       -9.032262    3.981857   -4.375422
     33          7           0       -6.266055   -0.074193   -1.082862
     34          6           0       -7.355751    0.009973   -2.062272
     35          6           0       -7.684880   -1.291484   -2.610641
     36          6           0       -6.829610   -2.164893   -1.943378
     37          6           0       -6.054865   -1.455544   -1.017293
     38          6           0       -8.611336   -1.686781   -3.680070
     39          6           0       -6.266732   -3.548676   -1.917162
     40          8           0       -6.589168   -4.469570   -2.525464
     41          6           0       -5.111508   -3.514245   -0.800994
     42          6           0       -5.242860   -4.616268    0.140972
     43          8           0       -5.620144   -4.510289    1.295041
     44          8           0       -5.031862   -5.832822   -0.420563
     45          6           0       -5.389184   -6.821723    0.389523
     46          6           0        2.340581   -5.187301    0.487341
     47          6           0        3.328419   -4.263556    0.955411
     48          6           0        4.062501   -3.410012    0.145864
     49          6           0        3.832075   -3.203144   -1.289480
     50          6           0        5.167639   -2.549780    0.787872
     51          6           0        6.540638   -2.909140    0.107026
     52          6           0        7.580576   -1.958450    0.713021
     53          6           0        8.932720   -2.071774    0.076011
     54          6           0        9.539348   -3.380321    0.359399
     55          6           0        9.857312   -0.818812    0.417025
     56          6           0       11.272439   -0.845648   -0.232473
     57          6           0       12.066439    0.458482    0.151649
     58          6           0       13.407798    0.573310   -0.608679
     59          6           0       14.291988   -0.698451   -0.216863
     60          6           0       14.082384    1.934034   -0.286293
     61          6           0       15.282849    2.115530   -1.027373
     62          6           0       16.062272    3.459784   -0.768217
     63          6           0       17.308245    3.861271   -1.450430
     64          6           0       17.096515    4.232094   -2.959630
     65          6           0       17.977081    5.039878   -0.774375
     66          1           0       -2.476762    1.160897    3.235476
     67          1           0       -6.320151    5.646359    0.972795
     68          1           0       -8.665349    1.153513   -3.223264
     69          1           0       -4.035567   -3.167403    1.839882
     70          1           0       -1.828104   -1.352720    2.579806
     71          1           0       -2.868177   -2.473531    4.312396
     72          1           0       -3.017555   -0.616510    4.620803
     73          1           0       -4.495014   -1.678380    4.025520
     74          1           0       -2.303929   -3.320754   -0.138944
     75          1           0       -1.294033   -1.916709    0.330154
     76          1           0       -0.419876   -2.908681    2.207048
     77          1           0       -1.383472   -4.242202    2.114591
     78          1           0       -1.585686    3.629274    3.892904
     79          1           0       -2.928790    4.824910    4.641436
     80          1           0       -2.946270    2.983525    5.003275
     81          1           0       -5.372720    6.506004    2.330519
     82          1           0       -9.760697    2.658160   -3.136697
     83          1           0      -10.476444    4.273395   -2.951896
     84          1           0       -9.753275    3.967694   -5.086560
     85          1           0       -8.384121    4.871996   -4.588561
     86          1           0       -8.508537    3.196049   -4.796564
     87          1           0       -8.726054   -0.853244   -4.558744
     88          1           0       -8.472279   -2.692690   -3.946992
     89          1           0       -9.681772   -1.732705   -3.388752
     90          1           0       -4.245705   -3.430548   -1.572849
     91          1           0        2.317556   -6.472749    0.821807
     92          1           0        2.094300   -5.096571   -0.646501
     93          1           0        3.588983   -4.213172    1.999031
     94          1           0        2.834233   -3.370805   -1.527616
     95          1           0        3.935713   -2.193123   -1.578355
     96          1           0        4.290827   -3.907530   -1.825519
     97          1           0        4.857762   -1.494161    0.447083
     98          1           0        5.224816   -2.554487    1.917879
     99          1           0        6.644048   -3.888947    0.561780
    100          1           0        6.473061   -2.764940   -0.936679
    101          1           0        7.367985   -1.000378    0.769407
    102          1           0        7.684943   -2.128552    1.751573
    103          1           0        8.811869   -1.784562   -0.845040
    104          1           0        9.053317   -4.166283   -0.240331
    105          1           0       10.728103   -3.669487   -0.240900
    106          1           0        9.854103   -3.247656    1.446901
    107          1           0        9.374507    0.256365    0.119902
    108          1           0       10.164310   -0.705831    1.465791
    109          1           0       11.653181   -1.833771    0.255213
    110          1           0       11.106442   -0.891498   -1.220554
    111          1           0       11.553778    1.408491   -0.092543
    112          1           0       12.141022    0.546290    1.226125
    113          1           0       13.243663    0.753700   -1.870121
    114          1           0       14.269455   -0.857828    0.938092
    115          1           0       13.922754   -1.705705   -0.717950
    116          1           0       15.495799   -0.541277   -0.517956
    117          1           0       13.287549    2.761629   -0.511889
    118          1           0       14.150600    1.779058    0.702291
    119          1           0       15.981849    1.192778   -0.936938
    120          1           0       15.193073    2.263503   -2.105333
    121          1           0       15.213707    4.213654   -1.107533
    122          1           0       16.135390    3.340198    0.525786
    123          1           0       18.174378    3.013993   -1.394484
    124          1           0       16.370196    5.078454   -3.077738
    125          1           0       18.113781    4.399715   -3.413131
    126          1           0       16.496209    3.450385   -3.681654
    127          1           0       18.096742    5.133536    0.243397
    128          1           0       19.025561    5.214299   -1.188828
    129          1           0       17.237602    5.887122   -0.900181
    130          1           0       -5.136823   -7.776161   -0.050648
    131          1           0       -6.540103   -6.919727    0.796592
    132          1           0       -4.904746   -6.738643    1.263432
    133          8           0       -7.757259    6.875338   -0.359914
    134          1           0       -8.979041    6.402822   -1.821093
 ---------------------------------------------------------------------

 SCF Done:  E(RCAM-B3LYP) =  -3043.35574385     A.U. after   15 cycles

 Excitation energies and oscillator strengths:

 Excited State   1:      Singlet-A      2.1030 eV  589.55 nm  f=0.1681  <S**2>=0.000
     243 -> 246       -0.25814
     244 -> 245        0.65150
 This state for optimization and/or second-order correction.
 Total Energy, E(TD-HF/TD-KS) =  -3043.27845858
 Copying the excited state density for this state as the 1-particle RhoCI density.

 The electronic state is 1-A.
 Alpha  occ. eigenvalues --  -46.80665 -19.23466 -19.21997 -19.18211 -19.18153
 Alpha  occ. eigenvalues --  -19.17828 -19.17011 -19.16347 -14.37874 -14.36565
 Alpha  occ. eigenvalues --  -14.36503 -14.36256 -10.35936 -10.35261 -10.32023
 Alpha  occ. eigenvalues --  -10.30078 -10.29748 -10.29689 -10.26928 -10.26886
 Alpha  occ. eigenvalues --  -10.26284 -10.26039 -10.25991 -10.25986 -10.25867
 Alpha  occ. eigenvalues --  -10.25864 -10.25602 -10.25466 -10.25391 -10.24898
 Alpha  occ. eigenvalues --  -10.24845 -10.24389 -10.24227 -10.23959 -10.23919
 Alpha  occ. eigenvalues --  -10.23853 -10.23669 -10.23575 -10.23353 -10.23330
 Alpha  occ. eigenvalues --  -10.23270 -10.23241 -10.23201 -10.23103 -10.23044
 Alpha  occ. eigenvalues --  -10.22943 -10.22798 -10.22737 -10.22726 -10.22718
 Alpha  occ. eigenvalues --  -10.22409 -10.22153 -10.22123 -10.21856 -10.21734
 Alpha  occ. eigenvalues --  -10.21667 -10.21613 -10.21138 -10.20490 -10.20457
 Alpha  occ. eigenvalues --  -10.20300 -10.20053 -10.20026 -10.19630 -10.19393
 Alpha  occ. eigenvalues --  -10.19259  -3.09363  -1.84294  -1.83831  -1.83782
 Alpha  occ. eigenvalues --   -1.16678  -1.12606  -1.11772  -1.11615  -1.06501
 Alpha  occ. eigenvalues --   -1.05568  -1.03479  -1.01988  -1.00037  -0.99030
 Alpha  occ. eigenvalues --   -0.97346  -0.88883  -0.87172  -0.86612  -0.85847
 Alpha  occ. eigenvalues --   -0.85763  -0.85287  -0.85211  -0.84002  -0.83427
 Alpha  occ. eigenvalues --   -0.83246  -0.83063  -0.82164  -0.80856  -0.80489
 Alpha  occ. eigenvalues --   -0.80033  -0.79051  -0.78437  -0.78133  -0.77309
 Alpha  occ. eigenvalues --   -0.75450  -0.75078  -0.74184  -0.72926  -0.72645
 Alpha  occ. eigenvalues --   -0.72056  -0.70519  -0.69943  -0.69743  -0.69442
 Alpha  occ. eigenvalues --   -0.69282  -0.68868  -0.67195  -0.66630  -0.66137
 Alpha  occ. eigenvalues --   -0.65614  -0.64755  -0.63795  -0.63167  -0.62913
 Alpha  occ. eigenvalues --   -0.62280  -0.61571  -0.61348  -0.59758  -0.59549
 Alpha  occ. eigenvalues --   -0.58401  -0.58278  -0.57376  -0.57186  -0.57104
 Alpha  occ. eigenvalues --   -0.56594  -0.56388  -0.56295  -0.55806  -0.54927
 Alpha  occ. eigenvalues --   -0.54432  -0.53616  -0.53155  -0.52970  -0.52533
 Alpha  occ. eigenvalues --   -0.52280  -0.52104  -0.51718  -0.51616  -0.50909
 Alpha  occ. eigenvalues --   -0.50528  -0.50313  -0.50187  -0.49840  -0.49153
 Alpha  occ. eigenvalues --   -0.49054  -0.48734  -0.48610  -0.48538  -0.48264
 Alpha  occ. eigenvalues --   -0.48024  -0.47961  -0.47824  -0.47611  -0.47505
 Alpha  occ. eigenvalues --   -0.47319  -0.47012  -0.46811  -0.46725  -0.46618
 Alpha  occ. eigenvalues --   -0.46534  -0.45896  -0.45774  -0.45572  -0.45303
 Alpha  occ. eigenvalues --   -0.45016  -0.44566  -0.44519  -0.44242  -0.44074
 Alpha  occ. eigenvalues --   -0.43820  -0.43499  -0.43335  -0.43084  -0.42945
 Alpha  occ. eigenvalues --   -0.42908  -0.42624  -0.42349  -0.42121  -0.41990
 Alpha  occ. eigenvalues --   -0.41861  -0.41624  -0.41518  -0.41469  -0.41429
 Alpha  occ. eigenvalues --   -0.41205  -0.41030  -0.40654  -0.40485  -0.40272
 Alpha  occ. eigenvalues --   -0.39839  -0.39776  -0.39762  -0.39352  -0.38987
 Alpha  occ. eigenvalues --   -0.38854  -0.38734  -0.38122  -0.38065  -0.37901
 Alpha  occ. eigenvalues --   -0.37660  -0.37535  -0.37325  -0.37016  -0.36558
 Alpha  occ. eigenvalues --   -0.36452  -0.36209  -0.36061  -0.35767  -0.35680
 Alpha  occ. eigenvalues --   -0.35405  -0.35207  -0.35057  -0.34810  -0.34764
 Alpha  occ. eigenvalues --   -0.34108  -0.33467  -0.33420  -0.33263  -0.32981
 Alpha  occ. eigenvalues --   -0.32826  -0.32336  -0.32241  -0.32137  -0.31548
 Alpha  occ. eigenvalues --   -0.31505  -0.30974  -0.30300  -0.29925  -0.29523
 Alpha  occ. eigenvalues --   -0.28805  -0.28471  -0.28300  -0.27564  -0.27353
 Alpha  occ. eigenvalues --   -0.27138  -0.27063  -0.23147  -0.21366
 Alpha virt. eigenvalues --   -0.08042  -0.06182  -0.01063   0.00394   0.01128
 Alpha virt. eigenvalues --    0.01254   0.02286   0.03540   0.03999   0.04730
 Alpha virt. eigenvalues --    0.05281   0.06916   0.08036   0.08730   0.09232

 Mulliken charges:
               1
     1  Mg   0.818337
     2  C    0.033005
     3  C   -0.196983
     4  C   -0.163557
     5  C   -0.175784
     6  N   -0.618097
     7  C    0.308234
     8  C   -0.189937
     9  C   -0.121698
    10  C    0.370541
    11  C   -0.285138
    12  C   -0.152433
    13  C   -0.280035
    14  C    0.593935
    15  O   -0.482542
    16  O   -0.453257
    17  N   -0.733859
    18  C    0.303098
    19  C    0.057154
    20  C   -0.070121
    21  C    0.373696
    22  C   -0.368815
    23  C    0.250832
    24  O   -0.370540
    25  N   -0.698160
    26  C    0.333747
    27  C   -0.089969
    28  C    0.059383
    29  C    0.262822
    30  C    0.248939
    31  C   -0.237409
    32  C   -0.312899
    33  N   -0.690155
    34  C    0.250229
    35  C    0.067061
    36  C    0.008709
    37  C    0.251942
    38  C   -0.398817
    39  C    0.349613
    40  O   -0.393469
    41  C   -0.328960
    42  C    0.630183
    43  O   -0.480638
    44  O   -0.398150
    45  C   -0.082670
    46  C   -0.019477
    47  C   -0.090934
    48  C    0.116317
    49  C   -0.388584
    50  C   -0.242578
    51  C   -0.176156
    52  C   -0.160248
    53  C   -0.041781
    54  C   -0.286329
    55  C   -0.222338
    56  C   -0.157634
    57  C   -0.181200
    58  C   -0.044652
    59  C   -0.301273
    60  C   -0.136085
    61  C   -0.170035
    62  C   -0.137249
    63  C   -0.044196
    64  C   -0.303332
    65  C   -0.289501
    66  H    0.072774
    67  H    0.145546
    68  H    0.089685
    69  H    0.135684
    70  H    0.106597
    71  H    0.114751
    72  H    0.051317
    73  H    0.132343
    74  H    0.112682
    75  H    0.115127
    76  H    0.138900
    77  H    0.117332
    78  H    0.120367
    79  H    0.155548
    80  H    0.134023
    81  H    0.013860
    82  H    0.109720
    83  H    0.122112
    84  H    0.110424
    85  H    0.108788
    86  H    0.111212
    87  H    0.105460
    88  H    0.154534
    89  H    0.134519
    90  H    0.175853
    91  H    0.085012
    92  H    0.127911
    93  H    0.082069
    94  H    0.156099
    95  H    0.117607
    96  H    0.137007
    97  H    0.091931
    98  H    0.098602
    99  H    0.118711
   100  H    0.110759
   101  H    0.097809
   102  H    0.084179
   103  H    0.096310
   104  H    0.126672
   105  H    0.030369
   106  H    0.114930
   107  H    0.059863
   108  H    0.078974
   109  H    0.091645
   110  H    0.102862
   111  H    0.085380
   112  H    0.092945
   113  H    0.042663
   114  H    0.094868
   115  H    0.107260
   116  H    0.074769
   117  H    0.075785
   118  H    0.099521
   119  H    0.078527
   120  H    0.089911
   121  H    0.067229
   122  H    0.039842
   123  H    0.065631
   124  H    0.105141
   125  H    0.107652
   126  H    0.079209
   127  H    0.114858
   128  H    0.089608
   129  H    0.087125
   130  H    0.113210
   131  H    0.088874
   132  H    0.125425
   133  O   -0.422088
   134  H    0.078073
 Sum of Mulliken charges =   0.00000

 Dipole moment (field-independent basis, Debye):
    X=              2.0465    Y=             -4.8099    Z=             -1.2689  Tot=              5.3790
 Quadrupole moment (field-independent basis, Debye-Ang):
   XX=           -380.0961   YY=           -450.0853   ZZ=           -391.3268
   XY=             10.3168   XZ=             26.7294   YZ=            -28.4479

 Normal termination of Gaussian 09 at Sat Oct  5 06:17:21 2019.
