 Gaussian 09, Revision D.01,
 Gaussian 09:  ES64L-G09RevD.01 24-Apr-2013

 ----------------------------------------------------------------------
 # td=(NStates=1) iop(3/107=0140000000,3/108=0140000000) iop(3/107=0140
 000000,3/108=0140000000) CAM-B3LYP/6-31G(d,p)
 ----------------------------------------------------------------------

 --
 TD
 --
 Symbolic Z-matrix:
 Charge =  0 Multiplicity = 1

                         Standard orientation:
 ---------------------------------------------------------------------
 Center     Atomic      Atomic             Coordinates (Angstroms)
 Number     Number       Type             X           Y           Z
 ---------------------------------------------------------------------
      1         12           0       -5.551924    1.256694    0.241882
      2          6           0       -5.097110   -2.103760   -0.299240
      3          6           0       -3.465987    1.135868    2.833689
      4          6           0       -6.174386    4.600154    0.784263
      5          6           0       -7.860975    1.271302   -2.440980
      6          7           0       -4.400702   -0.283667    1.092648
      7          6           0       -4.243044   -1.617749    0.722422
      8          6           0       -3.186813   -2.373259    1.490189
      9          6           0       -2.912691   -1.357942    2.613049
     10          6           0       -3.616841   -0.081549    2.178421
     11          6           0       -3.379347   -1.807538    3.957240
     12          6           0       -2.006137   -2.695785    0.695012
     13          6           0       -1.029981   -3.696348    1.438136
     14          6           0        0.251046   -3.925258    0.608877
     15          8           0        0.484497   -3.422171   -0.423385
     16          8           0        1.035053   -4.813224    1.268977
     17          7           0       -4.854232    2.559824    1.488629
     18          6           0       -3.969099    2.340832    2.446052
     19          6           0       -3.656105    3.634432    3.167639
     20          6           0       -4.541105    4.583710    2.536430
     21          6           0       -5.238680    3.897333    1.488786
     22          6           0       -2.607832    3.795323    4.190460
     23          6           0       -4.535279    6.022755    2.886779
     24          8           0       -3.827902    6.556415    3.725238
     25          7           0       -6.787510    2.699213   -0.700362
     26          6           0       -6.927770    3.981924   -0.282918
     27          6           0       -7.756806    4.666679   -1.136986
     28          6           0       -8.289767    3.775289   -2.098067
     29          6           0       -7.612451    2.507200   -1.763996
     30          6           0       -8.292754    6.095309   -1.075471
     31          6           0       -9.202189    3.822276   -3.220121
     32          6           0       -8.628415    4.060272   -4.638714
     33          7           0       -6.472091   -0.118463   -1.000530
     34          6           0       -7.362369   -0.045214   -2.042267
     35          6           0       -7.546880   -1.317983   -2.680067
     36          6           0       -6.765985   -2.161186   -2.043825
     37          6           0       -6.096402   -1.441469   -0.937231
     38          6           0       -8.556932   -1.616793   -3.695831
     39          6           0       -6.251041   -3.549384   -2.085157
     40          8           0       -6.569375   -4.421961   -2.833432
     41          6           0       -5.125415   -3.523705   -0.898634
     42          6           0       -5.408007   -4.660070    0.043393
     43          8           0       -5.815945   -4.500075    1.129207
     44          8           0       -5.061672   -5.875688   -0.524618
     45          6           0       -5.460439   -6.927608    0.369567
     46          6           0        2.280356   -5.094657    0.548720
     47          6           0        3.325247   -3.983288    1.007631
     48          6           0        4.043628   -3.272525    0.222556
     49          6           0        3.640925   -3.114791   -1.257727
     50          6           0        5.168992   -2.345631    0.690653
     51          6           0        6.535183   -2.582821    0.228566
     52          6           0        7.624462   -1.750010    0.783471
     53          6           0        8.943455   -1.953031   -0.093702
     54          6           0        9.495212   -3.461311    0.096937
     55          6           0        9.956449   -0.992075    0.434738
     56          6           0       11.313668   -0.947767   -0.334270
     57          6           0       12.215931    0.310675    0.153715
     58          6           0       13.521382    0.448621   -0.579969
     59          6           0       14.488160   -0.807568   -0.395335
     60          6           0       14.220623    1.707599   -0.185711
     61          6           0       15.470475    2.053450   -0.982455
     62          6           0       16.037973    3.517060   -0.632854
     63          6           0       17.346514    3.888683   -1.371762
     64          6           0       17.033682    4.069246   -2.938013
     65          6           0       17.783612    5.164317   -0.769832
     66          1           0       -3.005068    1.201894    3.804103
     67          1           0       -6.277412    5.685730    0.832594
     68          1           0       -8.454416    1.208036   -3.274139
     69          1           0       -3.871513   -3.236743    1.974316
     70          1           0       -1.819792   -0.947364    2.794707
     71          1           0       -2.737262   -2.623085    4.398923
     72          1           0       -3.322606   -0.997466    4.915251
     73          1           0       -4.554586   -2.268800    4.018967
     74          1           0       -2.244134   -3.278974   -0.196973
     75          1           0       -1.468357   -1.694600    0.255986
     76          1           0       -0.965660   -3.431723    2.565052
     77          1           0       -1.347003   -4.755303    1.326296
     78          1           0       -1.618946    3.259891    3.782389
     79          1           0       -2.691540    4.818459    4.417489
     80          1           0       -2.785068    3.095257    5.180287
     81          1           0       -5.323247    6.434465    2.308534
     82          1           0       -9.917790    3.054773   -3.140864
     83          1           0       -9.940026    4.780075   -3.141536
     84          1           0       -9.313592    4.136241   -5.352248
     85          1           0       -8.277637    5.139245   -4.756052
     86          1           0       -7.668257    3.332058   -4.827493
     87          1           0       -8.537603   -1.051207   -4.737084
     88          1           0       -8.411071   -2.666405   -4.080153
     89          1           0       -9.577733   -1.501241   -3.500079
     90          1           0       -4.279708   -3.704056   -1.547413
     91          1           0        2.616005   -5.974764    0.885225
     92          1           0        2.230613   -5.207329   -0.419404
     93          1           0        3.647898   -3.896013    2.036708
     94          1           0        2.771673   -3.458582   -1.376218
     95          1           0        3.724436   -2.131645   -1.522193
     96          1           0        4.133566   -3.673450   -1.964282
     97          1           0        4.877800   -1.305632    0.356336
     98          1           0        5.276237   -2.376411    1.720592
     99          1           0        6.563669   -3.761331    0.217447
    100          1           0        6.515033   -2.376086   -0.863077
    101          1           0        7.320345   -0.657487    0.686211
    102          1           0        7.820626   -2.009795    1.802960
    103          1           0        8.609024   -1.500884   -1.035461
    104          1           0        8.736765   -4.091896   -0.278174
    105          1           0       10.377138   -3.487735   -0.452130
    106          1           0        9.774134   -3.676623    1.140097
    107          1           0        9.306014   -0.008406    0.329826
    108          1           0        9.977451   -0.852608    1.564221
    109          1           0       11.856824   -1.970857   -0.155296
    110          1           0       11.057738   -1.045996   -1.461716
    111          1           0       11.378878    1.212603   -0.143547
    112          1           0       12.304970    0.357395    1.216639
    113          1           0       13.191779    0.386187   -1.648488
    114          1           0       14.749007   -0.603094    0.626378
    115          1           0       13.861171   -1.961774   -0.503590
    116          1           0       15.411844   -0.771620   -0.960657
    117          1           0       13.486575    2.575153   -0.281492
    118          1           0       14.584656    1.585253    0.730539
    119          1           0       16.363255    1.302698   -0.776104
    120          1           0       15.319751    1.911875   -2.108830
    121          1           0       15.393134    4.317598   -0.738150
    122          1           0       16.024909    3.561375    0.430457
    123          1           0       18.084385    3.051796   -1.483864
    124          1           0       16.123128    4.587058   -3.058494
    125          1           0       17.958868    4.499610   -3.337222
    126          1           0       16.716969    3.033827   -3.289204
    127          1           0       17.850538    4.916090    0.270805
    128          1           0       18.539023    5.890550   -1.358747
    129          1           0       16.983547    5.889999   -0.857224
    130          1           0       -5.101974   -7.754024   -0.170346
    131          1           0       -6.602657   -7.051750    0.550750
    132          1           0       -4.995809   -6.844225    1.433152
    133          8           0       -7.798329    6.868908   -0.270762
    134          1           0       -9.106304    6.312074   -1.827911
 ---------------------------------------------------------------------

 SCF Done:  E(RCAM-B3LYP) =  -3043.46890647     A.U. after   16 cycles

 Excitation energies and oscillator strengths:

 Excited State   1:      Singlet-A      2.0902 eV  593.17 nm  f=0.1620  <S**2>=0.000
     243 -> 246       -0.29048
     244 -> 245        0.63800
 This state for optimization and/or second-order correction.
 Total Energy, E(TD-HF/TD-KS) =  -3043.39209268
 Copying the excited state density for this state as the 1-particle RhoCI density.

 The electronic state is 1-A.
 Alpha  occ. eigenvalues --  -46.80866 -19.22905 -19.22531 -19.18328 -19.18260
 Alpha  occ. eigenvalues --  -19.17973 -19.17540 -19.17516 -14.39243 -14.36722
 Alpha  occ. eigenvalues --  -14.36392 -14.36071 -10.35149 -10.35061 -10.32091
 Alpha  occ. eigenvalues --  -10.31083 -10.29941 -10.28014 -10.27662 -10.27660
 Alpha  occ. eigenvalues --  -10.26690 -10.26224 -10.26120 -10.25846 -10.25576
 Alpha  occ. eigenvalues --  -10.25471 -10.25460 -10.25433 -10.25407 -10.25140
 Alpha  occ. eigenvalues --  -10.24902 -10.24899 -10.24669 -10.24566 -10.24244
 Alpha  occ. eigenvalues --  -10.23982 -10.23895 -10.23887 -10.23630 -10.23285
 Alpha  occ. eigenvalues --  -10.23266 -10.22946 -10.22648 -10.22588 -10.22587
 Alpha  occ. eigenvalues --  -10.22560 -10.22232 -10.22039 -10.21964 -10.21960
 Alpha  occ. eigenvalues --  -10.21940 -10.21844 -10.21780 -10.21682 -10.21651
 Alpha  occ. eigenvalues --  -10.21272 -10.21102 -10.20874 -10.20705 -10.20455
 Alpha  occ. eigenvalues --  -10.20341 -10.20182 -10.20159 -10.19848 -10.19813
 Alpha  occ. eigenvalues --  -10.17286  -3.09579  -1.84510  -1.84050  -1.83999
 Alpha  occ. eigenvalues --   -1.14592  -1.14484  -1.09038  -1.06917  -1.06829
 Alpha  occ. eigenvalues --   -1.06693  -1.06570  -1.00855  -0.99825  -0.99584
 Alpha  occ. eigenvalues --   -0.98750  -0.88202  -0.86733  -0.86487  -0.85458
 Alpha  occ. eigenvalues --   -0.85363  -0.84431  -0.84394  -0.84138  -0.83482
 Alpha  occ. eigenvalues --   -0.82922  -0.82490  -0.81675  -0.80767  -0.79821
 Alpha  occ. eigenvalues --   -0.78475  -0.77900  -0.77368  -0.76978  -0.76561
 Alpha  occ. eigenvalues --   -0.74788  -0.74466  -0.74384  -0.72845  -0.72396
 Alpha  occ. eigenvalues --   -0.71850  -0.71083  -0.70994  -0.69921  -0.69759
 Alpha  occ. eigenvalues --   -0.69459  -0.68711  -0.67295  -0.67099  -0.66761
 Alpha  occ. eigenvalues --   -0.65914  -0.65140  -0.63860  -0.62104  -0.61761
 Alpha  occ. eigenvalues --   -0.61482  -0.61053  -0.60115  -0.59659  -0.59171
 Alpha  occ. eigenvalues --   -0.58750  -0.58618  -0.58024  -0.57725  -0.57077
 Alpha  occ. eigenvalues --   -0.56550  -0.56173  -0.55671  -0.55533  -0.54871
 Alpha  occ. eigenvalues --   -0.54395  -0.53419  -0.52671  -0.52324  -0.52155
 Alpha  occ. eigenvalues --   -0.52080  -0.51546  -0.51221  -0.50964  -0.50731
 Alpha  occ. eigenvalues --   -0.50255  -0.49893  -0.49656  -0.49201  -0.49140
 Alpha  occ. eigenvalues --   -0.48832  -0.48575  -0.48472  -0.47922  -0.47748
 Alpha  occ. eigenvalues --   -0.47628  -0.47476  -0.47265  -0.47116  -0.46866
 Alpha  occ. eigenvalues --   -0.46432  -0.46385  -0.46280  -0.45988  -0.45866
 Alpha  occ. eigenvalues --   -0.45768  -0.45633  -0.45435  -0.45167  -0.45022
 Alpha  occ. eigenvalues --   -0.44672  -0.44340  -0.44251  -0.43872  -0.43799
 Alpha  occ. eigenvalues --   -0.43548  -0.43484  -0.43241  -0.42903  -0.42641
 Alpha  occ. eigenvalues --   -0.42614  -0.42503  -0.42378  -0.42306  -0.41945
 Alpha  occ. eigenvalues --   -0.41839  -0.41727  -0.41642  -0.41310  -0.41289
 Alpha  occ. eigenvalues --   -0.41109  -0.40915  -0.40864  -0.40531  -0.40342
 Alpha  occ. eigenvalues --   -0.40283  -0.40094  -0.40019  -0.39854  -0.39715
 Alpha  occ. eigenvalues --   -0.39681  -0.39278  -0.39078  -0.38952  -0.38413
 Alpha  occ. eigenvalues --   -0.38157  -0.38000  -0.37844  -0.37628  -0.37186
 Alpha  occ. eigenvalues --   -0.36603  -0.36281  -0.36169  -0.35748  -0.35470
 Alpha  occ. eigenvalues --   -0.35371  -0.35048  -0.34956  -0.34460  -0.34392
 Alpha  occ. eigenvalues --   -0.34048  -0.33839  -0.33748  -0.33694  -0.33275
 Alpha  occ. eigenvalues --   -0.33141  -0.32261  -0.32130  -0.31783  -0.31502
 Alpha  occ. eigenvalues --   -0.31322  -0.31264  -0.31204  -0.30466  -0.30046
 Alpha  occ. eigenvalues --   -0.28702  -0.28194  -0.28120  -0.27930  -0.27732
 Alpha  occ. eigenvalues --   -0.27666  -0.27015  -0.22781  -0.21088
 Alpha virt. eigenvalues --   -0.07671  -0.06293  -0.02047  -0.00619   0.00801
 Alpha virt. eigenvalues --    0.03385   0.03597   0.04392   0.04757   0.04930
 Alpha virt. eigenvalues --    0.05476   0.05639   0.08393   0.08688   0.09154

 Mulliken charges:
               1
     1  Mg   0.828170
     2  C    0.058976
     3  C   -0.194860
     4  C   -0.174919
     5  C   -0.149684
     6  N   -0.626313
     7  C    0.274129
     8  C   -0.144217
     9  C   -0.136265
    10  C    0.374380
    11  C   -0.301763
    12  C   -0.158720
    13  C   -0.278213
    14  C    0.605499
    15  O   -0.432468
    16  O   -0.474871
    17  N   -0.764341
    18  C    0.343899
    19  C    0.043551
    20  C   -0.078885
    21  C    0.358238
    22  C   -0.382928
    23  C    0.290122
    24  O   -0.433317
    25  N   -0.687602
    26  C    0.298661
    27  C   -0.074306
    28  C    0.064381
    29  C    0.287142
    30  C    0.266434
    31  C   -0.273337
    32  C   -0.295511
    33  N   -0.686901
    34  C    0.249339
    35  C    0.059238
    36  C    0.025517
    37  C    0.268228
    38  C   -0.416997
    39  C    0.357979
    40  O   -0.422929
    41  C   -0.348342
    42  C    0.640112
    43  O   -0.441207
    44  O   -0.457313
    45  C   -0.090636
    46  C    0.015089
    47  C   -0.169733
    48  C    0.147259
    49  C   -0.361258
    50  C   -0.224763
    51  C   -0.162383
    52  C   -0.177311
    53  C   -0.068368
    54  C   -0.317019
    55  C   -0.158266
    56  C   -0.181515
    57  C   -0.157457
    58  C   -0.056267
    59  C   -0.304159
    60  C   -0.157863
    61  C   -0.190336
    62  C   -0.178226
    63  C   -0.054052
    64  C   -0.315490
    65  C   -0.302634
    66  H    0.079088
    67  H    0.148768
    68  H    0.081633
    69  H    0.140671
    70  H    0.113358
    71  H    0.113950
    72  H    0.087479
    73  H    0.100454
    74  H    0.117609
    75  H    0.115342
    76  H    0.128192
    77  H    0.141820
    78  H    0.119662
    79  H    0.165663
    80  H    0.100806
    81  H    0.080151
    82  H    0.128399
    83  H    0.076376
    84  H    0.125505
    85  H    0.103130
    86  H    0.096331
    87  H    0.101350
    88  H    0.141299
    89  H    0.146095
    90  H    0.163493
    91  H    0.122295
    92  H    0.128744
    93  H    0.075069
    94  H    0.134549
    95  H    0.111554
    96  H    0.107066
    97  H    0.086358
    98  H    0.090634
    99  H    0.077605
   100  H    0.083191
   101  H    0.084723
   102  H    0.096231
   103  H    0.095238
   104  H    0.111865
   105  H    0.111171
   106  H    0.106266
   107  H    0.052788
   108  H    0.082032
   109  H    0.082377
   110  H    0.087530
   111  H    0.062716
   112  H    0.097547
   113  H    0.081594
   114  H    0.102965
   115  H    0.065594
   116  H    0.115708
   117  H    0.090002
   118  H    0.104247
   119  H    0.075237
   120  H    0.083940
   121  H    0.097879
   122  H    0.084799
   123  H    0.085392
   124  H    0.105836
   125  H    0.103810
   126  H    0.091043
   127  H    0.108463
   128  H    0.078117
   129  H    0.103454
   130  H    0.127453
   131  H    0.120997
   132  H    0.117092
   133  O   -0.421593
   134  H    0.081405
 Sum of Mulliken charges =   0.00000

 Dipole moment (field-independent basis, Debye):
    X=              1.6613    Y=             -4.9395    Z=             -0.9271  Tot=              5.2932
 Quadrupole moment (field-independent basis, Debye-Ang):
   XX=           -386.4546   YY=           -431.7301   ZZ=           -394.9060
   XY=              7.2588   XZ=             26.4752   YZ=            -34.7085

 Normal termination of Gaussian 09 at Tue Oct  8 11:37:35 2019.
