 Gaussian 09, Revision D.01,
 Gaussian 09:  ES64L-G09RevD.01 24-Apr-2013

 ----------------------------------------------------------------------
 # td=(NStates=1) iop(3/107=0140000000,3/108=0140000000) iop(3/107=0140
 000000,3/108=0140000000) CAM-B3LYP/6-31G(d,p)
 ----------------------------------------------------------------------

 --
 TD
 --
 Symbolic Z-matrix:
 Charge =  0 Multiplicity = 1

                         Standard orientation:
 ---------------------------------------------------------------------
 Center     Atomic      Atomic             Coordinates (Angstroms)
 Number     Number       Type             X           Y           Z
 ---------------------------------------------------------------------
      1         12           0       -5.577993    1.265697    0.146668
      2          6           0       -5.147633   -2.111244   -0.312397
      3          6           0       -3.445252    1.217958    2.800361
      4          6           0       -6.023032    4.639552    0.534247
      5          6           0       -7.924275    1.216800   -2.489773
      6          7           0       -4.433872   -0.240815    1.064493
      7          6           0       -4.324697   -1.689725    0.663015
      8          6           0       -3.164200   -2.369253    1.503258
      9          6           0       -3.007822   -1.344204    2.693465
     10          6           0       -3.705785   -0.066758    2.207216
     11          6           0       -3.541685   -1.871844    3.982226
     12          6           0       -2.030420   -2.653174    0.637445
     13          6           0       -0.978139   -3.500986    1.429833
     14          6           0        0.207875   -3.746011    0.614803
     15          8           0        0.490093   -3.291890   -0.536489
     16          8           0        1.012339   -4.565040    1.280380
     17          7           0       -4.873405    2.696160    1.458537
     18          6           0       -4.005911    2.447253    2.487098
     19          6           0       -3.869380    3.701049    3.283635
     20          6           0       -4.479636    4.566165    2.540434
     21          6           0       -5.203306    3.984748    1.467541
     22          6           0       -2.920353    3.905327    4.367735
     23          6           0       -4.602858    5.967409    2.971896
     24          8           0       -3.976465    6.622082    3.809406
     25          7           0       -6.759744    2.560321   -0.714986
     26          6           0       -6.913704    4.018552   -0.444823
     27          6           0       -7.879615    4.547540   -1.228423
     28          6           0       -8.288040    3.616337   -2.148140
     29          6           0       -7.674061    2.414530   -1.766562
     30          6           0       -8.380315    6.002104   -1.074401
     31          6           0       -9.471009    3.739991   -3.163121
     32          6           0       -8.912422    4.008631   -4.578492
     33          7           0       -6.353830   -0.110625   -1.174214
     34          6           0       -7.284397   -0.042565   -2.238667
     35          6           0       -7.499071   -1.358672   -2.819757
     36          6           0       -6.757739   -2.269037   -1.998900
     37          6           0       -6.002116   -1.367549   -1.088948
     38          6           0       -8.446715   -1.736498   -3.917049
     39          6           0       -6.146468   -3.609555   -1.942177
     40          8           0       -6.358404   -4.596886   -2.634590
     41          6           0       -5.145209   -3.513415   -0.912303
     42          6           0       -5.292357   -4.647037    0.187084
     43          8           0       -5.668217   -4.533697    1.315470
     44          8           0       -4.879347   -5.848186   -0.502479
     45          6           0       -5.204603   -6.945771    0.418331
     46          6           0        2.250372   -5.059403    0.627352
     47          6           0        3.304657   -4.212810    1.098215
     48          6           0        3.993678   -3.342571    0.264195
     49          6           0        3.680749   -3.051194   -1.244563
     50          6           0        5.211917   -2.442919    0.736214
     51          6           0        6.590630   -2.833785    0.011448
     52          6           0        7.607879   -1.851280    0.581504
     53          6           0        9.025542   -2.009944   -0.051761
     54          6           0        9.698757   -3.399976    0.253516
     55          6           0        9.894018   -0.964153    0.455270
     56          6           0       11.437001   -0.944470   -0.102890
     57          6           0       12.153075    0.265459    0.262513
     58          6           0       13.462383    0.495141   -0.497918
     59          6           0       14.389877   -0.745657   -0.474001
     60          6           0       14.209527    1.807227   -0.104071
     61          6           0       15.491711    2.169539   -0.982603
     62          6           0       16.017342    3.522622   -0.587889
     63          6           0       17.256706    3.981110   -1.450142
     64          6           0       17.047118    4.009102   -3.006022
     65          6           0       17.885416    5.297846   -0.914893
     66          1           0       -3.134808    1.218588    3.939072
     67          1           0       -6.091478    5.702043    0.782940
     68          1           0       -8.666216    1.106253   -3.117394
     69          1           0       -3.552092   -3.338262    1.642493
     70          1           0       -1.793451   -1.071567    2.703389
     71          1           0       -2.889088   -2.843719    4.245969
     72          1           0       -3.539651   -1.340886    4.999152
     73          1           0       -4.667864   -2.186173    3.897174
     74          1           0       -2.245204   -3.238780   -0.334295
     75          1           0       -1.482187   -1.709474    0.214344
     76          1           0       -0.824162   -2.596560    2.170706
     77          1           0       -1.397389   -4.469448    1.938042
     78          1           0       -1.800216    3.790574    4.452730
     79          1           0       -2.983883    4.966264    4.643713
     80          1           0       -3.087297    3.439739    5.176524
     81          1           0       -5.387815    6.333298    2.437670
     82          1           0       -9.956987    2.946643   -3.070440
     83          1           0      -10.184581    4.643588   -2.852374
     84          1           0       -9.712485    4.183479   -5.363960
     85          1           0       -8.442392    4.950706   -4.533158
     86          1           0       -8.304048    3.121809   -4.827099
     87          1           0       -8.473534   -1.125121   -4.807214
     88          1           0       -8.104412   -2.728908   -4.182704
     89          1           0       -9.503854   -1.603309   -3.735900
     90          1           0       -3.966726   -3.900507   -1.331550
     91          1           0        2.255070   -6.092883    1.031627
     92          1           0        2.001704   -5.092604   -0.598173
     93          1           0        3.430148   -4.235340    2.226477
     94          1           0        2.658597   -3.321599   -1.285065
     95          1           0        3.861732   -1.912793   -1.494308
     96          1           0        4.393424   -3.776050   -2.049995
     97          1           0        4.872343   -1.298834    0.552245
     98          1           0        5.269628   -2.489073    1.937140
     99          1           0        6.794819   -3.964807    0.124383
    100          1           0        6.353133   -2.808727   -1.186032
    101          1           0        7.192639   -0.814551    0.456099
    102          1           0        7.665091   -1.757388    1.603022
    103          1           0        9.004274   -2.024042   -1.007340
    104          1           0        9.030789   -4.259807   -0.088033
    105          1           0       10.800575   -3.430172   -0.090105
    106          1           0        9.789742   -3.602523    1.300171
    107          1           0        9.750427    0.076010    0.177843
    108          1           0        9.952223   -0.900808    1.631459
    109          1           0       11.866747   -1.871654    0.169143
    110          1           0       11.543133   -0.892452   -1.202714
    111          1           0       11.558485    1.322842    0.151627
    112          1           0       12.544463    0.118333    1.301337
    113          1           0       13.190713    0.611628   -1.559884
    114          1           0       14.830549   -1.131131    0.460390
    115          1           0       13.793419   -1.577814   -0.702726
    116          1           0       15.194057   -0.774329   -1.000462
    117          1           0       13.576817    2.697719   -0.486687
    118          1           0       14.565988    1.817911    0.901133
    119          1           0       16.201250    1.268663   -0.939465
    120          1           0       15.198914    2.110313   -2.011387
    121          1           0       15.441771    4.486638   -0.748514
    122          1           0       16.340158    3.375549    0.552618
    123          1           0       18.029313    3.292183   -1.300620
    124          1           0       16.152142    4.669708   -3.297349
    125          1           0       17.999244    4.468202   -3.398475
    126          1           0       16.660372    3.010507   -3.557932
    127          1           0       18.218282    5.374541    0.174998
    128          1           0       18.729791    5.367246   -1.652639
    129          1           0       16.992010    6.037979   -1.069902
    130          1           0       -4.747409   -7.839358    0.090307
    131          1           0       -6.346738   -6.823198    0.486542
    132          1           0       -4.924451   -6.881469    1.528378
    133          8           0       -7.794785    6.763757   -0.339533
    134          1           0       -9.077434    6.249197   -1.786082
 ---------------------------------------------------------------------

 SCF Done:  E(RCAM-B3LYP) =  -3043.36801183     A.U. after   16 cycles

 Excitation energies and oscillator strengths:

 Excited State   1:      Singlet-A      2.0312 eV  610.41 nm  f=0.1738  <S**2>=0.000
     243 -> 246       -0.23881
     244 -> 245        0.65798
 This state for optimization and/or second-order correction.
 Total Energy, E(TD-HF/TD-KS) =  -3043.29336742
 Copying the excited state density for this state as the 1-particle RhoCI density.

 The electronic state is 1-A.
 Alpha  occ. eigenvalues --  -46.80522 -19.22934 -19.22090 -19.20394 -19.18221
 Alpha  occ. eigenvalues --  -19.17425 -19.16606 -19.16150 -14.39364 -14.36759
 Alpha  occ. eigenvalues --  -14.36494 -14.36124 -10.36733 -10.35002 -10.30862
 Alpha  occ. eigenvalues --  -10.30663 -10.29320 -10.28845 -10.28735 -10.27915
 Alpha  occ. eigenvalues --  -10.27458 -10.27276 -10.26578 -10.26495 -10.26430
 Alpha  occ. eigenvalues --  -10.26350 -10.25855 -10.25837 -10.25817 -10.25727
 Alpha  occ. eigenvalues --  -10.25202 -10.24857 -10.24820 -10.24570 -10.24361
 Alpha  occ. eigenvalues --  -10.24209 -10.24161 -10.23910 -10.23719 -10.23709
 Alpha  occ. eigenvalues --  -10.23674 -10.23621 -10.23432 -10.23391 -10.23023
 Alpha  occ. eigenvalues --  -10.22640 -10.22422 -10.22380 -10.22170 -10.22143
 Alpha  occ. eigenvalues --  -10.22011 -10.21901 -10.21761 -10.21638 -10.21615
 Alpha  occ. eigenvalues --  -10.21236 -10.21165 -10.21075 -10.20975 -10.20825
 Alpha  occ. eigenvalues --  -10.20762 -10.20740 -10.20267 -10.20173 -10.19663
 Alpha  occ. eigenvalues --  -10.17983  -3.09243  -1.84170  -1.83719  -1.83663
 Alpha  occ. eigenvalues --   -1.13186  -1.12692  -1.08135  -1.06287  -1.05925
 Alpha  occ. eigenvalues --   -1.05662  -1.02135  -1.01028  -1.00025  -0.97364
 Alpha  occ. eigenvalues --   -0.96990  -0.89376  -0.87047  -0.85832  -0.85200
 Alpha  occ. eigenvalues --   -0.84622  -0.84568  -0.84072  -0.83887  -0.83181
 Alpha  occ. eigenvalues --   -0.82948  -0.82922  -0.81632  -0.80307  -0.79379
 Alpha  occ. eigenvalues --   -0.78804  -0.78331  -0.77453  -0.76616  -0.76349
 Alpha  occ. eigenvalues --   -0.75887  -0.75291  -0.74230  -0.73051  -0.71941
 Alpha  occ. eigenvalues --   -0.70952  -0.69982  -0.69921  -0.69488  -0.69446
 Alpha  occ. eigenvalues --   -0.69028  -0.68542  -0.67948  -0.67618  -0.66739
 Alpha  occ. eigenvalues --   -0.65753  -0.64796  -0.64042  -0.62445  -0.62115
 Alpha  occ. eigenvalues --   -0.61251  -0.61165  -0.60742  -0.59739  -0.59443
 Alpha  occ. eigenvalues --   -0.58457  -0.58329  -0.57961  -0.57474  -0.57026
 Alpha  occ. eigenvalues --   -0.56704  -0.56057  -0.55652  -0.55486  -0.55059
 Alpha  occ. eigenvalues --   -0.53687  -0.53212  -0.53068  -0.52667  -0.52039
 Alpha  occ. eigenvalues --   -0.51745  -0.51548  -0.51287  -0.51147  -0.50629
 Alpha  occ. eigenvalues --   -0.50062  -0.49872  -0.49349  -0.48999  -0.48687
 Alpha  occ. eigenvalues --   -0.48301  -0.48285  -0.48057  -0.47903  -0.47680
 Alpha  occ. eigenvalues --   -0.47446  -0.47394  -0.47265  -0.46926  -0.46669
 Alpha  occ. eigenvalues --   -0.46357  -0.46304  -0.46268  -0.45993  -0.45742
 Alpha  occ. eigenvalues --   -0.45426  -0.45237  -0.44931  -0.44568  -0.44445
 Alpha  occ. eigenvalues --   -0.44118  -0.43679  -0.43564  -0.43404  -0.43272
 Alpha  occ. eigenvalues --   -0.43024  -0.42852  -0.42743  -0.42562  -0.42443
 Alpha  occ. eigenvalues --   -0.42349  -0.42146  -0.41939  -0.41859  -0.41761
 Alpha  occ. eigenvalues --   -0.41387  -0.41088  -0.41062  -0.40844  -0.40715
 Alpha  occ. eigenvalues --   -0.40609  -0.40574  -0.40450  -0.40437  -0.40395
 Alpha  occ. eigenvalues --   -0.40107  -0.40008  -0.39756  -0.39375  -0.39141
 Alpha  occ. eigenvalues --   -0.39037  -0.38996  -0.38730  -0.38467  -0.38273
 Alpha  occ. eigenvalues --   -0.38118  -0.37657  -0.37547  -0.37096  -0.37021
 Alpha  occ. eigenvalues --   -0.36907  -0.36748  -0.36427  -0.36153  -0.35580
 Alpha  occ. eigenvalues --   -0.35482  -0.34876  -0.34776  -0.34125  -0.34013
 Alpha  occ. eigenvalues --   -0.33915  -0.33713  -0.33329  -0.33207  -0.32996
 Alpha  occ. eigenvalues --   -0.32602  -0.32581  -0.32440  -0.32258  -0.32030
 Alpha  occ. eigenvalues --   -0.31123  -0.30968  -0.30313  -0.30080  -0.29881
 Alpha  occ. eigenvalues --   -0.29360  -0.28623  -0.28212  -0.27758  -0.27318
 Alpha  occ. eigenvalues --   -0.27229  -0.26884  -0.23322  -0.21492
 Alpha virt. eigenvalues --   -0.08380  -0.06561  -0.02088  -0.00943  -0.00403
 Alpha virt. eigenvalues --    0.01777   0.02122   0.02649   0.03073   0.04310
 Alpha virt. eigenvalues --    0.04519   0.04932   0.07209   0.07898   0.09303

 Mulliken charges:
               1
     1  Mg   0.814398
     2  C    0.118004
     3  C   -0.196138
     4  C   -0.179475
     5  C   -0.136490
     6  N   -0.604965
     7  C    0.212916
     8  C   -0.087675
     9  C   -0.141754
    10  C    0.346018
    11  C   -0.305922
    12  C   -0.201112
    13  C   -0.256006
    14  C    0.623718
    15  O   -0.509290
    16  O   -0.458064
    17  N   -0.711405
    18  C    0.296086
    19  C    0.055047
    20  C   -0.045273
    21  C    0.346326
    22  C   -0.409123
    23  C    0.277198
    24  O   -0.434086
    25  N   -0.694445
    26  C    0.253888
    27  C   -0.053195
    28  C    0.012527
    29  C    0.301538
    30  C    0.288080
    31  C   -0.218350
    32  C   -0.307359
    33  N   -0.711999
    34  C    0.250023
    35  C    0.014529
    36  C   -0.023573
    37  C    0.305459
    38  C   -0.389261
    39  C    0.398483
    40  O   -0.470291
    41  C   -0.316412
    42  C    0.613303
    43  O   -0.427141
    44  O   -0.456797
    45  C   -0.094335
    46  C   -0.017736
    47  C   -0.104619
    48  C    0.104093
    49  C   -0.344088
    50  C   -0.219680
    51  C   -0.167022
    52  C   -0.166343
    53  C   -0.020280
    54  C   -0.331823
    55  C   -0.177427
    56  C   -0.197109
    57  C   -0.153125
    58  C   -0.066831
    59  C   -0.324833
    60  C   -0.165494
    61  C   -0.190993
    62  C   -0.144269
    63  C   -0.076039
    64  C   -0.305973
    65  C   -0.297481
    66  H    0.082591
    67  H    0.126722
    68  H    0.071303
    69  H    0.122521
    70  H    0.101300
    71  H    0.096982
    72  H    0.118103
    73  H    0.127248
    74  H    0.114380
    75  H    0.120635
    76  H    0.131873
    77  H    0.131563
    78  H    0.128327
    79  H    0.160027
    80  H    0.127017
    81  H    0.076521
    82  H    0.119963
    83  H    0.087064
    84  H    0.099716
    85  H    0.125192
    86  H    0.115044
    87  H    0.121435
    88  H    0.153665
    89  H    0.134194
    90  H    0.150506
    91  H    0.119193
    92  H    0.121636
    93  H    0.096334
    94  H    0.158483
    95  H    0.109481
    96  H    0.076897
    97  H    0.087785
    98  H    0.075044
    99  H    0.100831
   100  H    0.086096
   101  H    0.090042
   102  H    0.105901
   103  H    0.097780
   104  H    0.089383
   105  H    0.097208
   106  H    0.106432
   107  H    0.092117
   108  H    0.071826
   109  H    0.106345
   110  H    0.084239
   111  H    0.070538
   112  H    0.085417
   113  H    0.077553
   114  H    0.086325
   115  H    0.100474
   116  H    0.109727
   117  H    0.080645
   118  H    0.094062
   119  H    0.084030
   120  H    0.092517
   121  H    0.085764
   122  H    0.072135
   123  H    0.097226
   124  H    0.090068
   125  H    0.101125
   126  H    0.095242
   127  H    0.105574
   128  H    0.096268
   129  H    0.085045
   130  H    0.129043
   131  H    0.127163
   132  H    0.119115
   133  O   -0.402520
   134  H    0.079982
 Sum of Mulliken charges =   0.00000

 Dipole moment (field-independent basis, Debye):
    X=              0.5352    Y=             -4.1405    Z=              0.1981  Tot=              4.1796
 Quadrupole moment (field-independent basis, Debye-Ang):
   XX=           -361.6311   YY=           -435.9805   ZZ=           -391.4748
   XY=             -7.7796   XZ=             18.1970   YZ=            -39.5470

 Normal termination of Gaussian 09 at Mon Oct  7 10:36:32 2019.
