 Gaussian 09, Revision D.01,
 Gaussian 09:  ES64L-G09RevD.01 24-Apr-2013

 ----------------------------------------------------------------------
 # td=(NStates=1) iop(3/107=0140000000,3/108=0140000000) iop(3/107=0140
 000000,3/108=0140000000) CAM-B3LYP/6-31G(d,p)
 ----------------------------------------------------------------------

 --
 TD
 --
 Symbolic Z-matrix:
 Charge =  0 Multiplicity = 1

                         Standard orientation:
 ---------------------------------------------------------------------
 Center     Atomic      Atomic             Coordinates (Angstroms)
 Number     Number       Type             X           Y           Z
 ---------------------------------------------------------------------
      1         12           0       -5.499878    1.250724    0.165685
      2          6           0       -5.010760   -2.078631   -0.383150
      3          6           0       -3.400223    1.136370    2.875647
      4          6           0       -6.035860    4.591028    0.717206
      5          6           0       -7.867685    1.214072   -2.391698
      6          7           0       -4.364595   -0.237493    1.013665
      7          6           0       -4.233199   -1.541340    0.668002
      8          6           0       -3.209149   -2.325508    1.566142
      9          6           0       -2.906504   -1.343385    2.601104
     10          6           0       -3.543177   -0.123820    2.178919
     11          6           0       -3.337853   -1.748425    4.013714
     12          6           0       -1.941858   -2.787280    0.700758
     13          6           0       -1.054811   -3.701985    1.494604
     14          6           0        0.227421   -3.984629    0.725107
     15          8           0        0.417166   -3.640894   -0.409244
     16          8           0        1.000594   -4.882514    1.336538
     17          7           0       -4.810349    2.613608    1.533784
     18          6           0       -3.872294    2.414426    2.421315
     19          6           0       -3.626642    3.727574    3.261341
     20          6           0       -4.423724    4.636464    2.557134
     21          6           0       -5.155062    3.954279    1.522172
     22          6           0       -2.635879    3.806918    4.334119
     23          6           0       -4.461024    6.037575    2.958423
     24          8           0       -3.853169    6.537250    3.798139
     25          7           0       -6.819202    2.686116   -0.721982
     26          6           0       -6.891166    4.009897   -0.379003
     27          6           0       -7.868937    4.624159   -1.164861
     28          6           0       -8.429715    3.698951   -2.036865
     29          6           0       -7.723767    2.442498   -1.780093
     30          6           0       -8.362408    6.029038   -1.103599
     31          6           0       -9.420605    3.889382   -3.106898
     32          6           0       -8.774131    4.138272   -4.498533
     33          7           0       -6.290009   -0.027705   -1.158959
     34          6           0       -7.350006    0.022399   -2.113877
     35          6           0       -7.562053   -1.308198   -2.665083
     36          6           0       -6.672365   -2.190243   -2.103167
     37          6           0       -6.017714   -1.339579   -1.134051
     38          6           0       -8.498519   -1.615651   -3.893643
     39          6           0       -6.249158   -3.522160   -2.027380
     40          8           0       -6.615052   -4.503560   -2.645715
     41          6           0       -4.994703   -3.501921   -0.943667
     42          6           0       -5.210911   -4.655535    0.098640
     43          8           0       -5.679176   -4.544976    1.194072
     44          8           0       -4.833980   -5.779972   -0.431115
     45          6           0       -5.284336   -6.946093    0.464300
     46          6           0        2.224503   -5.182527    0.627821
     47          6           0        3.325876   -4.238430    0.897435
     48          6           0        3.949619   -3.305639    0.102169
     49          6           0        3.598291   -3.191620   -1.297767
     50          6           0        5.062651   -2.447085    0.668972
     51          6           0        6.501706   -2.817404    0.039671
     52          6           0        7.526700   -1.874258    0.492547
     53          6           0        8.922402   -2.083443   -0.101358
     54          6           0        9.468855   -3.411242    0.218160
     55          6           0        9.759702   -0.915214    0.398510
     56          6           0       11.236381   -0.905544   -0.349656
     57          6           0       11.996635    0.354425    0.064592
     58          6           0       13.403399    0.486224   -0.563975
     59          6           0       14.369885   -0.620624   -0.337371
     60          6           0       14.138380    1.808993   -0.146536
     61          6           0       15.514175    2.101950   -0.939737
     62          6           0       15.927777    3.568206   -0.592515
     63          6           0       17.270967    4.005770   -1.372207
     64          6           0       17.108471    4.038772   -2.954895
     65          6           0       17.699063    5.349564   -0.869352
     66          1           0       -2.965022    1.110807    3.732562
     67          1           0       -6.260628    5.611840    0.700008
     68          1           0       -8.778095    1.202805   -2.961702
     69          1           0       -3.730001   -3.286466    1.903113
     70          1           0       -1.844737   -1.338176    2.805823
     71          1           0       -2.555122   -2.495858    4.326187
     72          1           0       -3.396200   -0.923648    4.633671
     73          1           0       -4.271739   -2.266111    4.035075
     74          1           0       -2.254308   -3.359286   -0.194501
     75          1           0       -1.345744   -1.938798    0.528511
     76          1           0       -0.682358   -3.248733    2.332156
     77          1           0       -1.436370   -4.713860    1.709977
     78          1           0       -1.746956    3.464261    4.291352
     79          1           0       -2.862753    4.825033    4.715739
     80          1           0       -3.195287    3.281650    5.202517
     81          1           0       -4.940842    6.932131    2.207456
     82          1           0      -10.215229    3.138800   -3.166577
     83          1           0      -10.012444    4.782121   -2.925967
     84          1           0       -9.802294    4.286373   -5.198591
     85          1           0       -8.106539    4.983869   -4.350040
     86          1           0       -8.048586    3.364612   -4.853591
     87          1           0       -8.081009   -1.089192   -4.915933
     88          1           0       -8.356728   -2.727648   -4.133092
     89          1           0       -9.482872   -1.417748   -3.661920
     90          1           0       -4.118855   -3.833566   -1.651136
     91          1           0        2.514875   -6.167887    1.087033
     92          1           0        1.919208   -5.297347   -0.447893
     93          1           0        3.815715   -4.416852    1.866117
     94          1           0        2.633276   -3.582816   -1.635013
     95          1           0        3.519310   -2.037466   -1.587452
     96          1           0        4.521404   -3.632948   -1.876662
     97          1           0        4.846004   -1.509364    0.409014
     98          1           0        5.043145   -2.659128    1.727948
     99          1           0        6.739563   -3.974318    0.292285
    100          1           0        6.345918   -2.805940   -1.024192
    101          1           0        7.241460   -0.886438    0.404012
    102          1           0        7.636217   -1.862622    1.461295
    103          1           0        8.935759   -2.136092   -1.226709
    104          1           0        8.715596   -4.217892   -0.118995
    105          1           0       10.351445   -3.626602   -0.191344
    106          1           0        9.656323   -3.680389    1.276812
    107          1           0        9.269412    0.062255    0.163034
    108          1           0        9.840634   -0.839808    1.513380
    109          1           0       11.731127   -1.719142    0.095675
    110          1           0       11.154404   -0.857808   -1.366942
    111          1           0       11.531628    1.235929   -0.232144
    112          1           0       12.213652    0.337501    1.190984
    113          1           0       13.097263    0.678218   -1.558070
    114          1           0       14.789824   -0.614367    0.694684
    115          1           0       13.939310   -1.559355   -0.772652
    116          1           0       15.183965   -0.382046   -0.868201
    117          1           0       13.403339    2.921595   -0.263630
    118          1           0       14.557958    1.839170    0.797237
    119          1           0       16.163728    1.247147   -0.430827
    120          1           0       15.479724    1.919209   -1.946348
    121          1           0       15.136267    4.131639   -0.605529
    122          1           0       16.307830    3.527132    0.525281
    123          1           0       18.022792    3.270174   -1.079928
    124          1           0       16.504545    4.933696   -3.262804
    125          1           0       18.138671    4.099353   -3.346949
    126          1           0       16.596158    3.035022   -3.455331
    127          1           0       17.795913    5.264943    0.172139
    128          1           0       18.710809    5.694349   -1.182953
    129          1           0       16.888782    5.972764   -1.177291
    130          1           0       -5.046464   -7.769537   -0.384147
    131          1           0       -6.205057   -6.746949    0.798550
    132          1           0       -4.608837   -6.745126    1.312789
    133          8           0       -7.786418    6.863244   -0.367625
    134          1           0       -8.993920    6.295179   -1.817087
 ---------------------------------------------------------------------

 SCF Done:  E(RCAM-B3LYP) =  -3043.49095031     A.U. after   15 cycles

 Excitation energies and oscillator strengths:

 Excited State   1:      Singlet-A      2.1504 eV  576.56 nm  f=0.1168  <S**2>=0.000
     243 -> 245        0.10057
     243 -> 246       -0.31971
     244 -> 245        0.60818
 This state for optimization and/or second-order correction.
 Total Energy, E(TD-HF/TD-KS) =  -3043.41192390
 Copying the excited state density for this state as the 1-particle RhoCI density.

 The electronic state is 1-A.
 Alpha  occ. eigenvalues --  -46.81370 -19.22241 -19.21896 -19.17434 -19.17054
 Alpha  occ. eigenvalues --  -19.16609 -19.16490 -19.16475 -14.38870 -14.37349
 Alpha  occ. eigenvalues --  -14.36496 -14.36119 -10.34122 -10.34069 -10.31165
 Alpha  occ. eigenvalues --  -10.30697 -10.29190 -10.28283 -10.28081 -10.27458
 Alpha  occ. eigenvalues --  -10.27438 -10.27403 -10.26281 -10.26130 -10.25894
 Alpha  occ. eigenvalues --  -10.25733 -10.25699 -10.25377 -10.25036 -10.24972
 Alpha  occ. eigenvalues --  -10.24228 -10.23631 -10.23577 -10.23466 -10.23464
 Alpha  occ. eigenvalues --  -10.23463 -10.23219 -10.23199 -10.23038 -10.23036
 Alpha  occ. eigenvalues --  -10.23022 -10.22841 -10.22753 -10.22149 -10.22020
 Alpha  occ. eigenvalues --  -10.22010 -10.21977 -10.21896 -10.21850 -10.21830
 Alpha  occ. eigenvalues --  -10.21814 -10.21774 -10.21630 -10.21415 -10.21351
 Alpha  occ. eigenvalues --  -10.21047 -10.20994 -10.20959 -10.20680 -10.20623
 Alpha  occ. eigenvalues --  -10.20127 -10.19744 -10.19412 -10.19222 -10.19179
 Alpha  occ. eigenvalues --  -10.18588  -3.09941  -1.84881  -1.84419  -1.84349
 Alpha  occ. eigenvalues --   -1.14343  -1.14149  -1.11122  -1.06802  -1.04897
 Alpha  occ. eigenvalues --   -1.04641  -1.04450  -1.00694  -0.99849  -0.99059
 Alpha  occ. eigenvalues --   -0.97555  -0.87399  -0.86854  -0.86650  -0.85285
 Alpha  occ. eigenvalues --   -0.84873  -0.84656  -0.84303  -0.84117  -0.83516
 Alpha  occ. eigenvalues --   -0.83062  -0.82913  -0.82277  -0.80121  -0.79342
 Alpha  occ. eigenvalues --   -0.78412  -0.78132  -0.77219  -0.76914  -0.76537
 Alpha  occ. eigenvalues --   -0.75810  -0.75251  -0.74313  -0.72663  -0.72362
 Alpha  occ. eigenvalues --   -0.71826  -0.71083  -0.70167  -0.69866  -0.69073
 Alpha  occ. eigenvalues --   -0.68958  -0.68565  -0.67648  -0.66556  -0.66049
 Alpha  occ. eigenvalues --   -0.65689  -0.65131  -0.64817  -0.62860  -0.61874
 Alpha  occ. eigenvalues --   -0.61442  -0.60798  -0.60697  -0.59741  -0.58959
 Alpha  occ. eigenvalues --   -0.58847  -0.58671  -0.58168  -0.57915  -0.57621
 Alpha  occ. eigenvalues --   -0.56699  -0.55453  -0.55219  -0.54834  -0.54403
 Alpha  occ. eigenvalues --   -0.53817  -0.53708  -0.53166  -0.52826  -0.52200
 Alpha  occ. eigenvalues --   -0.52030  -0.51597  -0.51479  -0.51120  -0.50899
 Alpha  occ. eigenvalues --   -0.50103  -0.49860  -0.49662  -0.49590  -0.49300
 Alpha  occ. eigenvalues --   -0.48864  -0.48639  -0.48387  -0.47947  -0.47888
 Alpha  occ. eigenvalues --   -0.47805  -0.47602  -0.47372  -0.47171  -0.47049
 Alpha  occ. eigenvalues --   -0.46740  -0.46478  -0.46220  -0.46008  -0.45849
 Alpha  occ. eigenvalues --   -0.45628  -0.45505  -0.45242  -0.45123  -0.45075
 Alpha  occ. eigenvalues --   -0.44804  -0.44595  -0.44086  -0.43952  -0.43842
 Alpha  occ. eigenvalues --   -0.43538  -0.43470  -0.43087  -0.42876  -0.42753
 Alpha  occ. eigenvalues --   -0.42595  -0.42423  -0.42051  -0.41956  -0.41925
 Alpha  occ. eigenvalues --   -0.41647  -0.41570  -0.41432  -0.41303  -0.41259
 Alpha  occ. eigenvalues --   -0.41061  -0.40791  -0.40541  -0.40310  -0.40003
 Alpha  occ. eigenvalues --   -0.39875  -0.39764  -0.39472  -0.39320  -0.39201
 Alpha  occ. eigenvalues --   -0.38861  -0.38714  -0.38424  -0.38293  -0.38225
 Alpha  occ. eigenvalues --   -0.37997  -0.37844  -0.37658  -0.37610  -0.37300
 Alpha  occ. eigenvalues --   -0.37174  -0.36907  -0.36730  -0.36640  -0.36249
 Alpha  occ. eigenvalues --   -0.35996  -0.35437  -0.35068  -0.34724  -0.34622
 Alpha  occ. eigenvalues --   -0.34495  -0.34437  -0.34187  -0.33713  -0.33529
 Alpha  occ. eigenvalues --   -0.33211  -0.33160  -0.32446  -0.31935  -0.31708
 Alpha  occ. eigenvalues --   -0.31679  -0.30627  -0.30355  -0.29566  -0.29144
 Alpha  occ. eigenvalues --   -0.28727  -0.28007  -0.27638  -0.27422  -0.26968
 Alpha  occ. eigenvalues --   -0.26788  -0.26196  -0.22454  -0.21397
 Alpha virt. eigenvalues --   -0.07491  -0.06194  -0.01620  -0.00510   0.00490
 Alpha virt. eigenvalues --    0.03168   0.03477   0.04105   0.04498   0.04786
 Alpha virt. eigenvalues --    0.04978   0.05916   0.08223   0.08575   0.09092

 Mulliken charges:
               1
     1  Mg   0.826085
     2  C    0.024747
     3  C   -0.173983
     4  C   -0.145039
     5  C   -0.188977
     6  N   -0.644402
     7  C    0.324595
     8  C   -0.151073
     9  C   -0.150460
    10  C    0.338594
    11  C   -0.313448
    12  C   -0.161041
    13  C   -0.267196
    14  C    0.583521
    15  O   -0.466268
    16  O   -0.457601
    17  N   -0.675877
    18  C    0.284863
    19  C    0.029996
    20  C   -0.027480
    21  C    0.351769
    22  C   -0.379342
    23  C    0.231082
    24  O   -0.358802
    25  N   -0.686362
    26  C    0.275166
    27  C   -0.057751
    28  C    0.046417
    29  C    0.257796
    30  C    0.269148
    31  C   -0.269556
    32  C   -0.288862
    33  N   -0.709160
    34  C    0.305362
    35  C   -0.025290
    36  C    0.118299
    37  C    0.289651
    38  C   -0.368939
    39  C    0.333095
    40  O   -0.456924
    41  C   -0.338188
    42  C    0.613712
    43  O   -0.492532
    44  O   -0.443619
    45  C   -0.097419
    46  C   -0.000946
    47  C   -0.141147
    48  C    0.145855
    49  C   -0.368668
    50  C   -0.221799
    51  C   -0.188754
    52  C   -0.145518
    53  C   -0.046065
    54  C   -0.307770
    55  C   -0.194356
    56  C   -0.181314
    57  C   -0.170591
    58  C   -0.053342
    59  C   -0.318672
    60  C   -0.171187
    61  C   -0.187003
    62  C   -0.160455
    63  C   -0.066247
    64  C   -0.302074
    65  C   -0.295670
    66  H    0.051435
    67  H    0.126853
    68  H    0.086977
    69  H    0.128573
    70  H    0.122112
    71  H    0.100522
    72  H    0.120852
    73  H    0.133914
    74  H    0.123376
    75  H    0.121360
    76  H    0.129950
    77  H    0.137601
    78  H    0.137919
    79  H    0.162694
    80  H    0.118548
    81  H    0.029845
    82  H    0.113773
    83  H    0.110170
    84  H    0.085586
    85  H    0.118148
    86  H    0.116168
    87  H    0.112766
    88  H    0.142581
    89  H    0.136474
    90  H    0.146197
    91  H    0.106574
    92  H    0.123877
    93  H    0.070515
    94  H    0.148434
    95  H    0.086737
    96  H    0.108330
    97  H    0.112131
    98  H    0.102004
    99  H    0.078594
   100  H    0.099841
   101  H    0.089219
   102  H    0.101658
   103  H    0.076983
   104  H    0.084411
   105  H    0.112060
   106  H    0.088125
   107  H    0.083877
   108  H    0.088601
   109  H    0.111417
   110  H    0.097128
   111  H    0.093575
   112  H    0.068311
   113  H    0.086083
   114  H    0.098394
   115  H    0.095443
   116  H    0.121902
   117  H    0.019038
   118  H    0.105403
   119  H    0.073782
   120  H    0.102690
   121  H    0.102027
   122  H    0.069836
   123  H    0.086925
   124  H    0.099577
   125  H    0.106354
   126  H    0.075310
   127  H    0.104291
   128  H    0.092536
   129  H    0.104968
   130  H    0.136710
   131  H    0.163865
   132  H    0.139254
   133  O   -0.442848
   134  H    0.079079
 Sum of Mulliken charges =   0.00000

 Dipole moment (field-independent basis, Debye):
    X=              3.2176    Y=             -4.5793    Z=              0.2131  Tot=              5.6007
 Quadrupole moment (field-independent basis, Debye-Ang):
   XX=           -369.3393   YY=           -438.1982   ZZ=           -390.4084
   XY=              8.2772   XZ=             17.4298   YZ=            -29.4144

 Normal termination of Gaussian 09 at Tue Oct  8 22:20:08 2019.
