 Gaussian 09, Revision D.01,
 Gaussian 09:  ES64L-G09RevD.01 24-Apr-2013

 ----------------------------------------------------------------------
 # td=(NStates=1) iop(3/107=0140000000,3/108=0140000000) iop(3/107=0140
 000000,3/108=0140000000) CAM-B3LYP/6-31G(d,p)
 ----------------------------------------------------------------------

 --
 TD
 --
 Symbolic Z-matrix:
 Charge =  0 Multiplicity = 1

                         Standard orientation:
 ---------------------------------------------------------------------
 Center     Atomic      Atomic             Coordinates (Angstroms)
 Number     Number       Type             X           Y           Z
 ---------------------------------------------------------------------
      1         12           0       -5.601559    1.182344    0.136285
      2          6           0       -4.928534   -2.144311   -0.465343
      3          6           0       -3.552079    1.233575    2.794266
      4          6           0       -6.285705    4.610894    0.678101
      5          6           0       -7.859679    1.181757   -2.492119
      6          7           0       -4.426469   -0.254157    1.052159
      7          6           0       -4.299245   -1.558347    0.712220
      8          6           0       -3.333928   -2.230630    1.557500
      9          6           0       -3.016805   -1.352291    2.744650
     10          6           0       -3.609328   -0.027216    2.180449
     11          6           0       -3.519703   -1.771173    4.054865
     12          6           0       -2.078554   -2.669212    0.660876
     13          6           0       -1.086969   -3.422899    1.506463
     14          6           0        0.169014   -3.831399    0.753875
     15          8           0        0.485454   -3.379915   -0.338939
     16          8           0        1.016321   -4.651786    1.425564
     17          7           0       -4.994173    2.543617    1.483719
     18          6           0       -4.142178    2.462072    2.507356
     19          6           0       -3.856289    3.685318    3.210711
     20          6           0       -4.586620    4.653473    2.572102
     21          6           0       -5.488659    3.991290    1.573264
     22          6           0       -2.887691    3.880577    4.288630
     23          6           0       -4.583601    6.113352    2.797274
     24          8           0       -4.010919    6.600255    3.822073
     25          7           0       -6.829784    2.672378   -0.756377
     26          6           0       -6.914893    3.976696   -0.420319
     27          6           0       -7.921585    4.533014   -1.322310
     28          6           0       -8.365582    3.630642   -2.203204
     29          6           0       -7.747882    2.396239   -1.851573
     30          6           0       -8.378878    5.951758   -1.203615
     31          6           0       -9.533252    3.762790   -3.219300
     32          6           0       -8.890219    3.766372   -4.644313
     33          7           0       -6.297249   -0.160089   -1.131746
     34          6           0       -7.345270   -0.094781   -2.097952
     35          6           0       -7.440434   -1.356892   -2.692720
     36          6           0       -6.539872   -2.222144   -2.140601
     37          6           0       -5.880055   -1.413876   -1.074220
     38          6           0       -8.511934   -1.693278   -3.841085
     39          6           0       -6.138152   -3.691275   -1.994593
     40          8           0       -6.559781   -4.665193   -2.540807
     41          6           0       -4.959448   -3.576821   -0.908489
     42          6           0       -5.298854   -4.581931    0.120001
     43          8           0       -5.763910   -4.411012    1.203957
     44          8           0       -4.961832   -5.839294   -0.337608
     45          6           0       -5.354367   -6.887088    0.556977
     46          6           0        2.264268   -5.014657    0.738422
     47          6           0        3.370542   -4.019992    1.032734
     48          6           0        3.986554   -3.235146    0.172982
     49          6           0        3.721877   -3.195531   -1.252830
     50          6           0        5.241305   -2.345806    0.650162
     51          6           0        6.493542   -2.677409   -0.020149
     52          6           0        7.592478   -1.778393    0.546500
     53          6           0        9.024294   -1.975778   -0.156759
     54          6           0        9.604655   -3.418566   -0.196424
     55          6           0        9.923377   -0.920938    0.385620
     56          6           0       11.333046   -0.793264   -0.312367
     57          6           0       12.219586    0.314505    0.251988
     58          6           0       13.606346    0.456630   -0.432675
     59          6           0       14.523900   -0.674138   -0.144301
     60          6           0       14.261328    1.850873   -0.062031
     61          6           0       15.473573    2.219312   -0.986329
     62          6           0       16.137631    3.540041   -0.669403
     63          6           0       17.524353    3.811232   -1.365530
     64          6           0       17.450391    3.679106   -2.902714
     65          6           0       18.045085    5.096961   -0.870018
     66          1           0       -2.511347    1.159245    3.422542
     67          1           0       -6.229110    5.515597    0.666006
     68          1           0       -8.644707    1.072941   -3.273199
     69          1           0       -3.765229   -3.028950    2.301469
     70          1           0       -1.991885   -1.280902    2.930879
     71          1           0       -3.173067   -2.757130    4.370817
     72          1           0       -3.481054   -0.802231    4.759581
     73          1           0       -4.759600   -1.826591    3.962725
     74          1           0       -2.349626   -3.434078    0.050912
     75          1           0       -1.671425   -1.893664    0.320594
     76          1           0       -0.891419   -2.751244    2.262636
     77          1           0       -1.213882   -4.342720    2.146428
     78          1           0       -1.785518    4.152442    3.852773
     79          1           0       -3.015326    4.819619    4.788443
     80          1           0       -2.875091    3.160029    4.908522
     81          1           0       -5.263270    6.608449    2.102670
     82          1           0      -10.291369    2.951728   -3.229308
     83          1           0      -10.213278    4.569314   -3.100730
     84          1           0       -9.632195    3.746124   -5.463103
     85          1           0       -8.069332    4.508804   -4.713363
     86          1           0       -8.457550    2.676654   -4.691984
     87          1           0       -8.060517   -1.200649   -4.953626
     88          1           0       -8.391445   -2.718506   -3.847629
     89          1           0       -9.523753   -1.269423   -3.470101
     90          1           0       -4.064744   -3.944124   -1.374475
     91          1           0        2.587795   -6.074649    1.004478
     92          1           0        2.155832   -4.805189   -0.346585
     93          1           0        3.864379   -3.984109    2.085272
     94          1           0        2.737386   -3.629903   -1.571634
     95          1           0        3.613966   -2.136517   -1.518748
     96          1           0        4.420915   -3.742008   -1.776492
     97          1           0        4.833744   -1.340786    0.512073
     98          1           0        5.372850   -2.439886    1.685801
     99          1           0        6.584805   -3.809131    0.112770
    100          1           0        6.570503   -2.589743   -1.204808
    101          1           0        7.388275   -0.663191    0.365121
    102          1           0        7.533158   -2.035124    1.677057
    103          1           0        8.702554   -1.738141   -1.145241
    104          1           0        8.860428   -4.135638   -0.434502
    105          1           0       10.655610   -3.387721   -0.650080
    106          1           0        9.764837   -3.418966    1.009443
    107          1           0        9.520938    0.091140    0.061023
    108          1           0       10.041128   -0.937054    1.631826
    109          1           0       11.809741   -1.831804   -0.068162
    110          1           0       11.299457   -0.691512   -1.304411
    111          1           0       11.728764    1.285563    0.233170
    112          1           0       12.371339    0.164939    1.334197
    113          1           0       13.586841    0.607303   -1.543137
    114          1           0       14.672363   -0.853793    0.878569
    115          1           0       13.967228   -1.530859   -0.321472
    116          1           0       15.485041   -0.541088   -0.774305
    117          1           0       13.691543    2.697800   -0.174947
    118          1           0       14.602912    1.844242    0.985672
    119          1           0       16.171860    1.393736   -0.876487
    120          1           0       15.091705    2.222738   -2.016470
    121          1           0       15.374781    4.321283   -0.716433
    122          1           0       16.488338    3.762469    0.444581
    123          1           0       18.377728    2.952794   -1.099619
    124          1           0       16.538588    4.234981   -3.284099
    125          1           0       18.384712    3.943235   -3.437763
    126          1           0       16.966222    2.749777   -3.304462
    127          1           0       18.436883    5.097933    0.173093
    128          1           0       18.860539    5.487540   -1.562021
    129          1           0       17.319769    5.839294   -1.115991
    130          1           0       -5.105782   -7.829647    0.265665
    131          1           0       -6.441320   -6.912922    0.684575
    132          1           0       -4.757010   -6.584631    1.484134
    133          8           0       -7.877654    6.819463   -0.479594
    134          1           0       -9.160023    6.336227   -1.945218
 ---------------------------------------------------------------------

 SCF Done:  E(RCAM-B3LYP) =  -3043.44498617     A.U. after   15 cycles

 Excitation energies and oscillator strengths:

 Excited State   1:      Singlet-A      2.0218 eV  613.23 nm  f=0.2150  <S**2>=0.000
     243 -> 246        0.21957
     244 -> 245        0.65991
 This state for optimization and/or second-order correction.
 Total Energy, E(TD-HF/TD-KS) =  -3043.37068564
 Copying the excited state density for this state as the 1-particle RhoCI density.

 The electronic state is 1-A.
 Alpha  occ. eigenvalues --  -46.80566 -19.22250 -19.21666 -19.18615 -19.18078
 Alpha  occ. eigenvalues --  -19.17386 -19.17006 -19.16660 -14.39447 -14.37689
 Alpha  occ. eigenvalues --  -14.37001 -14.36228 -10.34995 -10.34714 -10.32859
 Alpha  occ. eigenvalues --  -10.31342 -10.30553 -10.28573 -10.28192 -10.28039
 Alpha  occ. eigenvalues --  -10.27227 -10.27218 -10.26381 -10.26356 -10.26120
 Alpha  occ. eigenvalues --  -10.25987 -10.25394 -10.25089 -10.25083 -10.24703
 Alpha  occ. eigenvalues --  -10.24642 -10.24636 -10.24627 -10.24228 -10.24196
 Alpha  occ. eigenvalues --  -10.24190 -10.23910 -10.23873 -10.23842 -10.23745
 Alpha  occ. eigenvalues --  -10.23694 -10.22926 -10.22731 -10.22711 -10.22689
 Alpha  occ. eigenvalues --  -10.22535 -10.22467 -10.22385 -10.22369 -10.22283
 Alpha  occ. eigenvalues --  -10.22185 -10.21867 -10.21770 -10.21574 -10.21461
 Alpha  occ. eigenvalues --  -10.21307 -10.21180 -10.20996 -10.20815 -10.20710
 Alpha  occ. eigenvalues --  -10.20630 -10.20391 -10.20069 -10.19999 -10.19560
 Alpha  occ. eigenvalues --  -10.19131  -3.09329  -1.84258  -1.83798  -1.83755
 Alpha  occ. eigenvalues --   -1.13515  -1.12686  -1.09221  -1.05615  -1.05165
 Alpha  occ. eigenvalues --   -1.04641  -1.03608  -1.00785  -0.99400  -0.98707
 Alpha  occ. eigenvalues --   -0.97818  -0.88809  -0.87716  -0.86406  -0.86049
 Alpha  occ. eigenvalues --   -0.85221  -0.84612  -0.84348  -0.84135  -0.83585
 Alpha  occ. eigenvalues --   -0.83170  -0.83098  -0.82278  -0.80969  -0.80552
 Alpha  occ. eigenvalues --   -0.78687  -0.78491  -0.77869  -0.77659  -0.76726
 Alpha  occ. eigenvalues --   -0.75936  -0.75036  -0.73901  -0.73305  -0.71888
 Alpha  occ. eigenvalues --   -0.71409  -0.71155  -0.70704  -0.70218  -0.69969
 Alpha  occ. eigenvalues --   -0.69507  -0.69258  -0.68020  -0.67418  -0.65923
 Alpha  occ. eigenvalues --   -0.65775  -0.64808  -0.63893  -0.63148  -0.61929
 Alpha  occ. eigenvalues --   -0.61750  -0.61021  -0.60452  -0.59338  -0.59182
 Alpha  occ. eigenvalues --   -0.58725  -0.58166  -0.57908  -0.57751  -0.57411
 Alpha  occ. eigenvalues --   -0.56807  -0.55642  -0.55500  -0.55118  -0.54795
 Alpha  occ. eigenvalues --   -0.54477  -0.54305  -0.53510  -0.52868  -0.52369
 Alpha  occ. eigenvalues --   -0.52187  -0.51614  -0.51167  -0.50986  -0.50760
 Alpha  occ. eigenvalues --   -0.50250  -0.50119  -0.49949  -0.49653  -0.49109
 Alpha  occ. eigenvalues --   -0.48832  -0.48429  -0.48234  -0.48150  -0.47953
 Alpha  occ. eigenvalues --   -0.47929  -0.47860  -0.47674  -0.47442  -0.47268
 Alpha  occ. eigenvalues --   -0.47112  -0.46977  -0.46782  -0.46743  -0.46396
 Alpha  occ. eigenvalues --   -0.46026  -0.45839  -0.45571  -0.45337  -0.45009
 Alpha  occ. eigenvalues --   -0.44942  -0.44792  -0.44685  -0.44424  -0.44299
 Alpha  occ. eigenvalues --   -0.44209  -0.43934  -0.43855  -0.43509  -0.43208
 Alpha  occ. eigenvalues --   -0.42812  -0.42571  -0.42365  -0.41991  -0.41882
 Alpha  occ. eigenvalues --   -0.41686  -0.41587  -0.41331  -0.41088  -0.40889
 Alpha  occ. eigenvalues --   -0.40691  -0.40572  -0.40143  -0.39980  -0.39846
 Alpha  occ. eigenvalues --   -0.39524  -0.39413  -0.39318  -0.39145  -0.38822
 Alpha  occ. eigenvalues --   -0.38724  -0.38535  -0.38288  -0.38109  -0.37898
 Alpha  occ. eigenvalues --   -0.37772  -0.37731  -0.37363  -0.37308  -0.37147
 Alpha  occ. eigenvalues --   -0.37089  -0.36813  -0.36580  -0.36158  -0.35915
 Alpha  occ. eigenvalues --   -0.35737  -0.35169  -0.35125  -0.34976  -0.34685
 Alpha  occ. eigenvalues --   -0.34519  -0.33862  -0.33649  -0.32906  -0.32874
 Alpha  occ. eigenvalues --   -0.32557  -0.32245  -0.32073  -0.32052  -0.31902
 Alpha  occ. eigenvalues --   -0.31157  -0.31124  -0.30311  -0.30264  -0.30190
 Alpha  occ. eigenvalues --   -0.29110  -0.28523  -0.28409  -0.28036  -0.27841
 Alpha  occ. eigenvalues --   -0.27769  -0.27561  -0.23985  -0.21322
 Alpha virt. eigenvalues --   -0.08588  -0.06665  -0.02592  -0.01528   0.00525
 Alpha virt. eigenvalues --    0.02952   0.03264   0.03704   0.03971   0.04706
 Alpha virt. eigenvalues --    0.05163   0.05342   0.07786   0.08468   0.09068

 Mulliken charges:
               1
     1  Mg   0.810823
     2  C    0.057920
     3  C   -0.220861
     4  C   -0.070148
     5  C   -0.163162
     6  N   -0.619274
     7  C    0.352615
     8  C   -0.204864
     9  C   -0.123116
    10  C    0.293340
    11  C   -0.311180
    12  C   -0.127502
    13  C   -0.298005
    14  C    0.602062
    15  O   -0.480233
    16  O   -0.473613
    17  N   -0.672763
    18  C    0.363089
    19  C    0.072468
    20  C   -0.030298
    21  C    0.228021
    22  C   -0.369208
    23  C    0.252307
    24  O   -0.435674
    25  N   -0.687214
    26  C    0.308720
    27  C   -0.066895
    28  C    0.059067
    29  C    0.268207
    30  C    0.236588
    31  C   -0.242058
    32  C   -0.312442
    33  N   -0.738344
    34  C    0.267011
    35  C   -0.048105
    36  C   -0.012695
    37  C    0.342180
    38  C   -0.342080
    39  C    0.391995
    40  O   -0.421963
    41  C   -0.324324
    42  C    0.623897
    43  O   -0.462944
    44  O   -0.470046
    45  C   -0.070262
    46  C   -0.003850
    47  C   -0.132021
    48  C    0.120779
    49  C   -0.378956
    50  C   -0.211162
    51  C   -0.166961
    52  C   -0.167321
    53  C   -0.059305
    54  C   -0.303813
    55  C   -0.161695
    56  C   -0.176730
    57  C   -0.181794
    58  C   -0.057302
    59  C   -0.301044
    60  C   -0.179085
    61  C   -0.191693
    62  C   -0.168432
    63  C   -0.022490
    64  C   -0.317230
    65  C   -0.308210
    66  H    0.076128
    67  H    0.069257
    68  H    0.096305
    69  H    0.123986
    70  H    0.115533
    71  H    0.128206
    72  H    0.112830
    73  H    0.096319
    74  H    0.133038
    75  H    0.130584
    76  H    0.140843
    77  H    0.129381
    78  H    0.108996
    79  H    0.167889
    80  H    0.120963
    81  H    0.110383
    82  H    0.112040
    83  H    0.117383
    84  H    0.108382
    85  H    0.123806
    86  H    0.094603
    87  H    0.096511
    88  H    0.155593
    89  H    0.121724
    90  H    0.170036
    91  H    0.119611
    92  H    0.126921
    93  H    0.060403
    94  H    0.133944
    95  H    0.114012
    96  H    0.130132
    97  H    0.103440
    98  H    0.102183
    99  H    0.093130
   100  H    0.076134
   101  H    0.094064
   102  H    0.075563
   103  H    0.089191
   104  H    0.114725
   105  H    0.111447
   106  H    0.075576
   107  H    0.085782
   108  H    0.064669
   109  H    0.075920
   110  H    0.106274
   111  H    0.089330
   112  H    0.088657
   113  H    0.073005
   114  H    0.104045
   115  H    0.104074
   116  H    0.095455
   117  H    0.089361
   118  H    0.084328
   119  H    0.097286
   120  H    0.089463
   121  H    0.091359
   122  H    0.069110
   123  H    0.054914
   124  H    0.084065
   125  H    0.103088
   126  H    0.100888
   127  H    0.109257
   128  H    0.085204
   129  H    0.108743
   130  H    0.127769
   131  H    0.128192
   132  H    0.111146
   133  O   -0.429443
   134  H    0.064143
 Sum of Mulliken charges =   0.00000

 Dipole moment (field-independent basis, Debye):
    X=              2.0254    Y=             -4.0633    Z=             -0.7978  Tot=              4.6097
 Quadrupole moment (field-independent basis, Debye-Ang):
   XX=           -397.8335   YY=           -437.0503   ZZ=           -395.9887
   XY=             10.3274   XZ=             16.3201   YZ=            -31.1614

 Normal termination of Gaussian 09 at Tue Oct  8 20:09:40 2019.
