 Gaussian 09, Revision D.01,
 Gaussian 09:  ES64L-G09RevD.01 24-Apr-2013

 ----------------------------------------------------------------------
 # td=(NStates=1) iop(3/107=0140000000,3/108=0140000000) iop(3/107=0140
 000000,3/108=0140000000) CAM-B3LYP/6-31G(d,p)
 ----------------------------------------------------------------------

 --
 TD
 --
 Symbolic Z-matrix:
 Charge =  0 Multiplicity = 1

                         Standard orientation:
 ---------------------------------------------------------------------
 Center     Atomic      Atomic             Coordinates (Angstroms)
 Number     Number       Type             X           Y           Z
 ---------------------------------------------------------------------
      1         12           0       -5.692740    1.200292    0.143805
      2          6           0       -4.980512   -2.115892   -0.385969
      3          6           0       -3.416301    1.122885    2.836351
      4          6           0       -6.173102    4.499282    0.634208
      5          6           0       -8.106474    1.051369   -2.314322
      6          7           0       -4.326074   -0.257309    0.944337
      7          6           0       -4.180857   -1.674293    0.517141
      8          6           0       -3.075908   -2.292003    1.398761
      9          6           0       -2.943520   -1.366225    2.653420
     10          6           0       -3.642562   -0.119272    2.140236
     11          6           0       -3.533682   -1.723671    3.984064
     12          6           0       -1.900193   -2.746204    0.670303
     13          6           0       -0.751585   -3.407197    1.558627
     14          6           0        0.318381   -3.957948    0.640655
     15          8           0        0.558584   -3.482377   -0.442322
     16          8           0        1.116078   -4.690998    1.249610
     17          7           0       -4.925236    2.597657    1.461461
     18          6           0       -4.033718    2.460823    2.495867
     19          6           0       -3.798837    3.665169    3.255524
     20          6           0       -4.654818    4.616394    2.524723
     21          6           0       -5.311168    3.894281    1.538319
     22          6           0       -2.960870    3.962652    4.452545
     23          6           0       -4.872325    6.027640    2.993781
     24          8           0       -4.325099    6.524962    3.824429
     25          7           0       -6.957999    2.595863   -0.670646
     26          6           0       -6.946641    3.906138   -0.425600
     27          6           0       -7.933352    4.622497   -1.203451
     28          6           0       -8.456845    3.670838   -2.087347
     29          6           0       -7.872968    2.414642   -1.777919
     30          6           0       -8.224167    6.045388   -1.182996
     31          6           0       -9.474466    3.816624   -3.327080
     32          6           0       -8.691334    3.896435   -4.628238
     33          7           0       -6.457140   -0.187606   -0.996096
     34          6           0       -7.418066   -0.093653   -1.994085
     35          6           0       -7.604642   -1.409231   -2.709530
     36          6           0       -6.725199   -2.194324   -2.046616
     37          6           0       -6.004962   -1.432599   -1.156501
     38          6           0       -8.441510   -1.677512   -3.937541
     39          6           0       -6.183889   -3.531490   -2.111838
     40          8           0       -6.535682   -4.573932   -2.639222
     41          6           0       -4.908920   -3.509536   -0.957329
     42          6           0       -5.273433   -4.604031    0.037576
     43          8           0       -5.669683   -4.370454    1.226229
     44          8           0       -5.012510   -5.841497   -0.412384
     45          6           0       -5.167684   -6.904464    0.598559
     46          6           0        2.402902   -5.125144    0.689796
     47          6           0        3.512125   -4.194122    1.067737
     48          6           0        4.064419   -3.316796    0.255455
     49          6           0        3.694648   -3.072316   -1.230766
     50          6           0        5.190822   -2.477996    0.726918
     51          6           0        6.533178   -2.717523    0.077233
     52          6           0        7.734453   -1.854814    0.589458
     53          6           0        9.071864   -1.986452   -0.014324
     54          6           0        9.590667   -3.451917    0.155924
     55          6           0       10.032199   -0.944467    0.494801
     56          6           0       11.420987   -0.955145   -0.275682
     57          6           0       12.362104    0.239906    0.068250
     58          6           0       13.624923    0.429492   -0.650999
     59          6           0       14.553250   -0.656333   -0.270859
     60          6           0       14.299066    1.860733   -0.286339
     61          6           0       15.423277    2.208779   -1.005776
     62          6           0       15.911367    3.651308   -0.746535
     63          6           0       17.236765    4.023989   -1.388134
     64          6           0       17.118977    4.178726   -2.816099
     65          6           0       17.575535    5.485714   -0.796009
     66          1           0       -2.831246    1.036023    3.624899
     67          1           0       -6.522748    5.575950    0.767266
     68          1           0       -8.680722    1.092943   -3.183204
     69          1           0       -3.576669   -3.253043    1.821737
     70          1           0       -1.876575   -1.249941    2.939648
     71          1           0       -2.830238   -2.628853    4.317694
     72          1           0       -3.532738   -0.725659    4.603310
     73          1           0       -4.643436   -2.188261    3.770262
     74          1           0       -2.029935   -3.632295   -0.166886
     75          1           0       -1.459253   -1.877786    0.292586
     76          1           0       -0.299077   -2.441820    2.317578
     77          1           0       -1.332344   -4.252614    2.431937
     78          1           0       -1.711542    4.062863    4.276566
     79          1           0       -3.288632    4.947393    4.883840
     80          1           0       -3.158046    2.938687    5.314109
     81          1           0       -5.802127    6.413372    2.525935
     82          1           0      -10.008608    2.862631   -3.417920
     83          1           0      -10.220346    4.509532   -3.039497
     84          1           0       -9.404194    3.600729   -5.567726
     85          1           0       -8.199884    4.778119   -4.674120
     86          1           0       -7.921849    2.914385   -4.512987
     87          1           0       -8.124365   -1.230665   -4.788730
     88          1           0       -8.278422   -2.719169   -4.285951
     89          1           0       -9.506879   -1.544331   -3.688890
     90          1           0       -4.072907   -3.657538   -1.695087
     91          1           0        2.543153   -6.107969    0.963789
     92          1           0        2.529126   -5.212257   -0.401892
     93          1           0        3.819981   -4.271986    1.985723
     94          1           0        2.633201   -3.618188   -1.549675
     95          1           0        3.888912   -2.132397   -1.544294
     96          1           0        4.735706   -3.476762   -1.893666
     97          1           0        5.055388   -1.415963    0.444457
     98          1           0        5.231872   -2.330774    2.018379
     99          1           0        6.761751   -3.775148    0.325851
    100          1           0        6.438254   -2.756069   -0.970973
    101          1           0        7.526352   -0.713806    0.610506
    102          1           0        7.760693   -1.867135    1.672028
    103          1           0        8.702155   -1.850453   -1.236591
    104          1           0        8.779520   -4.280547   -0.126002
    105          1           0       10.671910   -3.595919   -0.222796
    106          1           0        9.657436   -3.844085    1.199481
    107          1           0        9.692802    0.112847    0.367575
    108          1           0       10.496218   -1.321598    1.465709
    109          1           0       11.878646   -1.811586   -0.093449
    110          1           0       11.224554   -0.968969   -1.353795
    111          1           0       11.673749    1.197044   -0.001090
    112          1           0       12.451666    0.129181    1.086372
    113          1           0       13.405672    0.322702   -1.680926
    114          1           0       14.932837   -0.389229    0.875097
    115          1           0       13.865768   -1.673418   -0.520757
    116          1           0       15.458606   -0.752505   -0.710491
    117          1           0       13.490224    2.615059   -0.447407
    118          1           0       14.544535    1.865942    0.833694
    119          1           0       16.232113    1.283940   -0.860245
    120          1           0       15.164917    2.202980   -2.086919
    121          1           0       15.184934    4.373663   -1.071909
    122          1           0       15.982049    3.950251    0.352871
    123          1           0       18.081896    3.215679   -1.244817
    124          1           0       16.120975    4.667464   -3.070540
    125          1           0       18.074789    4.541407   -3.263042
    126          1           0       16.907035    3.092865   -3.410933
    127          1           0       17.831672    5.662830    0.311039
    128          1           0       18.487157    6.049415   -1.215924
    129          1           0       16.804193    6.045677   -1.085817
    130          1           0       -4.816701   -7.887056    0.094819
    131          1           0       -6.355881   -7.037976    1.096848
    132          1           0       -4.530395   -6.332885    1.430558
    133          8           0       -7.834057    6.859129   -0.436222
    134          1           0       -9.154091    6.287856   -1.767313
 ---------------------------------------------------------------------

 SCF Done:  E(RCAM-B3LYP) =  -3043.28653649     A.U. after   15 cycles

 Excitation energies and oscillator strengths:

 Excited State   1:      Singlet-A      2.0203 eV  613.70 nm  f=0.1463  <S**2>=0.000
     243 -> 245        0.16424
     243 -> 246        0.22008
     244 -> 245        0.62661
     244 -> 246       -0.14886
 This state for optimization and/or second-order correction.
 Total Energy, E(TD-HF/TD-KS) =  -3043.21229294
 Copying the excited state density for this state as the 1-particle RhoCI density.

 The electronic state is 1-A.
 Alpha  occ. eigenvalues --  -46.81001 -19.23205 -19.23117 -19.18465 -19.17872
 Alpha  occ. eigenvalues --  -19.17072 -19.16588 -19.15688 -14.37775 -14.37512
 Alpha  occ. eigenvalues --  -14.36818 -14.36293 -10.35378 -10.34407 -10.32372
 Alpha  occ. eigenvalues --  -10.30432 -10.29767 -10.29759 -10.27723 -10.27252
 Alpha  occ. eigenvalues --  -10.27178 -10.27129 -10.26892 -10.26627 -10.26435
 Alpha  occ. eigenvalues --  -10.26382 -10.26315 -10.25968 -10.25547 -10.25380
 Alpha  occ. eigenvalues --  -10.25224 -10.25054 -10.24833 -10.24727 -10.24307
 Alpha  occ. eigenvalues --  -10.23945 -10.23887 -10.23866 -10.23840 -10.23791
 Alpha  occ. eigenvalues --  -10.23683 -10.23601 -10.23571 -10.23420 -10.23175
 Alpha  occ. eigenvalues --  -10.23073 -10.22793 -10.22724 -10.22459 -10.22453
 Alpha  occ. eigenvalues --  -10.22394 -10.22256 -10.22238 -10.21794 -10.21756
 Alpha  occ. eigenvalues --  -10.21631 -10.21631 -10.21408 -10.21366 -10.21045
 Alpha  occ. eigenvalues --  -10.20984 -10.20673 -10.20422 -10.20347 -10.20216
 Alpha  occ. eigenvalues --  -10.19732  -3.09644  -1.84576  -1.84120  -1.84063
 Alpha  occ. eigenvalues --   -1.16952  -1.13640  -1.12480  -1.09474  -1.07564
 Alpha  occ. eigenvalues --   -1.04675  -1.01963  -1.01620  -0.99763  -0.98431
 Alpha  occ. eigenvalues --   -0.96133  -0.88350  -0.87117  -0.86624  -0.85378
 Alpha  occ. eigenvalues --   -0.85332  -0.84835  -0.84357  -0.84253  -0.83002
 Alpha  occ. eigenvalues --   -0.82662  -0.82028  -0.81957  -0.80749  -0.80279
 Alpha  occ. eigenvalues --   -0.79043  -0.78447  -0.77724  -0.77509  -0.76022
 Alpha  occ. eigenvalues --   -0.75696  -0.74861  -0.73335  -0.72161  -0.71645
 Alpha  occ. eigenvalues --   -0.71073  -0.70622  -0.70310  -0.70061  -0.69996
 Alpha  occ. eigenvalues --   -0.69559  -0.68007  -0.66361  -0.65890  -0.65728
 Alpha  occ. eigenvalues --   -0.65512  -0.64997  -0.64122  -0.62915  -0.61499
 Alpha  occ. eigenvalues --   -0.60959  -0.60323  -0.60011  -0.59253  -0.59136
 Alpha  occ. eigenvalues --   -0.58075  -0.58057  -0.57968  -0.57487  -0.57095
 Alpha  occ. eigenvalues --   -0.57050  -0.56250  -0.55755  -0.55122  -0.54319
 Alpha  occ. eigenvalues --   -0.53908  -0.53645  -0.52722  -0.52351  -0.51764
 Alpha  occ. eigenvalues --   -0.51744  -0.51377  -0.50997  -0.50584  -0.50430
 Alpha  occ. eigenvalues --   -0.50314  -0.50007  -0.49522  -0.49454  -0.49279
 Alpha  occ. eigenvalues --   -0.49009  -0.48782  -0.48532  -0.48186  -0.47915
 Alpha  occ. eigenvalues --   -0.47718  -0.47569  -0.47310  -0.47170  -0.47131
 Alpha  occ. eigenvalues --   -0.47047  -0.46994  -0.46382  -0.46292  -0.46074
 Alpha  occ. eigenvalues --   -0.45509  -0.45286  -0.45176  -0.45084  -0.44701
 Alpha  occ. eigenvalues --   -0.44562  -0.44378  -0.44266  -0.44007  -0.43611
 Alpha  occ. eigenvalues --   -0.43384  -0.43257  -0.43094  -0.42900  -0.42691
 Alpha  occ. eigenvalues --   -0.42486  -0.42225  -0.42126  -0.42007  -0.41845
 Alpha  occ. eigenvalues --   -0.41662  -0.41353  -0.41054  -0.40837  -0.40731
 Alpha  occ. eigenvalues --   -0.40560  -0.40370  -0.39891  -0.39795  -0.39602
 Alpha  occ. eigenvalues --   -0.39327  -0.39054  -0.38919  -0.38821  -0.38718
 Alpha  occ. eigenvalues --   -0.38626  -0.38337  -0.38169  -0.37996  -0.37833
 Alpha  occ. eigenvalues --   -0.37618  -0.37403  -0.37060  -0.36893  -0.36507
 Alpha  occ. eigenvalues --   -0.36421  -0.36171  -0.35925  -0.35847  -0.35331
 Alpha  occ. eigenvalues --   -0.35264  -0.35196  -0.34839  -0.34483  -0.34210
 Alpha  occ. eigenvalues --   -0.34052  -0.33995  -0.33901  -0.33636  -0.33078
 Alpha  occ. eigenvalues --   -0.32524  -0.32376  -0.32281  -0.31798  -0.31784
 Alpha  occ. eigenvalues --   -0.31017  -0.30562  -0.30225  -0.30188  -0.29982
 Alpha  occ. eigenvalues --   -0.29536  -0.28273  -0.28185  -0.27737  -0.27594
 Alpha  occ. eigenvalues --   -0.27509  -0.26950  -0.23083  -0.21343
 Alpha virt. eigenvalues --   -0.08549  -0.06670  -0.01484   0.00680   0.01074
 Alpha virt. eigenvalues --    0.02148   0.02568   0.03543   0.04207   0.04598
 Alpha virt. eigenvalues --    0.04812   0.06232   0.07077   0.08137   0.08634

 Mulliken charges:
               1
     1  Mg   0.827905
     2  C    0.086762
     3  C   -0.171652
     4  C   -0.198586
     5  C   -0.158161
     6  N   -0.628732
     7  C    0.278774
     8  C   -0.149163
     9  C   -0.137066
    10  C    0.340901
    11  C   -0.282108
    12  C   -0.143227
    13  C   -0.247338
    14  C    0.594539
    15  O   -0.478656
    16  O   -0.401264
    17  N   -0.689273
    18  C    0.280655
    19  C    0.072574
    20  C   -0.079927
    21  C    0.357760
    22  C   -0.363649
    23  C    0.273905
    24  O   -0.345534
    25  N   -0.683552
    26  C    0.316746
    27  C   -0.039690
    28  C    0.001030
    29  C    0.230677
    30  C    0.241972
    31  C   -0.228948
    32  C   -0.280338
    33  N   -0.713601
    34  C    0.266564
    35  C    0.027635
    36  C    0.080617
    37  C    0.298475
    38  C   -0.389335
    39  C    0.318319
    40  O   -0.437121
    41  C   -0.363124
    42  C    0.647000
    43  O   -0.508542
    44  O   -0.434896
    45  C   -0.070674
    46  C   -0.012864
    47  C   -0.130636
    48  C    0.187147
    49  C   -0.358115
    50  C   -0.237273
    51  C   -0.170456
    52  C   -0.167927
    53  C   -0.001206
    54  C   -0.328062
    55  C   -0.183962
    56  C   -0.211599
    57  C   -0.153245
    58  C   -0.054109
    59  C   -0.277498
    60  C   -0.159749
    61  C   -0.146712
    62  C   -0.171328
    63  C   -0.043271
    64  C   -0.279731
    65  C   -0.319095
    66  H    0.057259
    67  H    0.135376
    68  H    0.086241
    69  H    0.115282
    70  H    0.105170
    71  H    0.092620
    72  H    0.112217
    73  H    0.114945
    74  H    0.103199
    75  H    0.131055
    76  H    0.101050
    77  H    0.071166
    78  H    0.108590
    79  H    0.164487
    80  H    0.065948
    81  H    0.055405
    82  H    0.109408
    83  H    0.119309
    84  H    0.093212
    85  H    0.134817
    86  H    0.082739
    87  H    0.148074
    88  H    0.144974
    89  H    0.136665
    90  H    0.159057
    91  H    0.123297
    92  H    0.123152
    93  H    0.076441
    94  H    0.147438
    95  H    0.136140
    96  H    0.061425
    97  H    0.106186
    98  H    0.059939
    99  H    0.094800
   100  H    0.100863
   101  H    0.066872
   102  H    0.091263
   103  H    0.044389
   104  H    0.092176
   105  H    0.100473
   106  H    0.100973
   107  H    0.099826
   108  H    0.101431
   109  H    0.106559
   110  H    0.083925
   111  H    0.058484
   112  H    0.095533
   113  H    0.087943
   114  H    0.068220
   115  H    0.068719
   116  H    0.114514
   117  H    0.079620
   118  H    0.078797
   119  H    0.060476
   120  H    0.092261
   121  H    0.094566
   122  H    0.083481
   123  H    0.077567
   124  H    0.092762
   125  H    0.107885
   126  H    0.062349
   127  H    0.093781
   128  H    0.081551
   129  H    0.116390
   130  H    0.132034
   131  H    0.111880
   132  H    0.128633
   133  O   -0.392061
   134  H    0.039820
 Sum of Mulliken charges =   0.00000

 Dipole moment (field-independent basis, Debye):
    X=              2.5143    Y=             -4.1505    Z=             -2.2055  Tot=              5.3303
 Quadrupole moment (field-independent basis, Debye-Ang):
   XX=           -378.7162   YY=           -428.9973   ZZ=           -392.9564
   XY=              9.0236   XZ=             31.1137   YZ=            -25.4185

 Normal termination of Gaussian 09 at Tue Oct  8 13:36:32 2019.
