 Gaussian 09, Revision D.01,
 Gaussian 09:  ES64L-G09RevD.01 24-Apr-2013

 ----------------------------------------------------------------------
 # td=(NStates=1) iop(3/107=0140000000,3/108=0140000000) iop(3/107=0140
 000000,3/108=0140000000) CAM-B3LYP/6-31G(d,p)
 ----------------------------------------------------------------------

 --
 TD
 --
 Symbolic Z-matrix:
 Charge =  0 Multiplicity = 1

                         Standard orientation:
 ---------------------------------------------------------------------
 Center     Atomic      Atomic             Coordinates (Angstroms)
 Number     Number       Type             X           Y           Z
 ---------------------------------------------------------------------
      1         12           0       -5.691379    1.201707    0.203107
      2          6           0       -5.048144   -2.157946   -0.458836
      3          6           0       -3.333247    1.152485    2.744150
      4          6           0       -6.203003    4.596516    0.720799
      5          6           0       -8.036976    1.177177   -2.386782
      6          7           0       -4.412182   -0.291671    1.038052
      7          6           0       -4.281087   -1.632840    0.597565
      8          6           0       -3.324890   -2.407070    1.503600
      9          6           0       -2.959257   -1.404065    2.504753
     10          6           0       -3.536907   -0.155885    2.105326
     11          6           0       -3.365960   -1.726704    4.007578
     12          6           0       -2.071996   -2.845219    0.599042
     13          6           0       -1.110398   -3.639775    1.405314
     14          6           0        0.259125   -3.832881    0.703828
     15          8           0        0.470334   -3.441028   -0.412364
     16          8           0        1.071930   -4.708645    1.315506
     17          7           0       -4.740509    2.597079    1.433059
     18          6           0       -3.948951    2.341675    2.472666
     19          6           0       -3.767671    3.652810    3.182762
     20          6           0       -4.548672    4.588378    2.624982
     21          6           0       -5.199368    3.940138    1.515711
     22          6           0       -2.866677    3.711634    4.368761
     23          6           0       -4.601581    6.044330    2.835631
     24          8           0       -3.998501    6.532461    3.817112
     25          7           0       -6.959135    2.592781   -0.557200
     26          6           0       -6.924176    3.946747   -0.329615
     27          6           0       -7.911955    4.685070   -1.186518
     28          6           0       -8.408796    3.666492   -2.021941
     29          6           0       -7.774702    2.400053   -1.683857
     30          6           0       -8.248706    6.082670   -1.044159
     31          6           0       -9.422462    3.861042   -3.207278
     32          6           0       -8.774584    4.124282   -4.532477
     33          7           0       -6.362873   -0.113025   -1.146685
     34          6           0       -7.416528   -0.018082   -2.119799
     35          6           0       -7.666313   -1.319522   -2.751031
     36          6           0       -6.704086   -2.228856   -2.046162
     37          6           0       -5.916443   -1.391715   -1.226382
     38          6           0       -8.562183   -1.610730   -3.800685
     39          6           0       -6.303568   -3.537025   -2.085748
     40          8           0       -6.566963   -4.585798   -2.706709
     41          6           0       -5.078247   -3.545739   -0.925547
     42          6           0       -5.339314   -4.592556    0.074624
     43          8           0       -5.770911   -4.417879    1.215707
     44          8           0       -5.117732   -5.803332   -0.440131
     45          6           0       -5.386493   -6.898081    0.481089
     46          6           0        2.341200   -5.017239    0.690033
     47          6           0        3.460014   -4.155111    1.114066
     48          6           0        4.052545   -3.331409    0.251893
     49          6           0        3.668353   -2.991103   -1.224101
     50          6           0        5.096610   -2.440667    0.782615
     51          6           0        6.517476   -2.563066    0.097994
     52          6           0        7.637706   -1.667667    0.593731
     53          6           0        9.041271   -1.960050   -0.187291
     54          6           0        9.641339   -3.375624    0.167126
     55          6           0       10.047508   -0.874975    0.265002
     56          6           0       11.432412   -0.955427   -0.303916
     57          6           0       12.235896    0.302788    0.041731
     58          6           0       13.575170    0.325534   -0.647131
     59          6           0       14.590499   -0.731407   -0.254111
     60          6           0       14.214599    1.802719   -0.312831
     61          6           0       15.449755    2.148558   -1.078200
     62          6           0       15.991194    3.490990   -0.632710
     63          6           0       17.317073    3.880880   -1.357925
     64          6           0       17.271207    4.056587   -2.819014
     65          6           0       17.933375    5.074058   -0.682481
     66          1           0       -2.915876    1.018306    3.649264
     67          1           0       -6.250263    5.724899    0.811652
     68          1           0       -8.603231    1.205794   -3.192449
     69          1           0       -3.916284   -3.358134    1.997080
     70          1           0       -1.823329   -1.626712    2.712046
     71          1           0       -2.946504   -2.892840    4.281510
     72          1           0       -2.855455   -1.146249    4.896209
     73          1           0       -4.531844   -1.769825    4.086794
     74          1           0       -2.465765   -3.308713   -0.354093
     75          1           0       -1.623593   -1.865017    0.227373
     76          1           0       -0.688986   -3.018988    2.356881
     77          1           0       -1.472716   -4.468176    1.715787
     78          1           0       -1.679035    3.643778    4.151712
     79          1           0       -3.030082    4.795114    4.954228
     80          1           0       -2.817449    2.799239    5.181580
     81          1           0       -5.107633    6.655993    2.211084
     82          1           0       -9.997907    2.942706   -3.349520
     83          1           0      -10.087179    4.676495   -3.084201
     84          1           0       -9.420507    4.256827   -5.196670
     85          1           0       -8.009911    5.025933   -4.727004
     86          1           0       -8.214758    3.259849   -4.924777
     87          1           0       -8.429600   -1.042080   -4.701670
     88          1           0       -8.527369   -2.516141   -3.977470
     89          1           0       -9.563300   -1.499274   -3.482127
     90          1           0       -4.184501   -3.870362   -1.514515
     91          1           0        2.353540   -6.172492    0.879036
     92          1           0        2.227408   -4.788122   -0.413138
     93          1           0        3.719464   -3.868168    2.207845
     94          1           0        2.571153   -3.230800   -1.506121
     95          1           0        3.746351   -1.848896   -1.492346
     96          1           0        4.320155   -3.537134   -1.830552
     97          1           0        4.826109   -1.507753    0.667572
     98          1           0        5.412715   -2.638488    1.820560
     99          1           0        6.848326   -3.683079    0.298052
    100          1           0        6.287253   -2.612019   -1.050866
    101          1           0        7.351136   -0.824531    0.329508
    102          1           0        7.830303   -1.800010    1.730677
    103          1           0        9.058606   -1.722708   -1.183939
    104          1           0        8.899838   -4.205793   -0.042883
    105          1           0       10.580865   -3.676144   -0.441181
    106          1           0        9.525742   -3.283491    1.222240
    107          1           0        9.664374    0.180699    0.052447
    108          1           0       10.197505   -0.830772    1.430212
    109          1           0       11.855884   -1.849647    0.179158
    110          1           0       11.394276   -0.958906   -1.424608
    111          1           0       11.704640    1.208966   -0.160132
    112          1           0       12.111876    0.250102    1.370785
    113          1           0       13.272296    0.397888   -1.674855
    114          1           0       14.940856   -0.466434    0.716670
    115          1           0       14.153677   -1.795850   -0.287558
    116          1           0       15.416639   -0.389642   -1.017442
    117          1           0       13.598266    2.554548   -0.559837
    118          1           0       14.261414    1.928735    0.806756
    119          1           0       16.146764    1.354545   -0.893368
    120          1           0       15.173681    2.080693   -2.135174
    121          1           0       15.468678    4.479165   -0.936146
    122          1           0       16.182310    3.700934    0.507342
    123          1           0       18.104095    2.968042   -1.290119
    124          1           0       16.654611    4.839423   -3.203181
    125          1           0       18.163135    3.974523   -3.344141
    126          1           0       16.944951    3.235072   -3.264554
    127          1           0       18.078347    4.533481    0.344827
    128          1           0       19.135431    5.243346   -1.059291
    129          1           0       17.439126    6.033103   -0.725986
    130          1           0       -5.360267   -7.809207   -0.019964
    131          1           0       -6.505075   -6.684588    0.815583
    132          1           0       -4.760951   -6.749049    1.394094
    133          8           0       -7.783440    6.911720   -0.345347
    134          1           0       -9.036616    6.260368   -1.777770
 ---------------------------------------------------------------------

 SCF Done:  E(RCAM-B3LYP) =  -3043.39329093     A.U. after   16 cycles

 Excitation energies and oscillator strengths:

 Excited State   1:      Singlet-A      1.9992 eV  620.17 nm  f=0.1704  <S**2>=0.000
     243 -> 246       -0.27639
     244 -> 245        0.63960
 This state for optimization and/or second-order correction.
 Total Energy, E(TD-HF/TD-KS) =  -3043.31982212
 Copying the excited state density for this state as the 1-particle RhoCI density.

 The electronic state is 1-A.
 Alpha  occ. eigenvalues --  -46.81354 -19.22174 -19.21900 -19.17578 -19.17219
 Alpha  occ. eigenvalues --  -19.16849 -19.16623 -19.16114 -14.39516 -14.37615
 Alpha  occ. eigenvalues --  -14.36983 -14.36815 -10.34868 -10.34115 -10.30916
 Alpha  occ. eigenvalues --  -10.30240 -10.30003 -10.28921 -10.27987 -10.27638
 Alpha  occ. eigenvalues --  -10.27434 -10.27163 -10.27087 -10.26992 -10.26802
 Alpha  occ. eigenvalues --  -10.26476 -10.26398 -10.25993 -10.25934 -10.25630
 Alpha  occ. eigenvalues --  -10.25032 -10.24943 -10.24796 -10.24557 -10.24377
 Alpha  occ. eigenvalues --  -10.24283 -10.24210 -10.24127 -10.23885 -10.23697
 Alpha  occ. eigenvalues --  -10.23374 -10.23330 -10.23012 -10.22906 -10.22642
 Alpha  occ. eigenvalues --  -10.22405 -10.22336 -10.22279 -10.22199 -10.21828
 Alpha  occ. eigenvalues --  -10.21809 -10.21765 -10.21657 -10.21622 -10.21616
 Alpha  occ. eigenvalues --  -10.21317 -10.21221 -10.21090 -10.21052 -10.20982
 Alpha  occ. eigenvalues --  -10.20664 -10.20568 -10.20486 -10.20202 -10.19522
 Alpha  occ. eigenvalues --  -10.17297  -3.09945  -1.84881  -1.84424  -1.84351
 Alpha  occ. eigenvalues --   -1.13672  -1.13156  -1.09234  -1.05328  -1.04861
 Alpha  occ. eigenvalues --   -1.04651  -1.03332  -1.00116  -0.99269  -0.98906
 Alpha  occ. eigenvalues --   -0.97977  -0.89015  -0.86554  -0.86168  -0.85721
 Alpha  occ. eigenvalues --   -0.85546  -0.84849  -0.84647  -0.84368  -0.83407
 Alpha  occ. eigenvalues --   -0.83314  -0.83076  -0.82020  -0.80668  -0.79945
 Alpha  occ. eigenvalues --   -0.79845  -0.78915  -0.78735  -0.77355  -0.76857
 Alpha  occ. eigenvalues --   -0.75791  -0.74898  -0.73616  -0.72658  -0.72590
 Alpha  occ. eigenvalues --   -0.71895  -0.71637  -0.70316  -0.70172  -0.69735
 Alpha  occ. eigenvalues --   -0.68903  -0.68662  -0.67760  -0.67121  -0.66999
 Alpha  occ. eigenvalues --   -0.66319  -0.64997  -0.64588  -0.62282  -0.61947
 Alpha  occ. eigenvalues --   -0.61590  -0.60763  -0.60486  -0.58860  -0.58532
 Alpha  occ. eigenvalues --   -0.58343  -0.58253  -0.58085  -0.57561  -0.57193
 Alpha  occ. eigenvalues --   -0.56732  -0.56696  -0.55544  -0.55420  -0.54576
 Alpha  occ. eigenvalues --   -0.54479  -0.53806  -0.53233  -0.52366  -0.52137
 Alpha  occ. eigenvalues --   -0.51947  -0.51619  -0.51177  -0.50949  -0.50914
 Alpha  occ. eigenvalues --   -0.50592  -0.50209  -0.49767  -0.49705  -0.49524
 Alpha  occ. eigenvalues --   -0.48965  -0.48877  -0.48533  -0.48413  -0.47889
 Alpha  occ. eigenvalues --   -0.47740  -0.47541  -0.47380  -0.47348  -0.47146
 Alpha  occ. eigenvalues --   -0.46914  -0.46726  -0.46542  -0.46131  -0.46075
 Alpha  occ. eigenvalues --   -0.45800  -0.45719  -0.45371  -0.45159  -0.44973
 Alpha  occ. eigenvalues --   -0.44825  -0.44603  -0.44423  -0.44188  -0.43902
 Alpha  occ. eigenvalues --   -0.43849  -0.43711  -0.43359  -0.43012  -0.42852
 Alpha  occ. eigenvalues --   -0.42599  -0.42560  -0.42295  -0.42146  -0.41974
 Alpha  occ. eigenvalues --   -0.41797  -0.41484  -0.41320  -0.41199  -0.40866
 Alpha  occ. eigenvalues --   -0.40644  -0.40432  -0.40278  -0.40040  -0.39802
 Alpha  occ. eigenvalues --   -0.39764  -0.39584  -0.39236  -0.39198  -0.38959
 Alpha  occ. eigenvalues --   -0.38841  -0.38537  -0.38449  -0.38190  -0.38064
 Alpha  occ. eigenvalues --   -0.37951  -0.37565  -0.37356  -0.37160  -0.37053
 Alpha  occ. eigenvalues --   -0.36657  -0.36402  -0.36057  -0.35837  -0.35553
 Alpha  occ. eigenvalues --   -0.35363  -0.35335  -0.34762  -0.34694  -0.34281
 Alpha  occ. eigenvalues --   -0.34237  -0.33686  -0.33586  -0.33428  -0.33075
 Alpha  occ. eigenvalues --   -0.32972  -0.32523  -0.32307  -0.32242  -0.31819
 Alpha  occ. eigenvalues --   -0.31547  -0.30378  -0.30212  -0.29709  -0.29405
 Alpha  occ. eigenvalues --   -0.28700  -0.28209  -0.28102  -0.27793  -0.27598
 Alpha  occ. eigenvalues --   -0.27562  -0.26925  -0.23056  -0.21613
 Alpha virt. eigenvalues --   -0.08717  -0.06871  -0.03015  -0.01274   0.00202
 Alpha virt. eigenvalues --    0.02737   0.03194   0.03551   0.03717   0.04370
 Alpha virt. eigenvalues --    0.04843   0.05783   0.07663   0.07946   0.09555

 Mulliken charges:
               1
     1  Mg   0.830396
     2  C    0.116333
     3  C   -0.169538
     4  C   -0.183960
     5  C   -0.127258
     6  N   -0.624804
     7  C    0.281138
     8  C   -0.154541
     9  C   -0.145449
    10  C    0.360387
    11  C   -0.308218
    12  C   -0.175729
    13  C   -0.235292
    14  C    0.578873
    15  O   -0.455468
    16  O   -0.461288
    17  N   -0.705798
    18  C    0.350547
    19  C    0.076452
    20  C   -0.007102
    21  C    0.269992
    22  C   -0.408218
    23  C    0.266988
    24  O   -0.428831
    25  N   -0.692065
    26  C    0.285252
    27  C   -0.024344
    28  C    0.008917
    29  C    0.289819
    30  C    0.272138
    31  C   -0.244969
    32  C   -0.303145
    33  N   -0.735661
    34  C    0.266933
    35  C    0.046832
    36  C    0.060597
    37  C    0.294904
    38  C   -0.373273
    39  C    0.302255
    40  O   -0.482785
    41  C   -0.378181
    42  C    0.641228
    43  O   -0.508646
    44  O   -0.440531
    45  C   -0.081520
    46  C   -0.013367
    47  C   -0.127353
    48  C    0.151445
    49  C   -0.390260
    50  C   -0.220579
    51  C   -0.202485
    52  C   -0.144156
    53  C   -0.065786
    54  C   -0.313535
    55  C   -0.173814
    56  C   -0.171700
    57  C   -0.141197
    58  C   -0.065482
    59  C   -0.297703
    60  C   -0.192811
    61  C   -0.178009
    62  C   -0.159159
    63  C   -0.056740
    64  C   -0.304051
    65  C   -0.283733
    66  H    0.067880
    67  H    0.139505
    68  H    0.073645
    69  H    0.138486
    70  H    0.111357
    71  H    0.076114
    72  H    0.115219
    73  H    0.123985
    74  H    0.120618
    75  H    0.121599
    76  H    0.109546
    77  H    0.142099
    78  H    0.113117
    79  H    0.145874
    80  H    0.103656
    81  H    0.103102
    82  H    0.111447
    83  H    0.122619
    84  H    0.125952
    85  H    0.095147
    86  H    0.100150
    87  H    0.135462
    88  H    0.149416
    89  H    0.135971
    90  H    0.154264
    91  H    0.106803
    92  H    0.126026
    93  H    0.082821
    94  H    0.149104
    95  H    0.106127
    96  H    0.136482
    97  H    0.111381
    98  H    0.090037
    99  H    0.073057
   100  H    0.079527
   101  H    0.106463
   102  H    0.085690
   103  H    0.091979
   104  H    0.094641
   105  H    0.107650
   106  H    0.112068
   107  H    0.072032
   108  H    0.061981
   109  H    0.105586
   110  H    0.076426
   111  H    0.094601
   112  H    0.019301
   113  H    0.088640
   114  H    0.120821
   115  H    0.100129
   116  H    0.092868
   117  H    0.098563
   118  H    0.084278
   119  H    0.100541
   120  H    0.101119
   121  H    0.080671
   122  H    0.084135
   123  H    0.052162
   124  H    0.093248
   125  H    0.103841
   126  H    0.101268
   127  H    0.091176
   128  H    0.062513
   129  H    0.110574
   130  H    0.135467
   131  H    0.123557
   132  H    0.126477
   133  O   -0.415238
   134  H    0.044292
 Sum of Mulliken charges =   0.00000

 Dipole moment (field-independent basis, Debye):
    X=              0.8362    Y=             -3.3519    Z=             -2.1631  Tot=              4.0759
 Quadrupole moment (field-independent basis, Debye-Ang):
   XX=           -384.1172   YY=           -442.4731   ZZ=           -390.1645
   XY=              0.1179   XZ=             18.6789   YZ=            -36.3893

 Normal termination of Gaussian 09 at Fri Oct  4 00:32:44 2019.
