 Gaussian 09, Revision D.01,
 Gaussian 09:  ES64L-G09RevD.01 24-Apr-2013

 ----------------------------------------------------------------------
 # td=(NStates=1) iop(3/107=0140000000,3/108=0140000000) iop(3/107=0140
 000000,3/108=0140000000) CAM-B3LYP/6-31G(d,p)
 ----------------------------------------------------------------------

 --
 TD
 --
 Symbolic Z-matrix:
 Charge =  0 Multiplicity = 1

                         Standard orientation:
 ---------------------------------------------------------------------
 Center     Atomic      Atomic             Coordinates (Angstroms)
 Number     Number       Type             X           Y           Z
 ---------------------------------------------------------------------
      1         12           0       -5.659599    1.220828    0.187595
      2          6           0       -5.019927   -2.133601   -0.365484
      3          6           0       -3.355529    1.129696    2.864685
      4          6           0       -6.207395    4.536454    0.643663
      5          6           0       -7.932297    1.190308   -2.291158
      6          7           0       -4.383237   -0.210136    1.035448
      7          6           0       -4.234334   -1.529787    0.728870
      8          6           0       -3.152600   -2.254994    1.542010
      9          6           0       -2.978210   -1.268676    2.587207
     10          6           0       -3.478176    0.004571    2.102819
     11          6           0       -3.451189   -1.634312    4.012414
     12          6           0       -1.900707   -2.643774    0.657928
     13          6           0       -0.881690   -3.551964    1.425138
     14          6           0        0.273747   -3.937811    0.597631
     15          8           0        0.499013   -3.460739   -0.493789
     16          8           0        1.109154   -4.810379    1.230054
     17          7           0       -4.980229    2.642169    1.518031
     18          6           0       -3.895667    2.500752    2.529076
     19          6           0       -3.747185    3.712922    3.145653
     20          6           0       -4.527577    4.696129    2.480447
     21          6           0       -5.367706    3.880732    1.565869
     22          6           0       -2.806539    3.879175    4.321899
     23          6           0       -4.637951    6.113859    2.796998
     24          8           0       -3.858994    6.628280    3.569257
     25          7           0       -6.956153    2.568757   -0.623339
     26          6           0       -7.025741    3.915072   -0.310892
     27          6           0       -7.976945    4.599118   -1.205020
     28          6           0       -8.461635    3.607605   -2.120892
     29          6           0       -7.848974    2.322373   -1.693498
     30          6           0       -8.221391    5.972814   -1.149103
     31          6           0       -9.326613    3.795865   -3.285643
     32          6           0       -8.681637    3.810174   -4.722217
     33          7           0       -6.281633   -0.064888   -1.169506
     34          6           0       -7.288432    0.044025   -2.104250
     35          6           0       -7.487151   -1.328519   -2.739663
     36          6           0       -6.578057   -2.180680   -2.050601
     37          6           0       -5.932621   -1.403608   -1.122812
     38          6           0       -8.478785   -1.696395   -3.823727
     39          6           0       -6.197112   -3.624336   -1.977011
     40          8           0       -6.585112   -4.606002   -2.576795
     41          6           0       -5.065689   -3.582050   -0.857560
     42          6           0       -5.222672   -4.624156    0.224829
     43          8           0       -5.719344   -4.342789    1.281185
     44          8           0       -5.033665   -5.818069   -0.253517
     45          6           0       -5.427660   -6.914805    0.558286
     46          6           0        2.322261   -5.144434    0.550977
     47          6           0        3.359944   -4.156781    0.935567
     48          6           0        3.967654   -3.359112    0.087502
     49          6           0        3.687747   -3.251554   -1.317087
     50          6           0        5.048295   -2.467076    0.640075
     51          6           0        6.489511   -2.650079    0.168198
     52          6           0        7.660886   -1.855967    0.801180
     53          6           0        8.989366   -1.977656   -0.035687
     54          6           0        9.606190   -3.483919    0.118506
     55          6           0        9.950872   -0.932657    0.558958
     56          6           0       11.246963   -0.815691   -0.183895
     57          6           0       12.170850    0.384497    0.156824
     58          6           0       13.422929    0.536758   -0.683787
     59          6           0       14.249450   -0.722710   -0.414319
     60          6           0       14.141690    1.834276   -0.182742
     61          6           0       15.385520    2.177643   -1.036633
     62          6           0       16.039493    3.541157   -0.598859
     63          6           0       17.388259    3.856916   -1.366552
     64          6           0       17.129734    3.941680   -2.941176
     65          6           0       17.921540    5.177951   -0.771434
     66          1           0       -2.669545    0.957523    3.802875
     67          1           0       -6.537958    5.523783    0.800021
     68          1           0       -8.446999    1.054944   -3.222550
     69          1           0       -3.616371   -3.191061    1.823530
     70          1           0       -1.747151   -1.183013    2.668048
     71          1           0       -2.751142   -2.626249    4.297155
     72          1           0       -3.170634   -0.931563    4.809320
     73          1           0       -4.503467   -1.989187    3.818503
     74          1           0       -2.332294   -3.165215   -0.159786
     75          1           0       -1.376529   -1.769952    0.331256
     76          1           0       -0.660277   -3.122790    2.489236
     77          1           0       -1.510638   -4.450048    1.589427
     78          1           0       -1.846852    3.676590    4.026465
     79          1           0       -2.796863    5.041443    4.407987
     80          1           0       -3.091783    3.409521    5.277044
     81          1           0       -5.537404    6.596087    2.376263
     82          1           0      -10.195867    3.033619   -3.340758
     83          1           0      -10.008901    4.850470   -3.075748
     84          1           0       -9.332536    3.723574   -5.274447
     85          1           0       -8.185543    4.740395   -4.832438
     86          1           0       -8.012500    2.658544   -4.726076
     87          1           0       -8.680163   -0.910833   -4.665813
     88          1           0       -8.394662   -2.690876   -4.119894
     89          1           0       -9.503019   -1.573477   -3.298263
     90          1           0       -4.059430   -3.695792   -1.422105
     91          1           0        2.586750   -5.964797    0.955468
     92          1           0        2.315002   -5.311755   -0.612002
     93          1           0        3.531390   -4.498838    1.933677
     94          1           0        2.781025   -3.650618   -1.466449
     95          1           0        3.985551   -2.276244   -1.817055
     96          1           0        4.105369   -3.948297   -1.744942
     97          1           0        4.819528   -1.407934    0.098617
     98          1           0        4.909554   -2.332492    1.798701
     99          1           0        6.683882   -3.687872    0.372159
    100          1           0        6.537771   -2.451856   -0.860372
    101          1           0        7.456834   -0.856517    0.639516
    102          1           0        7.596307   -2.034526    1.877947
    103          1           0        8.716024   -1.779182   -1.090478
    104          1           0        8.846698   -4.165273   -0.481340
    105          1           0       10.601858   -3.340242   -0.295563
    106          1           0        9.580616   -3.766402    1.207615
    107          1           0        9.414527    0.017732    0.744738
    108          1           0       10.188607   -1.131030    1.478673
    109          1           0       11.896431   -1.700291   -0.388539
    110          1           0       11.047409   -0.614402   -1.175554
    111          1           0       11.494450    1.249390    0.019104
    112          1           0       12.369821    0.179127    1.318289
    113          1           0       13.232455    0.603045   -1.807970
    114          1           0       14.532049   -0.916201    0.626305
    115          1           0       13.717931   -1.456691   -0.927179
    116          1           0       15.156083   -0.617587   -1.024920
    117          1           0       13.512907    2.618061   -0.420443
    118          1           0       14.483378    1.791025    0.846564
    119          1           0       16.255047    1.558559   -0.710967
    120          1           0       15.246737    2.230061   -2.051813
    121          1           0       15.224171    4.383401   -0.722245
    122          1           0       16.195536    3.693190    0.444849
    123          1           0       18.170387    3.088999   -0.920640
    124          1           0       16.369245    4.701009   -3.080413
    125          1           0       18.090139    4.254206   -3.454400
    126          1           0       16.711255    2.947769   -3.193334
    127          1           0       18.014357    4.999139    0.211340
    128          1           0       18.899943    5.447561   -1.291945
    129          1           0       17.355854    5.825306   -0.963585
    130          1           0       -4.845579   -7.726453   -0.009242
    131          1           0       -6.530918   -6.885055    0.703732
    132          1           0       -4.935767   -6.739719    1.556135
    133          8           0       -7.677401    6.913576   -0.404167
    134          1           0       -9.040006    6.261473   -1.803735
 ---------------------------------------------------------------------

 SCF Done:  E(RCAM-B3LYP) =  -3043.36497643     A.U. after   16 cycles

 Excitation energies and oscillator strengths:

 Excited State   1:      Singlet-A      1.8659 eV  664.48 nm  f=0.2005  <S**2>=0.000
     243 -> 246       -0.23873
     244 -> 245        0.65142
 This state for optimization and/or second-order correction.
 Total Energy, E(TD-HF/TD-KS) =  -3043.29640660
 Copying the excited state density for this state as the 1-particle RhoCI density.

 The electronic state is 1-A.
 Alpha  occ. eigenvalues --  -46.80390 -19.23827 -19.22435 -19.18792 -19.17702
 Alpha  occ. eigenvalues --  -19.17396 -19.16455 -19.16033 -14.39569 -14.37039
 Alpha  occ. eigenvalues --  -14.36311 -14.36241 -10.35487 -10.35206 -10.33096
 Alpha  occ. eigenvalues --  -10.29770 -10.29228 -10.29130 -10.28729 -10.27013
 Alpha  occ. eigenvalues --  -10.26581 -10.26473 -10.26434 -10.26285 -10.26172
 Alpha  occ. eigenvalues --  -10.26161 -10.26079 -10.26016 -10.25919 -10.25662
 Alpha  occ. eigenvalues --  -10.25488 -10.24931 -10.24543 -10.24537 -10.24388
 Alpha  occ. eigenvalues --  -10.24385 -10.24369 -10.23901 -10.23697 -10.23319
 Alpha  occ. eigenvalues --  -10.23087 -10.22932 -10.22732 -10.22619 -10.22545
 Alpha  occ. eigenvalues --  -10.22441 -10.22393 -10.22363 -10.22201 -10.21966
 Alpha  occ. eigenvalues --  -10.21906 -10.21454 -10.21057 -10.21007 -10.20714
 Alpha  occ. eigenvalues --  -10.20127 -10.20016 -10.19965 -10.19939 -10.19850
 Alpha  occ. eigenvalues --  -10.19828 -10.19409 -10.19354 -10.19180 -10.18176
 Alpha  occ. eigenvalues --  -10.16960  -3.09152  -1.84081  -1.83636  -1.83564
 Alpha  occ. eigenvalues --   -1.16626  -1.13457  -1.08314  -1.06851  -1.06226
 Alpha  occ. eigenvalues --   -1.05223  -1.01171  -1.00471  -0.99525  -0.98531
 Alpha  occ. eigenvalues --   -0.97476  -0.89286  -0.87235  -0.86405  -0.85762
 Alpha  occ. eigenvalues --   -0.85496  -0.84720  -0.84163  -0.84028  -0.82979
 Alpha  occ. eigenvalues --   -0.82781  -0.82417  -0.81569  -0.80712  -0.80296
 Alpha  occ. eigenvalues --   -0.79710  -0.79279  -0.78541  -0.77714  -0.76815
 Alpha  occ. eigenvalues --   -0.75443  -0.74871  -0.74297  -0.73705  -0.72545
 Alpha  occ. eigenvalues --   -0.72376  -0.71959  -0.70620  -0.70492  -0.69944
 Alpha  occ. eigenvalues --   -0.69573  -0.69321  -0.67803  -0.67210  -0.66801
 Alpha  occ. eigenvalues --   -0.65630  -0.64860  -0.64341  -0.62566  -0.62009
 Alpha  occ. eigenvalues --   -0.61277  -0.60998  -0.60893  -0.59496  -0.59406
 Alpha  occ. eigenvalues --   -0.58651  -0.58155  -0.57398  -0.57265  -0.57138
 Alpha  occ. eigenvalues --   -0.56810  -0.56099  -0.55843  -0.55389  -0.54846
 Alpha  occ. eigenvalues --   -0.54239  -0.54057  -0.53161  -0.52707  -0.52487
 Alpha  occ. eigenvalues --   -0.51940  -0.51763  -0.51498  -0.51320  -0.50948
 Alpha  occ. eigenvalues --   -0.50917  -0.50457  -0.50194  -0.49713  -0.49460
 Alpha  occ. eigenvalues --   -0.49363  -0.48682  -0.48558  -0.48406  -0.47965
 Alpha  occ. eigenvalues --   -0.47786  -0.47760  -0.47359  -0.47088  -0.46889
 Alpha  occ. eigenvalues --   -0.46700  -0.46352  -0.46292  -0.46096  -0.45671
 Alpha  occ. eigenvalues --   -0.45501  -0.45368  -0.45211  -0.45124  -0.44797
 Alpha  occ. eigenvalues --   -0.44666  -0.44494  -0.44375  -0.44261  -0.43919
 Alpha  occ. eigenvalues --   -0.43606  -0.43244  -0.43069  -0.42839  -0.42809
 Alpha  occ. eigenvalues --   -0.42757  -0.42714  -0.42401  -0.42014  -0.41969
 Alpha  occ. eigenvalues --   -0.41801  -0.41597  -0.41374  -0.41166  -0.41113
 Alpha  occ. eigenvalues --   -0.40871  -0.40715  -0.40316  -0.40267  -0.40168
 Alpha  occ. eigenvalues --   -0.39983  -0.39858  -0.39498  -0.39408  -0.39280
 Alpha  occ. eigenvalues --   -0.39068  -0.38994  -0.38692  -0.38683  -0.38543
 Alpha  occ. eigenvalues --   -0.38218  -0.37979  -0.37879  -0.37658  -0.37400
 Alpha  occ. eigenvalues --   -0.37117  -0.36685  -0.36546  -0.36339  -0.35864
 Alpha  occ. eigenvalues --   -0.35429  -0.35248  -0.35156  -0.34734  -0.34529
 Alpha  occ. eigenvalues --   -0.34280  -0.34230  -0.33913  -0.33444  -0.33230
 Alpha  occ. eigenvalues --   -0.32798  -0.32114  -0.31886  -0.31797  -0.31738
 Alpha  occ. eigenvalues --   -0.31602  -0.31186  -0.31018  -0.30105  -0.29509
 Alpha  occ. eigenvalues --   -0.29078  -0.28240  -0.27966  -0.27287  -0.27116
 Alpha  occ. eigenvalues --   -0.27026  -0.26532  -0.22901  -0.21333
 Alpha virt. eigenvalues --   -0.09190  -0.07150  -0.01942  -0.00898   0.00393
 Alpha virt. eigenvalues --    0.02519   0.02700   0.03496   0.04338   0.04725
 Alpha virt. eigenvalues --    0.04857   0.05724   0.06561   0.07435   0.08075

 Mulliken charges:
               1
     1  Mg   0.814306
     2  C    0.033337
     3  C   -0.187416
     4  C   -0.131221
     5  C   -0.175945
     6  N   -0.615616
     7  C    0.310914
     8  C   -0.142575
     9  C   -0.156850
    10  C    0.362300
    11  C   -0.282726
    12  C   -0.165765
    13  C   -0.281105
    14  C    0.625453
    15  O   -0.456075
    16  O   -0.470188
    17  N   -0.672252
    18  C    0.238776
    19  C    0.025964
    20  C   -0.049111
    21  C    0.327929
    22  C   -0.402144
    23  C    0.250065
    24  O   -0.423461
    25  N   -0.696787
    26  C    0.294063
    27  C    0.014782
    28  C    0.094289
    29  C    0.326410
    30  C    0.200596
    31  C   -0.299151
    32  C   -0.240439
    33  N   -0.751215
    34  C    0.281922
    35  C    0.014491
    36  C    0.012570
    37  C    0.321332
    38  C   -0.387625
    39  C    0.394707
    40  O   -0.443559
    41  C   -0.336077
    42  C    0.605580
    43  O   -0.470904
    44  O   -0.411471
    45  C   -0.095504
    46  C    0.013155
    47  C   -0.145210
    48  C    0.161042
    49  C   -0.355838
    50  C   -0.236258
    51  C   -0.173742
    52  C   -0.177217
    53  C   -0.071156
    54  C   -0.309172
    55  C   -0.159924
    56  C   -0.208856
    57  C   -0.155044
    58  C   -0.074449
    59  C   -0.304844
    60  C   -0.152292
    61  C   -0.186273
    62  C   -0.185344
    63  C   -0.073250
    64  C   -0.313689
    65  C   -0.274320
    66  H    0.093664
    67  H    0.128174
    68  H    0.072688
    69  H    0.120242
    70  H    0.074280
    71  H    0.072546
    72  H    0.125695
    73  H    0.133773
    74  H    0.111025
    75  H    0.130492
    76  H    0.135396
    77  H    0.131818
    78  H    0.130006
    79  H    0.153562
    80  H    0.118554
    81  H    0.091341
    82  H    0.112019
    83  H    0.079652
    84  H    0.123322
    85  H    0.130616
    86  H    0.065201
    87  H    0.121301
    88  H    0.156805
    89  H    0.129907
    90  H    0.156536
    91  H    0.106048
    92  H    0.092826
    93  H    0.087814
    94  H    0.141501
    95  H    0.106352
    96  H    0.132895
    97  H    0.064089
    98  H    0.083201
    99  H    0.093115
   100  H    0.091328
   101  H    0.096150
   102  H    0.090098
   103  H    0.085129
   104  H    0.091719
   105  H    0.110242
   106  H    0.104109
   107  H    0.083175
   108  H    0.106352
   109  H    0.087770
   110  H    0.093459
   111  H    0.081423
   112  H    0.065426
   113  H    0.075744
   114  H    0.105625
   115  H    0.108632
   116  H    0.093899
   117  H    0.097670
   118  H    0.093656
   119  H    0.092527
   120  H    0.097641
   121  H    0.054313
   122  H    0.088069
   123  H    0.068054
   124  H    0.111865
   125  H    0.099814
   126  H    0.108695
   127  H    0.102362
   128  H    0.075786
   129  H    0.107788
   130  H    0.134245
   131  H    0.148343
   132  H    0.127005
   133  O   -0.476726
   134  H    0.070236
 Sum of Mulliken charges =   0.00000

 Dipole moment (field-independent basis, Debye):
    X=              0.7548    Y=             -7.7475    Z=             -2.4018  Tot=              8.1462
 Quadrupole moment (field-independent basis, Debye-Ang):
   XX=           -367.7726   YY=           -441.4415   ZZ=           -387.9453
   XY=             21.6375   XZ=             29.1710   YZ=            -35.7642

 Normal termination of Gaussian 09 at Thu Oct  3 13:54:12 2019.
