 Gaussian 09, Revision D.01,
 Gaussian 09:  ES64L-G09RevD.01 24-Apr-2013

 ----------------------------------------------------------------------
 # td=(NStates=1) iop(3/107=0140000000,3/108=0140000000) iop(3/107=0140
 000000,3/108=0140000000) CAM-B3LYP/6-31G(d,p)
 ----------------------------------------------------------------------

 --
 TD
 --
 Symbolic Z-matrix:
 Charge =  0 Multiplicity = 1

                         Standard orientation:
 ---------------------------------------------------------------------
 Center     Atomic      Atomic             Coordinates (Angstroms)
 Number     Number       Type             X           Y           Z
 ---------------------------------------------------------------------
      1         12           0       -5.622921    1.285858    0.150298
      2          6           0       -5.039935   -2.120165   -0.346818
      3          6           0       -3.333884    1.206366    2.789304
      4          6           0       -6.110998    4.639066    0.777480
      5          6           0       -7.951494    1.196291   -2.292055
      6          7           0       -4.396763   -0.212960    1.018597
      7          6           0       -4.300668   -1.551051    0.599851
      8          6           0       -3.317674   -2.371308    1.469074
      9          6           0       -2.821649   -1.279727    2.556805
     10          6           0       -3.529397   -0.017277    2.028691
     11          6           0       -3.376261   -1.862726    3.965652
     12          6           0       -2.028337   -2.728942    0.687040
     13          6           0       -1.039413   -3.626239    1.455014
     14          6           0        0.206762   -4.011899    0.688291
     15          8           0        0.376044   -3.620264   -0.525124
     16          8           0        0.998227   -4.864355    1.377838
     17          7           0       -4.813088    2.690496    1.495010
     18          6           0       -4.038176    2.485295    2.565864
     19          6           0       -3.633077    3.693536    3.182006
     20          6           0       -4.370968    4.681913    2.574185
     21          6           0       -5.177190    4.078120    1.549745
     22          6           0       -2.718713    3.697885    4.407575
     23          6           0       -4.442303    6.085973    3.056568
     24          8           0       -3.770380    6.628058    3.893972
     25          7           0       -6.839816    2.692028   -0.672771
     26          6           0       -6.830970    4.020830   -0.351698
     27          6           0       -7.797760    4.674788   -1.174013
     28          6           0       -8.272903    3.738329   -1.979658
     29          6           0       -7.722417    2.424383   -1.647569
     30          6           0       -8.136809    6.085432   -1.169350
     31          6           0       -9.372297    3.856380   -3.121056
     32          6           0       -8.741461    3.856276   -4.589369
     33          7           0       -6.396156   -0.166666   -1.069401
     34          6           0       -7.368707   -0.028905   -2.074810
     35          6           0       -7.542146   -1.302842   -2.780374
     36          6           0       -6.692945   -2.221997   -2.137812
     37          6           0       -5.962504   -1.384949   -1.207590
     38          6           0       -8.503143   -1.579948   -3.771550
     39          6           0       -6.208273   -3.591621   -2.127172
     40          8           0       -6.603812   -4.481447   -2.806293
     41          6           0       -5.069831   -3.584113   -0.994963
     42          6           0       -5.363971   -4.694671    0.024927
     43          8           0       -5.708334   -4.444212    1.171084
     44          8           0       -5.154955   -5.834481   -0.445890
     45          6           0       -5.452841   -7.019340    0.304442
     46          6           0        2.296828   -5.189351    0.777771
     47          6           0        3.491706   -4.175468    1.154389
     48          6           0        3.991963   -3.265408    0.282673
     49          6           0        3.582325   -3.065591   -1.193900
     50          6           0        5.009638   -2.353750    0.813346
     51          6           0        6.381527   -2.553938   -0.006664
     52          6           0        7.548205   -1.716726    0.647730
     53          6           0        8.937063   -1.925267    0.098181
     54          6           0        9.286657   -3.411225    0.338103
     55          6           0       10.003808   -0.861819    0.612391
     56          6           0       11.281581   -0.936227   -0.260234
     57          6           0       12.221498    0.247350    0.179717
     58          6           0       13.545623    0.450346   -0.544112
     59          6           0       14.438212   -0.786039   -0.354397
     60          6           0       14.192347    1.796133   -0.153137
     61          6           0       15.446173    2.077956   -1.161541
     62          6           0       16.044041    3.484478   -0.793378
     63          6           0       17.390444    3.797639   -1.495936
     64          6           0       16.948330    3.917851   -2.957725
     65          6           0       17.931820    5.117494   -0.960752
     66          1           0       -2.493649    1.294629    3.411472
     67          1           0       -6.444489    5.689096    0.850618
     68          1           0       -8.835084    1.289935   -3.138417
     69          1           0       -3.860528   -3.265016    1.857145
     70          1           0       -1.768689   -1.178611    2.557718
     71          1           0       -2.988824   -2.776680    4.385606
     72          1           0       -3.252931   -0.988510    4.780410
     73          1           0       -4.338253   -2.003775    3.684759
     74          1           0       -2.229653   -3.077362   -0.302842
     75          1           0       -1.574707   -1.855180    0.597991
     76          1           0       -0.821829   -3.258851    2.372141
     77          1           0       -1.303956   -4.716525    1.941945
     78          1           0       -1.806639    3.273269    3.913425
     79          1           0       -2.748677    4.658016    4.742153
     80          1           0       -3.088184    3.044020    5.285836
     81          1           0       -5.228615    6.755735    2.278755
     82          1           0       -9.820227    3.006090   -2.910662
     83          1           0       -9.846492    4.647839   -3.129977
     84          1           0       -9.519661    4.000113   -5.327968
     85          1           0       -8.033301    4.663603   -4.677571
     86          1           0       -8.199364    2.947237   -4.732981
     87          1           0       -8.548369   -0.723949   -4.631724
     88          1           0       -8.428949   -2.556476   -4.381776
     89          1           0       -9.497801   -1.473011   -3.269430
     90          1           0       -4.104678   -3.806125   -1.628062
     91          1           0        2.526314   -6.243854    1.131119
     92          1           0        2.273027   -5.068885   -0.321562
     93          1           0        3.691082   -4.290406    2.162943
     94          1           0        2.638865   -3.362649   -1.451322
     95          1           0        3.695731   -1.934487   -1.521738
     96          1           0        3.970382   -3.742554   -2.053050
     97          1           0        4.646576   -1.418787    0.527935
     98          1           0        5.058243   -2.536873    1.789218
     99          1           0        6.661127   -3.649516    0.233102
    100          1           0        6.088570   -2.327461   -1.158130
    101          1           0        7.433314   -0.613538    0.639618
    102          1           0        7.730017   -2.103405    1.726987
    103          1           0        8.906123   -1.603150   -1.042213
    104          1           0        8.879117   -4.023257   -0.287756
    105          1           0       10.313765   -3.523650    0.230340
    106          1           0        9.143587   -3.771576    1.438668
    107          1           0        9.573125    0.221874    0.482487
    108          1           0       10.279076   -1.036119    1.697320
    109          1           0       11.847332   -1.849147   -0.161696
    110          1           0       11.085042   -0.663117   -1.355970
    111          1           0       11.754094    1.309994    0.115202
    112          1           0       12.282789    0.099056    1.244538
    113          1           0       13.352269    0.728263   -1.640370
    114          1           0       14.812362   -0.894330    0.640378
    115          1           0       13.808801   -1.763313   -0.539706
    116          1           0       15.370226   -0.641575   -0.956657
    117          1           0       13.587524    2.432644   -0.363077
    118          1           0       14.524298    1.890315    0.889368
    119          1           0       16.373543    1.329070   -1.218427
    120          1           0       15.030479    1.933006   -2.064374
    121          1           0       15.318362    4.193138   -1.000685
    122          1           0       16.257578    3.381030    0.296363
    123          1           0       18.191034    3.020495   -1.520927
    124          1           0       16.181355    4.665696   -3.183785
    125          1           0       17.634739    4.190361   -3.598520
    126          1           0       16.699902    3.049326   -3.432543
    127          1           0       18.182049    5.129233    0.106482
    128          1           0       18.836587    5.482305   -1.702576
    129          1           0       17.012814    5.865194   -1.048087
    130          1           0       -5.225772   -7.920942   -0.403712
    131          1           0       -6.390025   -6.986922    0.785036
    132          1           0       -4.771392   -6.818674    1.153661
    133          8           0       -7.689977    6.967494   -0.513714
    134          1           0       -8.903789    6.471259   -1.846124
 ---------------------------------------------------------------------

 SCF Done:  E(RCAM-B3LYP) =  -3043.44865709     A.U. after   15 cycles

 Excitation energies and oscillator strengths:

 Excited State   1:      Singlet-A      2.1257 eV  583.26 nm  f=0.1298  <S**2>=0.000
     243 -> 246       -0.28488
     244 -> 245        0.62904
 This state for optimization and/or second-order correction.
 Total Energy, E(TD-HF/TD-KS) =  -3043.37053822
 Copying the excited state density for this state as the 1-particle RhoCI density.

 The electronic state is 1-A.
 Alpha  occ. eigenvalues --  -46.81741 -19.23901 -19.23235 -19.18187 -19.17652
 Alpha  occ. eigenvalues --  -19.16971 -19.16471 -19.16169 -14.38771 -14.36965
 Alpha  occ. eigenvalues --  -14.36953 -14.36554 -10.35418 -10.34944 -10.31713
 Alpha  occ. eigenvalues --  -10.31689 -10.29781 -10.29028 -10.28160 -10.28042
 Alpha  occ. eigenvalues --  -10.26637 -10.26489 -10.26400 -10.26281 -10.26197
 Alpha  occ. eigenvalues --  -10.26084 -10.25958 -10.25844 -10.25818 -10.25673
 Alpha  occ. eigenvalues --  -10.24133 -10.24082 -10.24050 -10.23985 -10.23809
 Alpha  occ. eigenvalues --  -10.23674 -10.23663 -10.23529 -10.23424 -10.23298
 Alpha  occ. eigenvalues --  -10.23245 -10.22393 -10.22325 -10.22233 -10.22209
 Alpha  occ. eigenvalues --  -10.22142 -10.21969 -10.21948 -10.21862 -10.21787
 Alpha  occ. eigenvalues --  -10.21690 -10.21558 -10.21481 -10.21451 -10.21348
 Alpha  occ. eigenvalues --  -10.21298 -10.21275 -10.20916 -10.20723 -10.20456
 Alpha  occ. eigenvalues --  -10.20368 -10.20234 -10.19944 -10.19037 -10.19020
 Alpha  occ. eigenvalues --  -10.17409  -3.10224  -1.85178  -1.84663  -1.84651
 Alpha  occ. eigenvalues --   -1.17491  -1.11902  -1.09074  -1.08728  -1.08024
 Alpha  occ. eigenvalues --   -1.04753  -1.01527  -1.01179  -1.00315  -0.99366
 Alpha  occ. eigenvalues --   -0.98408  -0.87217  -0.85926  -0.85239  -0.85105
 Alpha  occ. eigenvalues --   -0.85000  -0.84557  -0.84149  -0.83945  -0.83234
 Alpha  occ. eigenvalues --   -0.83007  -0.82801  -0.81159  -0.80456  -0.79628
 Alpha  occ. eigenvalues --   -0.79065  -0.78498  -0.77374  -0.77239  -0.75674
 Alpha  occ. eigenvalues --   -0.74869  -0.74508  -0.73387  -0.73279  -0.72354
 Alpha  occ. eigenvalues --   -0.71972  -0.71886  -0.70573  -0.70160  -0.69266
 Alpha  occ. eigenvalues --   -0.68994  -0.68474  -0.67399  -0.66937  -0.66590
 Alpha  occ. eigenvalues --   -0.65699  -0.64585  -0.64389  -0.62640  -0.62013
 Alpha  occ. eigenvalues --   -0.61657  -0.61190  -0.60565  -0.59797  -0.59313
 Alpha  occ. eigenvalues --   -0.58627  -0.58279  -0.58084  -0.56961  -0.56317
 Alpha  occ. eigenvalues --   -0.56208  -0.55988  -0.55634  -0.55161  -0.54850
 Alpha  occ. eigenvalues --   -0.54207  -0.53401  -0.53187  -0.52992  -0.52231
 Alpha  occ. eigenvalues --   -0.51943  -0.51884  -0.51231  -0.50967  -0.50766
 Alpha  occ. eigenvalues --   -0.50529  -0.50274  -0.50036  -0.48899  -0.48716
 Alpha  occ. eigenvalues --   -0.48502  -0.48449  -0.48346  -0.48185  -0.47915
 Alpha  occ. eigenvalues --   -0.47611  -0.47375  -0.47060  -0.46878  -0.46685
 Alpha  occ. eigenvalues --   -0.46660  -0.46562  -0.46276  -0.46172  -0.45673
 Alpha  occ. eigenvalues --   -0.45452  -0.45155  -0.45021  -0.44852  -0.44655
 Alpha  occ. eigenvalues --   -0.44463  -0.44251  -0.43985  -0.43887  -0.43761
 Alpha  occ. eigenvalues --   -0.43155  -0.43046  -0.42950  -0.42820  -0.42635
 Alpha  occ. eigenvalues --   -0.42521  -0.42463  -0.42291  -0.42148  -0.42111
 Alpha  occ. eigenvalues --   -0.41956  -0.41751  -0.41576  -0.41270  -0.41018
 Alpha  occ. eigenvalues --   -0.40851  -0.40741  -0.40528  -0.40251  -0.40107
 Alpha  occ. eigenvalues --   -0.39980  -0.39584  -0.39414  -0.39207  -0.39202
 Alpha  occ. eigenvalues --   -0.38920  -0.38591  -0.38465  -0.38263  -0.38236
 Alpha  occ. eigenvalues --   -0.38106  -0.38001  -0.37454  -0.37318  -0.37178
 Alpha  occ. eigenvalues --   -0.37119  -0.36839  -0.36082  -0.35854  -0.35477
 Alpha  occ. eigenvalues --   -0.35307  -0.35195  -0.35020  -0.34870  -0.34569
 Alpha  occ. eigenvalues --   -0.34530  -0.34190  -0.33772  -0.33583  -0.33200
 Alpha  occ. eigenvalues --   -0.32741  -0.32405  -0.32308  -0.31771  -0.31507
 Alpha  occ. eigenvalues --   -0.31405  -0.30612  -0.29881  -0.29647  -0.29423
 Alpha  occ. eigenvalues --   -0.29168  -0.28447  -0.28005  -0.27802  -0.27710
 Alpha  occ. eigenvalues --   -0.27577  -0.26941  -0.22584  -0.21897
 Alpha virt. eigenvalues --   -0.08218  -0.06124  -0.01122  -0.00297   0.00966
 Alpha virt. eigenvalues --    0.02516   0.03568   0.03773   0.03884   0.04634
 Alpha virt. eigenvalues --    0.04742   0.06048   0.08012   0.08665   0.09690

 Mulliken charges:
               1
     1  Mg   0.831652
     2  C    0.092744
     3  C   -0.202126
     4  C   -0.182213
     5  C   -0.179334
     6  N   -0.622526
     7  C    0.271759
     8  C   -0.177430
     9  C   -0.157657
    10  C    0.332737
    11  C   -0.300642
    12  C   -0.155968
    13  C   -0.266116
    14  C    0.615720
    15  O   -0.503930
    16  O   -0.458677
    17  N   -0.664807
    18  C    0.308559
    19  C    0.008497
    20  C   -0.022452
    21  C    0.317219
    22  C   -0.346703
    23  C    0.255823
    24  O   -0.394633
    25  N   -0.725236
    26  C    0.264827
    27  C    0.002360
    28  C   -0.049966
    29  C    0.323907
    30  C    0.242472
    31  C   -0.181593
    32  C   -0.336334
    33  N   -0.689718
    34  C    0.287260
    35  C    0.060239
    36  C    0.040746
    37  C    0.253539
    38  C   -0.413980
    39  C    0.362953
    40  O   -0.434378
    41  C   -0.340823
    42  C    0.612684
    43  O   -0.500491
    44  O   -0.383023
    45  C   -0.099419
    46  C   -0.007606
    47  C   -0.164540
    48  C    0.157476
    49  C   -0.388686
    50  C   -0.209555
    51  C   -0.179478
    52  C   -0.149814
    53  C   -0.049633
    54  C   -0.316174
    55  C   -0.176687
    56  C   -0.174879
    57  C   -0.175448
    58  C   -0.055405
    59  C   -0.307495
    60  C   -0.157093
    61  C   -0.198111
    62  C   -0.152965
    63  C   -0.062266
    64  C   -0.310974
    65  C   -0.283628
    66  H    0.075254
    67  H    0.139064
    68  H    0.091897
    69  H    0.136027
    70  H    0.109627
    71  H    0.117053
    72  H    0.083543
    73  H    0.140983
    74  H    0.113986
    75  H    0.127057
    76  H    0.142170
    77  H    0.108243
    78  H    0.127345
    79  H    0.153874
    80  H    0.123821
    81  H    0.032616
    82  H    0.114716
    83  H    0.100316
    84  H    0.111743
    85  H    0.118972
    86  H    0.110970
    87  H    0.101870
    88  H    0.147405
    89  H    0.141749
    90  H    0.154411
    91  H    0.109833
    92  H    0.128261
    93  H    0.089112
    94  H    0.160174
    95  H    0.097999
    96  H    0.106721
    97  H    0.110471
    98  H    0.100056
    99  H    0.097161
   100  H    0.090976
   101  H    0.078589
   102  H    0.074431
   103  H    0.063710
   104  H    0.125511
   105  H    0.100737
   106  H    0.082070
   107  H    0.084823
   108  H    0.085866
   109  H    0.104345
   110  H    0.088572
   111  H    0.061156
   112  H    0.088668
   113  H    0.068000
   114  H    0.108905
   115  H    0.082975
   116  H    0.097091
   117  H    0.099274
   118  H    0.085752
   119  H    0.068578
   120  H    0.103935
   121  H    0.100799
   122  H    0.081526
   123  H    0.084765
   124  H    0.090671
   125  H    0.095567
   126  H    0.106541
   127  H    0.106629
   128  H    0.076892
   129  H    0.080614
   130  H    0.138487
   131  H    0.152731
   132  H    0.132626
   133  O   -0.402467
   134  H    0.053591
 Sum of Mulliken charges =   0.00000

 Dipole moment (field-independent basis, Debye):
    X=              1.2822    Y=             -5.8998    Z=             -1.3720  Tot=              6.1914
 Quadrupole moment (field-independent basis, Debye-Ang):
   XX=           -373.6485   YY=           -429.8144   ZZ=           -393.0944
   XY=             14.4480   XZ=             22.1683   YZ=            -33.4828

 Normal termination of Gaussian 09 at Wed Oct  9 10:47:35 2019.
