 Gaussian 09, Revision D.01,
 Gaussian 09:  ES64L-G09RevD.01 24-Apr-2013

 ----------------------------------------------------------------------
 # td=(NStates=1) iop(3/107=0140000000,3/108=0140000000) iop(3/107=0140
 000000,3/108=0140000000) CAM-B3LYP/6-31G(d,p)
 ----------------------------------------------------------------------

 --
 TD
 --
 Symbolic Z-matrix:
 Charge =  0 Multiplicity = 1

                         Standard orientation:
 ---------------------------------------------------------------------
 Center     Atomic      Atomic             Coordinates (Angstroms)
 Number     Number       Type             X           Y           Z
 ---------------------------------------------------------------------
      1         12           0       -5.577724    1.259855    0.222889
      2          6           0       -4.997877   -2.121987   -0.362808
      3          6           0       -3.303469    1.240765    2.729651
      4          6           0       -6.042512    4.579523    0.562335
      5          6           0       -8.031940    1.141210   -2.348312
      6          7           0       -4.373805   -0.177305    1.053418
      7          6           0       -4.200415   -1.558306    0.571645
      8          6           0       -3.141251   -2.228690    1.412717
      9          6           0       -2.879021   -1.298644    2.588105
     10          6           0       -3.495135    0.064887    2.079633
     11          6           0       -3.306590   -1.657953    3.975819
     12          6           0       -1.868525   -2.651540    0.635277
     13          6           0       -0.989546   -3.699384    1.319755
     14          6           0        0.215383   -3.961174    0.625220
     15          8           0        0.496624   -3.557701   -0.479834
     16          8           0        1.032274   -4.811828    1.309222
     17          7           0       -4.856925    2.653305    1.387466
     18          6           0       -3.984788    2.488424    2.486205
     19          6           0       -3.684404    3.683676    3.193739
     20          6           0       -4.437427    4.633116    2.634309
     21          6           0       -5.169449    4.008858    1.475961
     22          6           0       -2.781926    3.828875    4.290964
     23          6           0       -4.523181    6.027351    2.932602
     24          8           0       -3.995601    6.677101    3.768192
     25          7           0       -6.786969    2.701165   -0.888100
     26          6           0       -6.884403    4.004547   -0.361743
     27          6           0       -7.832033    4.665090   -1.306106
     28          6           0       -8.411832    3.688418   -2.066818
     29          6           0       -7.751912    2.451411   -1.777221
     30          6           0       -8.264202    6.060709   -1.124655
     31          6           0       -9.367918    3.799606   -3.220577
     32          6           0       -8.641865    3.810257   -4.534401
     33          7           0       -6.273246   -0.132829   -1.131141
     34          6           0       -7.400769   -0.047831   -2.015536
     35          6           0       -7.626328   -1.314863   -2.613554
     36          6           0       -6.750156   -2.207730   -1.968035
     37          6           0       -5.997391   -1.419829   -1.082857
     38          6           0       -8.620409   -1.716514   -3.781980
     39          6           0       -6.300826   -3.595083   -1.877914
     40          8           0       -6.648829   -4.511740   -2.550628
     41          6           0       -5.067013   -3.560772   -0.809183
     42          6           0       -5.428320   -4.685440    0.218371
     43          8           0       -5.797341   -4.459534    1.271754
     44          8           0       -5.086273   -5.869689   -0.295226
     45          6           0       -5.308614   -6.933939    0.584846
     46          6           0        2.357140   -5.120190    0.762405
     47          6           0        3.411376   -4.180972    1.110226
     48          6           0        3.943339   -3.320903    0.198174
     49          6           0        3.656978   -3.195084   -1.306387
     50          6           0        5.106742   -2.467457    0.624525
     51          6           0        6.489861   -2.872498    0.065661
     52          6           0        7.517194   -1.907352    0.559783
     53          6           0        8.941597   -2.046472   -0.151938
     54          6           0        9.516531   -3.445210    0.044763
     55          6           0        9.901980   -0.902424    0.371924
     56          6           0       11.301016   -0.993974   -0.267147
     57          6           0       12.186701    0.214035    0.060710
     58          6           0       13.514188    0.383011   -0.736407
     59          6           0       14.443727   -0.752109   -0.310296
     60          6           0       14.035610    1.763472   -0.343126
     61          6           0       15.375843    2.274165   -1.066512
     62          6           0       15.927354    3.717705   -0.571817
     63          6           0       17.176065    3.983048   -1.267216
     64          6           0       17.244080    4.024930   -2.746607
     65          6           0       17.935186    5.222093   -0.624924
     66          1           0       -2.775088    1.047797    3.714020
     67          1           0       -6.359164    5.639652    0.444016
     68          1           0       -8.850240    1.283870   -3.207497
     69          1           0       -3.491663   -3.107757    1.902985
     70          1           0       -1.643754   -1.141964    2.753373
     71          1           0       -2.535776   -2.258085    4.571946
     72          1           0       -3.596031   -0.593591    4.636067
     73          1           0       -4.312619   -2.227534    4.061591
     74          1           0       -2.428278   -3.122661   -0.366275
     75          1           0       -1.202457   -1.823005    0.363947
     76          1           0       -0.692733   -3.342638    2.278637
     77          1           0       -1.675705   -4.515721    1.566137
     78          1           0       -1.719535    3.558402    4.048090
     79          1           0       -2.857958    4.838919    4.616958
     80          1           0       -2.989682    3.213337    5.232097
     81          1           0       -5.336289    6.457018    2.424967
     82          1           0       -9.952834    2.864907   -3.158381
     83          1           0      -10.045724    4.722631   -3.253705
     84          1           0       -9.491584    4.230104   -5.201102
     85          1           0       -7.928813    4.536240   -4.577884
     86          1           0       -8.281694    2.871088   -4.743774
     87          1           0       -8.399051   -1.043599   -4.674392
     88          1           0       -8.627021   -2.697980   -3.944935
     89          1           0       -9.545640   -1.265630   -3.520411
     90          1           0       -4.358261   -3.807425   -1.436830
     91          1           0        2.595065   -6.054139    1.246566
     92          1           0        2.425719   -4.960620   -0.549180
     93          1           0        3.699559   -4.198219    2.101773
     94          1           0        2.662890   -3.492681   -1.512650
     95          1           0        3.756980   -2.161801   -1.775947
     96          1           0        4.453012   -3.545083   -2.177674
     97          1           0        5.018544   -1.387259    0.409605
     98          1           0        5.227587   -2.207249    1.822519
     99          1           0        6.744677   -4.003830    0.078186
    100          1           0        6.397224   -2.601032   -0.959542
    101          1           0        7.504351   -0.681076    0.397123
    102          1           0        7.726867   -1.952579    1.677694
    103          1           0        8.779081   -1.772796   -1.133168
    104          1           0        8.779501   -4.082620   -0.401973
    105          1           0       10.311362   -3.544281   -0.686287
    106          1           0        9.795024   -3.579937    1.236944
    107          1           0        9.386971    0.038061   -0.029068
    108          1           0        9.888206   -1.125419    1.480913
    109          1           0       11.899037   -1.983533    0.070661
    110          1           0       11.307795   -1.128482   -1.413767
    111          1           0       11.671992    0.960817   -0.069682
    112          1           0       12.405732    0.096404    1.219295
    113          1           0       13.253562    0.420428   -1.678332
    114          1           0       14.522330   -0.932900    0.891865
    115          1           0       13.940418   -1.580721   -0.839801
    116          1           0       15.462609   -0.569583   -0.702348
    117          1           0       13.297890    2.514318   -0.459754
    118          1           0       14.419087    1.587815    0.765981
    119          1           0       16.203711    1.739724   -0.882445
    120          1           0       15.186319    2.348576   -2.170547
    121          1           0       15.076551    4.432287   -0.911121
    122          1           0       16.062475    3.612597    0.430770
    123          1           0       17.776097    3.072417   -1.045964
    124          1           0       16.693078    4.950513   -3.226779
    125          1           0       18.291171    4.288392   -3.198187
    126          1           0       16.958055    3.043369   -3.241550
    127          1           0       18.020059    5.039452    0.427680
    128          1           0       18.896873    5.401896   -1.093213
    129          1           0       17.260860    6.122868   -0.809788
    130          1           0       -5.314069   -7.787870   -0.071999
    131          1           0       -6.242527   -6.935938    0.872730
    132          1           0       -4.557288   -6.963425    1.518258
    133          8           0       -7.855579    6.911362   -0.362369
    134          1           0       -8.978375    6.425226   -1.879979
 ---------------------------------------------------------------------

 SCF Done:  E(RCAM-B3LYP) =  -3043.44308199     A.U. after   15 cycles

 Excitation energies and oscillator strengths:

 Excited State   1:      Singlet-A      1.9996 eV  620.05 nm  f=0.2005  <S**2>=0.000
     243 -> 246       -0.22910
     244 -> 245        0.65794
 This state for optimization and/or second-order correction.
 Total Energy, E(TD-HF/TD-KS) =  -3043.36959857
 Copying the excited state density for this state as the 1-particle RhoCI density.

 The electronic state is 1-A.
 Alpha  occ. eigenvalues --  -46.81087 -19.22895 -19.21693 -19.18115 -19.17700
 Alpha  occ. eigenvalues --  -19.17292 -19.16899 -19.16855 -14.38740 -14.37723
 Alpha  occ. eigenvalues --  -14.36779 -14.36565 -10.35062 -10.34526 -10.31524
 Alpha  occ. eigenvalues --  -10.30160 -10.28669 -10.28015 -10.27852 -10.27330
 Alpha  occ. eigenvalues --  -10.27281 -10.27241 -10.26864 -10.26854 -10.26797
 Alpha  occ. eigenvalues --  -10.26195 -10.26120 -10.25900 -10.25622 -10.25555
 Alpha  occ. eigenvalues --  -10.24869 -10.24336 -10.24284 -10.24176 -10.23898
 Alpha  occ. eigenvalues --  -10.23833 -10.23820 -10.23766 -10.23719 -10.23329
 Alpha  occ. eigenvalues --  -10.23328 -10.22949 -10.22924 -10.22798 -10.22741
 Alpha  occ. eigenvalues --  -10.22734 -10.22415 -10.22295 -10.22121 -10.22005
 Alpha  occ. eigenvalues --  -10.21956 -10.21908 -10.21794 -10.21509 -10.21200
 Alpha  occ. eigenvalues --  -10.21100 -10.21082 -10.21042 -10.20939 -10.20839
 Alpha  occ. eigenvalues --  -10.20682 -10.20205 -10.20115 -10.20101 -10.20003
 Alpha  occ. eigenvalues --  -10.19027  -3.09740  -1.84672  -1.84209  -1.84162
 Alpha  occ. eigenvalues --   -1.16861  -1.12697  -1.09040  -1.08849  -1.08514
 Alpha  occ. eigenvalues --   -1.07231  -1.04282  -1.00519  -0.99486  -0.98857
 Alpha  occ. eigenvalues --   -0.97229  -0.88605  -0.86536  -0.86127  -0.85830
 Alpha  occ. eigenvalues --   -0.85373  -0.85290  -0.84521  -0.84196  -0.83667
 Alpha  occ. eigenvalues --   -0.83346  -0.83035  -0.82284  -0.80441  -0.80017
 Alpha  occ. eigenvalues --   -0.79393  -0.78232  -0.78007  -0.77620  -0.76126
 Alpha  occ. eigenvalues --   -0.75781  -0.75061  -0.74529  -0.73583  -0.72978
 Alpha  occ. eigenvalues --   -0.70873  -0.70536  -0.70453  -0.70394  -0.69986
 Alpha  occ. eigenvalues --   -0.69766  -0.68686  -0.67212  -0.66541  -0.66126
 Alpha  occ. eigenvalues --   -0.65783  -0.64645  -0.63983  -0.62724  -0.62522
 Alpha  occ. eigenvalues --   -0.61476  -0.60642  -0.59652  -0.59383  -0.59143
 Alpha  occ. eigenvalues --   -0.58706  -0.57978  -0.57788  -0.57552  -0.57090
 Alpha  occ. eigenvalues --   -0.56478  -0.56320  -0.55827  -0.55582  -0.55411
 Alpha  occ. eigenvalues --   -0.54951  -0.54126  -0.53397  -0.53125  -0.52652
 Alpha  occ. eigenvalues --   -0.52241  -0.52035  -0.51512  -0.51386  -0.51046
 Alpha  occ. eigenvalues --   -0.50614  -0.50430  -0.50076  -0.49320  -0.49134
 Alpha  occ. eigenvalues --   -0.49080  -0.48906  -0.48457  -0.48269  -0.47938
 Alpha  occ. eigenvalues --   -0.47802  -0.47538  -0.47315  -0.47027  -0.46943
 Alpha  occ. eigenvalues --   -0.46695  -0.46653  -0.46383  -0.46210  -0.46049
 Alpha  occ. eigenvalues --   -0.45727  -0.45389  -0.45284  -0.44966  -0.44911
 Alpha  occ. eigenvalues --   -0.44771  -0.44467  -0.44293  -0.43936  -0.43783
 Alpha  occ. eigenvalues --   -0.43567  -0.43346  -0.43225  -0.43063  -0.42906
 Alpha  occ. eigenvalues --   -0.42743  -0.42684  -0.42632  -0.42503  -0.42280
 Alpha  occ. eigenvalues --   -0.42234  -0.42086  -0.41824  -0.41527  -0.41077
 Alpha  occ. eigenvalues --   -0.41039  -0.40790  -0.40405  -0.40195  -0.40184
 Alpha  occ. eigenvalues --   -0.39875  -0.39832  -0.39616  -0.39508  -0.39296
 Alpha  occ. eigenvalues --   -0.38965  -0.38834  -0.38775  -0.38714  -0.38221
 Alpha  occ. eigenvalues --   -0.38001  -0.37718  -0.37699  -0.37430  -0.37099
 Alpha  occ. eigenvalues --   -0.36847  -0.36434  -0.36084  -0.36003  -0.35863
 Alpha  occ. eigenvalues --   -0.35418  -0.35190  -0.35028  -0.34675  -0.34524
 Alpha  occ. eigenvalues --   -0.34339  -0.33630  -0.33521  -0.32998  -0.32902
 Alpha  occ. eigenvalues --   -0.32554  -0.32265  -0.32069  -0.31877  -0.31778
 Alpha  occ. eigenvalues --   -0.31221  -0.31085  -0.30844  -0.30396  -0.30175
 Alpha  occ. eigenvalues --   -0.29320  -0.28388  -0.28000  -0.27802  -0.27605
 Alpha  occ. eigenvalues --   -0.27350  -0.27317  -0.23704  -0.21816
 Alpha virt. eigenvalues --   -0.08986  -0.06661  -0.01271  -0.00669   0.01140
 Alpha virt. eigenvalues --    0.02003   0.03138   0.03461   0.04346   0.04861
 Alpha virt. eigenvalues --    0.04979   0.06069   0.07324   0.08084   0.08778

 Mulliken charges:
               1
     1  Mg   0.828813
     2  C    0.084860
     3  C   -0.198413
     4  C   -0.184649
     5  C   -0.165962
     6  N   -0.658958
     7  C    0.273503
     8  C   -0.147083
     9  C   -0.115623
    10  C    0.356072
    11  C   -0.307399
    12  C   -0.157350
    13  C   -0.273758
    14  C    0.629119
    15  O   -0.465681
    16  O   -0.485507
    17  N   -0.705762
    18  C    0.273923
    19  C    0.115918
    20  C   -0.013749
    21  C    0.293990
    22  C   -0.412410
    23  C    0.246177
    24  O   -0.403008
    25  N   -0.659925
    26  C    0.236204
    27  C   -0.036659
    28  C    0.012957
    29  C    0.320268
    30  C    0.256933
    31  C   -0.267369
    32  C   -0.285920
    33  N   -0.711455
    34  C    0.259744
    35  C    0.002549
    36  C    0.030546
    37  C    0.325539
    38  C   -0.349076
    39  C    0.319228
    40  O   -0.430732
    41  C   -0.317855
    42  C    0.602860
    43  O   -0.416556
    44  O   -0.428868
    45  C   -0.087173
    46  C    0.012438
    47  C   -0.102673
    48  C    0.146398
    49  C   -0.392973
    50  C   -0.238820
    51  C   -0.160689
    52  C   -0.166275
    53  C   -0.086272
    54  C   -0.287173
    55  C   -0.167150
    56  C   -0.190448
    57  C   -0.126378
    58  C   -0.057032
    59  C   -0.297344
    60  C   -0.163276
    61  C   -0.206817
    62  C   -0.153698
    63  C   -0.041374
    64  C   -0.304675
    65  C   -0.313291
    66  H    0.084165
    67  H    0.141696
    68  H    0.092548
    69  H    0.118856
    70  H    0.076053
    71  H    0.113100
    72  H    0.083033
    73  H    0.120535
    74  H    0.087004
    75  H    0.122630
    76  H    0.140424
    77  H    0.145750
    78  H    0.129242
    79  H    0.156642
    80  H    0.118332
    81  H    0.070087
    82  H    0.107401
    83  H    0.107595
    84  H    0.095572
    85  H    0.130448
    86  H    0.114176
    87  H    0.121241
    88  H    0.150784
    89  H    0.131124
    90  H    0.161478
    91  H    0.110139
    92  H    0.092173
    93  H    0.089836
    94  H    0.159774
    95  H    0.116640
    96  H    0.098514
    97  H    0.105988
    98  H    0.061349
    99  H    0.105371
   100  H    0.108358
   101  H    0.064082
   102  H    0.079397
   103  H    0.089989
   104  H    0.100801
   105  H    0.105198
   106  H    0.082550
   107  H    0.084723
   108  H    0.092675
   109  H    0.078895
   110  H    0.071660
   111  H    0.083374
   112  H    0.067408
   113  H    0.089245
   114  H    0.085289
   115  H    0.105179
   116  H    0.099871
   117  H    0.090714
   118  H    0.066307
   119  H    0.097643
   120  H    0.084729
   121  H    0.074501
   122  H    0.101831
   123  H    0.079053
   124  H    0.079955
   125  H    0.088851
   126  H    0.100649
   127  H    0.102790
   128  H    0.102314
   129  H    0.093773
   130  H    0.125956
   131  H    0.138610
   132  H    0.104291
   133  O   -0.417669
   134  H    0.052526
 Sum of Mulliken charges =   0.00000

 Dipole moment (field-independent basis, Debye):
    X=              0.8370    Y=             -5.1181    Z=             -1.1263  Tot=              5.3070
 Quadrupole moment (field-independent basis, Debye-Ang):
   XX=           -374.8458   YY=           -445.7093   ZZ=           -389.6304
   XY=             13.8734   XZ=             17.5388   YZ=            -35.8988

 Normal termination of Gaussian 09 at Tue Oct  8 10:07:12 2019.
