 Gaussian 09, Revision D.01,
 Gaussian 09:  ES64L-G09RevD.01 24-Apr-2013

 ----------------------------------------------------------------------
 # td=(NStates=1) iop(3/107=0140000000,3/108=0140000000) iop(3/107=0140
 000000,3/108=0140000000) CAM-B3LYP/6-31G(d,p)
 ----------------------------------------------------------------------

 --
 TD
 --
 Symbolic Z-matrix:
 Charge =  0 Multiplicity = 1

                         Standard orientation:
 ---------------------------------------------------------------------
 Center     Atomic      Atomic             Coordinates (Angstroms)
 Number     Number       Type             X           Y           Z
 ---------------------------------------------------------------------
      1         12           0       -5.696879    1.236699    0.153433
      2          6           0       -5.068787   -2.190537   -0.244710
      3          6           0       -3.352610    1.209096    2.703164
      4          6           0       -6.351260    4.556553    0.665863
      5          6           0       -7.887008    1.139108   -2.459245
      6          7           0       -4.392619   -0.182426    1.021552
      7          6           0       -4.289099   -1.602912    0.749515
      8          6           0       -3.189475   -2.193012    1.565240
      9          6           0       -3.026445   -1.268614    2.606910
     10          6           0       -3.625819    0.046210    2.012577
     11          6           0       -3.773640   -1.690074    3.900118
     12          6           0       -2.016582   -2.525406    0.657212
     13          6           0       -1.082188   -3.420924    1.448736
     14          6           0        0.206455   -3.780605    0.629650
     15          8           0        0.387824   -3.440423   -0.563281
     16          8           0        1.061586   -4.661345    1.402204
     17          7           0       -4.855249    2.661976    1.450214
     18          6           0       -3.950819    2.479795    2.478023
     19          6           0       -3.613196    3.733185    3.085039
     20          6           0       -4.494494    4.712983    2.519501
     21          6           0       -5.343177    4.030666    1.484706
     22          6           0       -2.728057    3.917852    4.103920
     23          6           0       -4.590155    6.152059    2.971343
     24          8           0       -3.920939    6.724092    3.810350
     25          7           0       -6.816029    2.541256   -0.842677
     26          6           0       -6.989060    3.881340   -0.360817
     27          6           0       -7.946422    4.543206   -1.197994
     28          6           0       -8.455616    3.708485   -2.147119
     29          6           0       -7.746339    2.418321   -1.938337
     30          6           0       -8.337939    5.956598   -1.118117
     31          6           0       -9.465114    3.711441   -3.296293
     32          6           0       -8.881642    4.024512   -4.570241
     33          7           0       -6.384952   -0.213804   -1.098670
     34          6           0       -7.360881   -0.096536   -2.116222
     35          6           0       -7.430807   -1.370408   -2.738060
     36          6           0       -6.609822   -2.196390   -2.092421
     37          6           0       -5.960216   -1.465107   -1.147971
     38          6           0       -8.488861   -1.733029   -3.825759
     39          6           0       -6.279741   -3.576591   -1.932357
     40          8           0       -6.586093   -4.611927   -2.514921
     41          6           0       -5.206380   -3.642124   -0.784106
     42          6           0       -5.432126   -4.690260    0.215746
     43          8           0       -5.791024   -4.415347    1.392191
     44          8           0       -5.240544   -5.877661   -0.191587
     45          6           0       -5.465200   -6.926069    0.714792
     46          6           0        2.232434   -5.052078    0.679017
     47          6           0        3.376934   -4.099648    1.050575
     48          6           0        4.048424   -3.292700    0.150840
     49          6           0        3.672393   -3.027754   -1.284347
     50          6           0        5.207767   -2.462298    0.581862
     51          6           0        6.620908   -2.799855   -0.110240
     52          6           0        7.727293   -1.777213    0.362051
     53          6           0        9.104289   -2.040423   -0.176730
     54          6           0        9.657419   -3.428368    0.225743
     55          6           0       10.039085   -0.926823    0.326104
     56          6           0       11.477938   -0.904999   -0.324484
     57          6           0       12.282347    0.288556    0.194347
     58          6           0       13.597140    0.433995   -0.550684
     59          6           0       14.454021   -0.758364   -0.302044
     60          6           0       14.261473    1.872386   -0.182952
     61          6           0       15.547918    2.095680   -0.916475
     62          6           0       16.087216    3.506549   -0.578900
     63          6           0       17.535935    3.681747   -1.257800
     64          6           0       17.306913    4.078478   -2.888869
     65          6           0       18.094585    4.989222   -0.710709
     66          1           0       -2.706469    1.107237    3.580996
     67          1           0       -6.430293    5.589557    0.766325
     68          1           0       -8.537926    1.078314   -3.436185
     69          1           0       -3.561908   -3.244604    2.022605
     70          1           0       -1.831702   -0.945663    2.971802
     71          1           0       -3.567945   -2.567659    4.105433
     72          1           0       -3.817532   -1.090882    4.818112
     73          1           0       -5.008114   -1.795265    3.747245
     74          1           0       -2.143105   -2.998079   -0.160698
     75          1           0       -1.424994   -1.630436    0.374337
     76          1           0       -1.052561   -2.937800    2.518529
     77          1           0       -1.437282   -4.398838    1.565679
     78          1           0       -1.646944    3.476657    3.723301
     79          1           0       -2.409988    4.947205    4.453857
     80          1           0       -2.774892    3.349106    5.058330
     81          1           0       -5.333482    6.719881    2.254514
     82          1           0       -9.977129    2.779563   -3.159399
     83          1           0      -10.376347    4.411791   -3.140724
     84          1           0       -9.658447    3.967831   -5.251750
     85          1           0       -8.262917    4.970235   -4.698037
     86          1           0       -8.120247    3.295632   -4.882280
     87          1           0       -8.374127   -1.232375   -4.735073
     88          1           0       -8.447293   -2.804222   -3.979486
     89          1           0       -9.287381   -1.444094   -3.242331
     90          1           0       -4.419113   -3.894832   -1.426717
     91          1           0        2.428314   -6.139282    0.982166
     92          1           0        2.029201   -5.286965   -0.298328
     93          1           0        3.888144   -4.089498    2.126538
     94          1           0        2.611452   -3.522279   -1.415179
     95          1           0        3.939961   -1.992583   -1.467554
     96          1           0        4.295590   -3.557035   -1.992064
     97          1           0        5.029930   -1.269809    0.255439
     98          1           0        5.406757   -2.253226    1.797145
     99          1           0        7.106042   -3.768863   -0.043036
    100          1           0        6.412050   -2.644780   -1.268190
    101          1           0        7.408656   -0.707905    0.407698
    102          1           0        7.887950   -1.956087    1.462203
    103          1           0        8.858148   -1.850107   -1.175720
    104          1           0        8.846177   -4.164359   -0.342532
    105          1           0       10.516713   -3.614497   -0.218928
    106          1           0        9.470428   -3.778537    1.249616
    107          1           0        9.692164    0.215456    0.259796
    108          1           0       10.124245   -1.145820    1.332494
    109          1           0       11.904700   -1.906189   -0.377117
    110          1           0       11.254129   -0.689803   -1.500664
    111          1           0       11.696216    1.388709    0.073646
    112          1           0       12.319784    0.246578    1.184999
    113          1           0       13.351530    0.683226   -1.566147
    114          1           0       14.641014   -0.905297    0.673218
    115          1           0       14.059574   -1.785893   -0.581927
    116          1           0       15.459079   -0.737587   -0.794543
    117          1           0       13.757609    2.815506   -0.128698
    118          1           0       14.505298    1.602425    0.974495
    119          1           0       16.334530    1.312547   -0.637514
    120          1           0       15.365296    2.106219   -1.967016
    121          1           0       15.375311    4.226788   -0.860915
    122          1           0       16.383046    3.425542    0.366518
    123          1           0       18.317399    2.949684   -0.972381
    124          1           0       16.599929    4.879575   -2.927307
    125          1           0       18.256340    4.305673   -3.272800
    126          1           0       16.938232    3.109753   -3.601482
    127          1           0       18.264531    4.874014    0.345945
    128          1           0       19.216552    5.279900   -1.039665
    129          1           0       17.286019    5.703696   -0.989608
    130          1           0       -5.439393   -7.738126   -0.026290
    131          1           0       -6.494122   -6.806166    1.396649
    132          1           0       -4.625423   -7.047721    1.573988
    133          8           0       -7.929819    6.691901   -0.267038
    134          1           0       -9.013863    6.387752   -1.914382
 ---------------------------------------------------------------------

 SCF Done:  E(RCAM-B3LYP) =  -3043.39250116     A.U. after   15 cycles

 Excitation energies and oscillator strengths:

 Excited State   1:      Singlet-A      2.0370 eV  608.65 nm  f=0.1890  <S**2>=0.000
     243 -> 246       -0.23703
     244 -> 245        0.65804
 This state for optimization and/or second-order correction.
 Total Energy, E(TD-HF/TD-KS) =  -3043.31764154
 Copying the excited state density for this state as the 1-particle RhoCI density.

 The electronic state is 1-A.
 Alpha  occ. eigenvalues --  -46.80774 -19.24399 -19.22373 -19.19158 -19.17588
 Alpha  occ. eigenvalues --  -19.17326 -19.17002 -19.15627 -14.38730 -14.37361
 Alpha  occ. eigenvalues --  -14.36591 -14.35919 -10.36756 -10.34663 -10.31414
 Alpha  occ. eigenvalues --  -10.31110 -10.30569 -10.29827 -10.27724 -10.27494
 Alpha  occ. eigenvalues --  -10.27307 -10.26902 -10.26892 -10.26824 -10.26671
 Alpha  occ. eigenvalues --  -10.25716 -10.25627 -10.25547 -10.25383 -10.25083
 Alpha  occ. eigenvalues --  -10.24679 -10.24566 -10.24481 -10.24451 -10.24393
 Alpha  occ. eigenvalues --  -10.24266 -10.24219 -10.24179 -10.24088 -10.23234
 Alpha  occ. eigenvalues --  -10.23051 -10.22802 -10.22744 -10.22736 -10.22692
 Alpha  occ. eigenvalues --  -10.22446 -10.22391 -10.21827 -10.21688 -10.21682
 Alpha  occ. eigenvalues --  -10.21474 -10.21439 -10.21378 -10.21335 -10.21233
 Alpha  occ. eigenvalues --  -10.21001 -10.20980 -10.20920 -10.20888 -10.20784
 Alpha  occ. eigenvalues --  -10.20664 -10.20491 -10.20490 -10.19854 -10.19747
 Alpha  occ. eigenvalues --  -10.19411  -3.09388  -1.84325  -1.83888  -1.83773
 Alpha  occ. eigenvalues --   -1.17256  -1.10662  -1.08517  -1.06779  -1.06599
 Alpha  occ. eigenvalues --   -1.04270  -1.02648  -1.01575  -1.00645  -0.97451
 Alpha  occ. eigenvalues --   -0.96647  -0.88587  -0.87774  -0.85879  -0.85575
 Alpha  occ. eigenvalues --   -0.84748  -0.84713  -0.84174  -0.83962  -0.83670
 Alpha  occ. eigenvalues --   -0.82925  -0.82715  -0.82244  -0.80951  -0.80191
 Alpha  occ. eigenvalues --   -0.78903  -0.78548  -0.77923  -0.77549  -0.76328
 Alpha  occ. eigenvalues --   -0.75228  -0.74859  -0.74228  -0.73563  -0.72521
 Alpha  occ. eigenvalues --   -0.71107  -0.70578  -0.70211  -0.70133  -0.69402
 Alpha  occ. eigenvalues --   -0.69205  -0.68894  -0.67405  -0.66678  -0.66216
 Alpha  occ. eigenvalues --   -0.65649  -0.64662  -0.64284  -0.62674  -0.61671
 Alpha  occ. eigenvalues --   -0.61063  -0.60165  -0.60037  -0.59637  -0.59394
 Alpha  occ. eigenvalues --   -0.58955  -0.58940  -0.58257  -0.58151  -0.57342
 Alpha  occ. eigenvalues --   -0.56678  -0.55691  -0.55421  -0.54972  -0.54788
 Alpha  occ. eigenvalues --   -0.54459  -0.53762  -0.53201  -0.52602  -0.52301
 Alpha  occ. eigenvalues --   -0.52083  -0.51760  -0.51324  -0.51129  -0.50725
 Alpha  occ. eigenvalues --   -0.50341  -0.50219  -0.49682  -0.49497  -0.49184
 Alpha  occ. eigenvalues --   -0.48971  -0.48777  -0.48512  -0.48135  -0.48067
 Alpha  occ. eigenvalues --   -0.47864  -0.47321  -0.47150  -0.47046  -0.46653
 Alpha  occ. eigenvalues --   -0.46465  -0.46334  -0.46123  -0.46007  -0.45717
 Alpha  occ. eigenvalues --   -0.45582  -0.45442  -0.45096  -0.44836  -0.44726
 Alpha  occ. eigenvalues --   -0.44525  -0.44426  -0.44314  -0.44153  -0.43990
 Alpha  occ. eigenvalues --   -0.43789  -0.43599  -0.42998  -0.42861  -0.42734
 Alpha  occ. eigenvalues --   -0.42440  -0.42261  -0.42140  -0.41873  -0.41737
 Alpha  occ. eigenvalues --   -0.41435  -0.41394  -0.41275  -0.41125  -0.40946
 Alpha  occ. eigenvalues --   -0.40802  -0.40418  -0.40262  -0.40064  -0.39960
 Alpha  occ. eigenvalues --   -0.39552  -0.39522  -0.39449  -0.39024  -0.38945
 Alpha  occ. eigenvalues --   -0.38706  -0.38663  -0.38403  -0.38394  -0.38300
 Alpha  occ. eigenvalues --   -0.37888  -0.37772  -0.37212  -0.37127  -0.36959
 Alpha  occ. eigenvalues --   -0.36612  -0.36413  -0.36282  -0.36124  -0.35456
 Alpha  occ. eigenvalues --   -0.35429  -0.35114  -0.34691  -0.34678  -0.34529
 Alpha  occ. eigenvalues --   -0.34012  -0.33741  -0.33445  -0.33138  -0.33004
 Alpha  occ. eigenvalues --   -0.32813  -0.32342  -0.31990  -0.31424  -0.31313
 Alpha  occ. eigenvalues --   -0.31297  -0.31145  -0.30007  -0.29715  -0.28998
 Alpha  occ. eigenvalues --   -0.28888  -0.28410  -0.28164  -0.27816  -0.27585
 Alpha  occ. eigenvalues --   -0.26737  -0.26435  -0.23152  -0.21853
 Alpha virt. eigenvalues --   -0.08899  -0.06299  -0.01368  -0.00789   0.01113
 Alpha virt. eigenvalues --    0.01481   0.03074   0.03240   0.03441   0.04633
 Alpha virt. eigenvalues --    0.05203   0.05734   0.07812   0.08408   0.09207

 Mulliken charges:
               1
     1  Mg   0.815674
     2  C    0.085819
     3  C   -0.200269
     4  C   -0.150478
     5  C   -0.190181
     6  N   -0.627964
     7  C    0.260654
     8  C   -0.160060
     9  C   -0.141680
    10  C    0.418098
    11  C   -0.299073
    12  C   -0.134251
    13  C   -0.265796
    14  C    0.588628
    15  O   -0.456733
    16  O   -0.472592
    17  N   -0.707377
    18  C    0.326456
    19  C    0.139240
    20  C   -0.066023
    21  C    0.280026
    22  C   -0.448146
    23  C    0.260658
    24  O   -0.411931
    25  N   -0.707093
    26  C    0.329418
    27  C   -0.065548
    28  C    0.054465
    29  C    0.263794
    30  C    0.251748
    31  C   -0.233959
    32  C   -0.303975
    33  N   -0.721983
    34  C    0.275929
    35  C   -0.055819
    36  C    0.119942
    37  C    0.261750
    38  C   -0.363988
    39  C    0.326636
    40  O   -0.469663
    41  C   -0.323786
    42  C    0.624079
    43  O   -0.524375
    44  O   -0.375817
    45  C   -0.091312
    46  C   -0.004659
    47  C   -0.139618
    48  C    0.162538
    49  C   -0.373382
    50  C   -0.228679
    51  C   -0.164569
    52  C   -0.177433
    53  C   -0.060654
    54  C   -0.310090
    55  C   -0.166038
    56  C   -0.177460
    57  C   -0.155614
    58  C   -0.042480
    59  C   -0.323435
    60  C   -0.182747
    61  C   -0.172330
    62  C   -0.160873
    63  C   -0.088640
    64  C   -0.303304
    65  C   -0.284123
    66  H    0.081209
    67  H    0.134308
    68  H    0.085020
    69  H    0.119413
    70  H    0.074686
    71  H    0.127892
    72  H    0.116694
    73  H    0.096373
    74  H    0.121756
    75  H    0.120905
    76  H    0.125533
    77  H    0.144834
    78  H    0.096547
    79  H    0.164201
    80  H    0.139789
    81  H    0.063796
    82  H    0.125393
    83  H    0.100012
    84  H    0.120450
    85  H    0.115702
    86  H    0.110915
    87  H    0.130025
    88  H    0.144226
    89  H    0.140412
    90  H    0.170358
    91  H    0.102500
    92  H    0.130345
    93  H    0.084035
    94  H    0.136245
    95  H    0.116409
    96  H    0.121180
    97  H    0.073956
    98  H    0.071658
    99  H    0.102662
   100  H    0.073600
   101  H    0.088561
   102  H    0.073246
   103  H    0.095943
   104  H    0.068860
   105  H    0.120794
   106  H    0.118832
   107  H    0.069119
   108  H    0.093946
   109  H    0.096696
   110  H    0.062423
   111  H    0.051791
   112  H    0.103883
   113  H    0.092950
   114  H    0.117529
   115  H    0.098870
   116  H    0.097831
   117  H    0.094279
   118  H    0.051954
   119  H    0.084469
   120  H    0.096902
   121  H    0.093520
   122  H    0.106282
   123  H    0.087546
   124  H    0.108846
   125  H    0.115616
   126  H    0.062798
   127  H    0.097512
   128  H    0.072662
   129  H    0.094912
   130  H    0.134300
   131  H    0.130425
   132  H    0.110784
   133  O   -0.403955
   134  H    0.067279
 Sum of Mulliken charges =   0.00000

 Dipole moment (field-independent basis, Debye):
    X=              1.1672    Y=             -4.2749    Z=             -1.2928  Tot=              4.6162
 Quadrupole moment (field-independent basis, Debye-Ang):
   XX=           -366.3032   YY=           -430.6335   ZZ=           -392.0549
   XY=             -2.8558   XZ=             30.9905   YZ=            -33.7748

 Normal termination of Gaussian 09 at Mon Oct  7 19:09:36 2019.
