 Gaussian 09, Revision D.01,
 Gaussian 09:  ES64L-G09RevD.01 24-Apr-2013

 ----------------------------------------------------------------------
 # td=(NStates=1) iop(3/107=0140000000,3/108=0140000000) iop(3/107=0140
 000000,3/108=0140000000) CAM-B3LYP/6-31G(d,p)
 ----------------------------------------------------------------------

 --
 TD
 --
 Symbolic Z-matrix:
 Charge =  0 Multiplicity = 1

                         Standard orientation:
 ---------------------------------------------------------------------
 Center     Atomic      Atomic             Coordinates (Angstroms)
 Number     Number       Type             X           Y           Z
 ---------------------------------------------------------------------
      1         12           0       -5.614399    1.263427    0.263816
      2          6           0       -5.006349   -2.160619   -0.320962
      3          6           0       -3.362308    1.124422    2.720653
      4          6           0       -6.192639    4.540472    0.683434
      5          6           0       -8.037524    1.117006   -2.354004
      6          7           0       -4.395801   -0.259889    0.998552
      7          6           0       -4.274108   -1.561984    0.617199
      8          6           0       -3.273257   -2.333696    1.454464
      9          6           0       -2.901105   -1.331835    2.524067
     10          6           0       -3.570072   -0.013042    2.058353
     11          6           0       -3.580133   -1.812052    3.965928
     12          6           0       -1.931956   -2.716659    0.750057
     13          6           0       -0.997033   -3.579872    1.493733
     14          6           0        0.216417   -3.882075    0.655947
     15          8           0        0.268903   -3.563777   -0.534503
     16          8           0        1.077321   -4.774332    1.305910
     17          7           0       -4.861172    2.699256    1.510620
     18          6           0       -3.888243    2.413912    2.419162
     19          6           0       -3.569634    3.714190    3.082322
     20          6           0       -4.442326    4.674469    2.590012
     21          6           0       -5.335426    3.964548    1.588682
     22          6           0       -2.651988    3.838159    4.325503
     23          6           0       -4.578004    6.088359    2.921817
     24          8           0       -3.891585    6.592060    3.758436
     25          7           0       -6.908634    2.543144   -0.615325
     26          6           0       -6.905691    3.921764   -0.333264
     27          6           0       -7.901349    4.559260   -1.143383
     28          6           0       -8.508842    3.642246   -2.049849
     29          6           0       -7.834568    2.423130   -1.617511
     30          6           0       -8.169907    5.948237   -1.270721
     31          6           0       -9.467861    3.813912   -3.029873
     32          6           0       -8.824305    3.954728   -4.431292
     33          7           0       -6.371398   -0.116732   -0.990729
     34          6           0       -7.289458    0.035314   -2.063559
     35          6           0       -7.559565   -1.244996   -2.722129
     36          6           0       -6.659651   -2.169281   -2.076187
     37          6           0       -5.960143   -1.440430   -1.038923
     38          6           0       -8.325088   -1.545641   -3.985493
     39          6           0       -6.214163   -3.569382   -1.998232
     40          8           0       -6.451902   -4.558177   -2.611493
     41          6           0       -5.056969   -3.507576   -0.898150
     42          6           0       -5.364487   -4.565318    0.127983
     43          8           0       -5.917202   -4.417113    1.222784
     44          8           0       -5.048417   -5.819223   -0.308966
     45          6           0       -5.340733   -6.927207    0.606129
     46          6           0        2.306622   -5.090718    0.654670
     47          6           0        3.410213   -4.064014    0.886009
     48          6           0        4.043408   -3.306327    0.058148
     49          6           0        3.729619   -3.262543   -1.402624
     50          6           0        5.207603   -2.388647    0.533105
     51          6           0        6.577251   -2.826548   -0.026392
     52          6           0        7.675871   -1.897958    0.635738
     53          6           0        8.998299   -2.081556   -0.155121
     54          6           0        9.603843   -3.513170    0.266849
     55          6           0        9.863479   -0.988812    0.375049
     56          6           0       11.266288   -0.819842   -0.282696
     57          6           0       12.237179    0.159452    0.259222
     58          6           0       13.583736    0.455896   -0.520851
     59          6           0       14.486331   -0.712510   -0.353023
     60          6           0       14.107069    1.875841   -0.247597
     61          6           0       15.364071    2.183868   -1.019412
     62          6           0       15.922453    3.589631   -0.730594
     63          6           0       17.231082    3.987828   -1.327656
     64          6           0       17.047289    4.105718   -2.880754
     65          6           0       17.855119    5.261942   -0.667228
     66          1           0       -2.596177    1.147649    3.519633
     67          1           0       -6.329098    5.663000    0.881940
     68          1           0       -8.726946    1.257674   -2.996754
     69          1           0       -3.424645   -3.347852    1.853096
     70          1           0       -1.906390   -1.295675    2.729746
     71          1           0       -2.966776   -2.765262    4.283754
     72          1           0       -3.466028   -1.149983    4.844791
     73          1           0       -4.699607   -2.082467    3.999909
     74          1           0       -2.123397   -3.283227   -0.050128
     75          1           0       -1.513839   -1.733987    0.237365
     76          1           0       -0.461127   -3.339311    2.521356
     77          1           0       -1.353310   -4.727862    1.515698
     78          1           0       -1.616692    3.760201    3.946593
     79          1           0       -2.612620    4.968666    4.579949
     80          1           0       -2.921780    3.242538    5.241277
     81          1           0       -5.350569    6.584246    2.404949
     82          1           0      -10.186965    2.987001   -3.189969
     83          1           0      -10.033065    4.621676   -2.733584
     84          1           0       -9.676920    4.322719   -5.004489
     85          1           0       -8.306275    4.844594   -4.598221
     86          1           0       -8.451171    2.982954   -4.700833
     87          1           0       -8.049917   -0.846328   -4.937882
     88          1           0       -8.387617   -2.530992   -4.288219
     89          1           0       -9.545566   -1.373590   -3.988303
     90          1           0       -4.116588   -3.736423   -1.339611
     91          1           0        2.745526   -5.925318    1.073708
     92          1           0        2.163067   -5.008305   -0.351945
     93          1           0        3.789977   -4.092154    1.910861
     94          1           0        2.799953   -3.638048   -1.789700
     95          1           0        3.799888   -2.293370   -1.834547
     96          1           0        4.574373   -3.975029   -2.035810
     97          1           0        4.969476   -1.388198    0.430987
     98          1           0        5.264901   -2.311625    1.639882
     99          1           0        6.756735   -3.962892    0.240107
    100          1           0        6.554978   -2.480540   -1.208426
    101          1           0        7.669061   -0.877095    0.533918
    102          1           0        7.795942   -2.067316    1.719048
    103          1           0        8.662229   -1.901171   -1.156443
    104          1           0        9.005503   -4.502305   -0.086801
    105          1           0       10.558220   -3.462853   -0.397840
    106          1           0        9.873347   -3.741373    1.408512
    107          1           0        9.437917    0.006146    0.200526
    108          1           0       10.110621   -1.006575    1.459997
    109          1           0       11.678782   -1.948714   -0.620298
    110          1           0       11.114084   -0.470243   -1.390050
    111          1           0       11.781885    1.162826    0.459542
    112          1           0       12.602010   -0.077544    1.465304
    113          1           0       13.226599    0.499697   -1.644658
    114          1           0       14.770000   -0.877847    0.892238
    115          1           0       14.070976   -1.700215   -0.495434
    116          1           0       15.335173   -0.627257   -1.009824
    117          1           0       13.200149    2.660481   -0.573824
    118          1           0       14.229075    2.112383    0.981861
    119          1           0       16.060715    1.486832   -0.895602
    120          1           0       15.097739    2.128925   -2.003039
    121          1           0       15.357066    4.488694   -1.041995
    122          1           0       16.070062    3.791132    0.489099
    123          1           0       18.032806    3.294424   -1.050909
    124          1           0       16.315696    5.016915   -2.776998
    125          1           0       17.952381    4.310818   -3.355163
    126          1           0       16.523805    3.229995   -3.321218
    127          1           0       17.741311    5.095674    0.365810
    128          1           0       19.032194    5.202642   -1.091432
    129          1           0       17.380849    6.200953   -1.146136
    130          1           0       -4.792482   -7.968950    0.267029
    131          1           0       -6.434601   -7.129788    0.522284
    132          1           0       -4.898358   -6.823597    1.558449
    133          8           0       -7.771451    6.981450   -0.617239
    134          1           0       -8.700203    6.171151   -2.120707
 ---------------------------------------------------------------------

 SCF Done:  E(RCAM-B3LYP) =  -3043.42597583     A.U. after   15 cycles

 Excitation energies and oscillator strengths:

 Excited State   1:      Singlet-A      2.0707 eV  598.77 nm  f=0.1707  <S**2>=0.000
     243 -> 246        0.26888
     244 -> 245        0.64033
 This state for optimization and/or second-order correction.
 Total Energy, E(TD-HF/TD-KS) =  -3043.34988052
 Copying the excited state density for this state as the 1-particle RhoCI density.

 The electronic state is 1-A.
 Alpha  occ. eigenvalues --  -46.80776 -19.22456 -19.22154 -19.18068 -19.17861
 Alpha  occ. eigenvalues --  -19.16906 -19.16557 -19.15773 -14.38836 -14.37501
 Alpha  occ. eigenvalues --  -14.37014 -14.37000 -10.35771 -10.34929 -10.32192
 Alpha  occ. eigenvalues --  -10.29475 -10.28545 -10.28319 -10.27548 -10.27422
 Alpha  occ. eigenvalues --  -10.27369 -10.27051 -10.26888 -10.26655 -10.26444
 Alpha  occ. eigenvalues --  -10.26355 -10.26234 -10.26156 -10.26147 -10.25208
 Alpha  occ. eigenvalues --  -10.24843 -10.24581 -10.24349 -10.24227 -10.24038
 Alpha  occ. eigenvalues --  -10.23977 -10.23888 -10.23623 -10.23616 -10.23494
 Alpha  occ. eigenvalues --  -10.23425 -10.23305 -10.23063 -10.22974 -10.22974
 Alpha  occ. eigenvalues --  -10.22898 -10.22819 -10.22805 -10.22784 -10.22749
 Alpha  occ. eigenvalues --  -10.22623 -10.22470 -10.22377 -10.22213 -10.22146
 Alpha  occ. eigenvalues --  -10.21917 -10.21802 -10.21623 -10.21429 -10.21322
 Alpha  occ. eigenvalues --  -10.21184 -10.20976 -10.20706 -10.20201 -10.20114
 Alpha  occ. eigenvalues --  -10.19686  -3.09534  -1.84465  -1.84021  -1.83940
 Alpha  occ. eigenvalues --   -1.12128  -1.12107  -1.09300  -1.08064  -1.04780
 Alpha  occ. eigenvalues --   -1.02916  -1.02016  -1.00732  -0.99602  -0.99024
 Alpha  occ. eigenvalues --   -0.97942  -0.89758  -0.87572  -0.86890  -0.86133
 Alpha  occ. eigenvalues --   -0.85512  -0.85042  -0.84979  -0.83739  -0.83387
 Alpha  occ. eigenvalues --   -0.83306  -0.81958  -0.81725  -0.80601  -0.80032
 Alpha  occ. eigenvalues --   -0.79878  -0.78534  -0.77902  -0.77334  -0.76668
 Alpha  occ. eigenvalues --   -0.75073  -0.74868  -0.73389  -0.73116  -0.72378
 Alpha  occ. eigenvalues --   -0.70984  -0.70637  -0.70394  -0.69936  -0.69850
 Alpha  occ. eigenvalues --   -0.69529  -0.69142  -0.68163  -0.67722  -0.67073
 Alpha  occ. eigenvalues --   -0.66539  -0.65124  -0.64368  -0.63057  -0.62668
 Alpha  occ. eigenvalues --   -0.62082  -0.61256  -0.59810  -0.59165  -0.59045
 Alpha  occ. eigenvalues --   -0.58841  -0.58380  -0.58060  -0.57601  -0.56645
 Alpha  occ. eigenvalues --   -0.56519  -0.56461  -0.56118  -0.55580  -0.54561
 Alpha  occ. eigenvalues --   -0.54373  -0.54013  -0.53285  -0.53015  -0.52820
 Alpha  occ. eigenvalues --   -0.52612  -0.51720  -0.51544  -0.50775  -0.50710
 Alpha  occ. eigenvalues --   -0.50546  -0.50363  -0.49768  -0.49424  -0.49208
 Alpha  occ. eigenvalues --   -0.48954  -0.48564  -0.48429  -0.47889  -0.47815
 Alpha  occ. eigenvalues --   -0.47608  -0.47560  -0.47348  -0.47303  -0.47099
 Alpha  occ. eigenvalues --   -0.46896  -0.46738  -0.46537  -0.46207  -0.45910
 Alpha  occ. eigenvalues --   -0.45809  -0.45361  -0.45163  -0.45019  -0.44905
 Alpha  occ. eigenvalues --   -0.44301  -0.44141  -0.43854  -0.43709  -0.43668
 Alpha  occ. eigenvalues --   -0.43385  -0.43265  -0.43061  -0.42883  -0.42616
 Alpha  occ. eigenvalues --   -0.42513  -0.42310  -0.42221  -0.42199  -0.41761
 Alpha  occ. eigenvalues --   -0.41623  -0.41452  -0.41169  -0.41044  -0.40859
 Alpha  occ. eigenvalues --   -0.40534  -0.40287  -0.40160  -0.40043  -0.39722
 Alpha  occ. eigenvalues --   -0.39583  -0.39511  -0.39345  -0.39232  -0.39070
 Alpha  occ. eigenvalues --   -0.38925  -0.38648  -0.38486  -0.38448  -0.38251
 Alpha  occ. eigenvalues --   -0.37974  -0.37782  -0.37632  -0.37541  -0.37201
 Alpha  occ. eigenvalues --   -0.36914  -0.36741  -0.36702  -0.36660  -0.36427
 Alpha  occ. eigenvalues --   -0.35416  -0.34895  -0.34745  -0.34652  -0.34614
 Alpha  occ. eigenvalues --   -0.34284  -0.33911  -0.33193  -0.32961  -0.32840
 Alpha  occ. eigenvalues --   -0.32612  -0.32213  -0.32001  -0.31895  -0.31602
 Alpha  occ. eigenvalues --   -0.30968  -0.30809  -0.30287  -0.29997  -0.29903
 Alpha  occ. eigenvalues --   -0.28621  -0.28479  -0.28034  -0.27851  -0.27688
 Alpha  occ. eigenvalues --   -0.27645  -0.26724  -0.23572  -0.22017
 Alpha virt. eigenvalues --   -0.08692  -0.07135  -0.01798  -0.00994   0.00706
 Alpha virt. eigenvalues --    0.02446   0.03241   0.03874   0.04203   0.04828
 Alpha virt. eigenvalues --    0.04986   0.06024   0.07440   0.08535   0.09327

 Mulliken charges:
               1
     1  Mg   0.813571
     2  C    0.152580
     3  C   -0.190468
     4  C   -0.168553
     5  C   -0.076321
     6  N   -0.675739
     7  C    0.336077
     8  C   -0.151703
     9  C   -0.121399
    10  C    0.385353
    11  C   -0.328738
    12  C   -0.170818
    13  C   -0.272082
    14  C    0.604519
    15  O   -0.463918
    16  O   -0.485775
    17  N   -0.709230
    18  C    0.319685
    19  C    0.003415
    20  C   -0.036011
    21  C    0.299120
    22  C   -0.397872
    23  C    0.264079
    24  O   -0.406262
    25  N   -0.682519
    26  C    0.313123
    27  C   -0.020254
    28  C    0.114033
    29  C    0.216231
    30  C    0.217767
    31  C   -0.309064
    32  C   -0.311942
    33  N   -0.720140
    34  C    0.283013
    35  C    0.055209
    36  C    0.003608
    37  C    0.268793
    38  C   -0.382021
    39  C    0.377186
    40  O   -0.424939
    41  C   -0.361033
    42  C    0.612898
    43  O   -0.486095
    44  O   -0.455453
    45  C   -0.078164
    46  C    0.041896
    47  C   -0.176965
    48  C    0.168684
    49  C   -0.377948
    50  C   -0.233296
    51  C   -0.164339
    52  C   -0.160526
    53  C   -0.056445
    54  C   -0.300215
    55  C   -0.179557
    56  C   -0.171669
    57  C   -0.155074
    58  C   -0.038358
    59  C   -0.288754
    60  C   -0.157090
    61  C   -0.160498
    62  C   -0.145480
    63  C   -0.084146
    64  C   -0.294273
    65  C   -0.290107
    66  H    0.094367
    67  H    0.141500
    68  H    0.049575
    69  H    0.121433
    70  H    0.110539
    71  H    0.089283
    72  H    0.108708
    73  H    0.127960
    74  H    0.124615
    75  H    0.106144
    76  H    0.128986
    77  H    0.138954
    78  H    0.122252
    79  H    0.154847
    80  H    0.128905
    81  H    0.083549
    82  H    0.122401
    83  H    0.123735
    84  H    0.110125
    85  H    0.130948
    86  H    0.121663
    87  H    0.118296
    88  H    0.160300
    89  H    0.097221
    90  H    0.165247
    91  H    0.121845
    92  H    0.118923
    93  H    0.070528
    94  H    0.143291
    95  H    0.118320
    96  H    0.075899
    97  H    0.112668
    98  H    0.088265
    99  H    0.100811
   100  H    0.077540
   101  H    0.090734
   102  H    0.089474
   103  H    0.097324
   104  H    0.084367
   105  H    0.093057
   106  H    0.101031
   107  H    0.098507
   108  H    0.099859
   109  H    0.062515
   110  H    0.072372
   111  H    0.087956
   112  H    0.038772
   113  H    0.069846
   114  H    0.060012
   115  H    0.119015
   116  H    0.101239
   117  H    0.067274
   118  H    0.060833
   119  H    0.113400
   120  H    0.106192
   121  H    0.082754
   122  H    0.044951
   123  H    0.079718
   124  H    0.083362
   125  H    0.109495
   126  H    0.102864
   127  H    0.116940
   128  H    0.072756
   129  H    0.091106
   130  H    0.096421
   131  H    0.139950
   132  H    0.139295
   133  O   -0.475551
   134  H    0.062924
 Sum of Mulliken charges =   0.00000

 Dipole moment (field-independent basis, Debye):
    X=              1.7709    Y=             -4.9726    Z=             -2.0846  Tot=              5.6752
 Quadrupole moment (field-independent basis, Debye-Ang):
   XX=           -378.1156   YY=           -449.4933   ZZ=           -389.4115
   XY=              5.5968   XZ=             24.1418   YZ=            -33.8863

 Normal termination of Gaussian 09 at Mon Oct  7 21:04:04 2019.
