 Gaussian 09, Revision D.01,
 Gaussian 09:  ES64L-G09RevD.01 24-Apr-2013

 ----------------------------------------------------------------------
 # td=(NStates=1) iop(3/107=0140000000,3/108=0140000000) iop(3/107=0140
 000000,3/108=0140000000) CAM-B3LYP/6-31G(d,p)
 ----------------------------------------------------------------------

 --
 TD
 --
 Symbolic Z-matrix:
 Charge =  0 Multiplicity = 1

                         Standard orientation:
 ---------------------------------------------------------------------
 Center     Atomic      Atomic             Coordinates (Angstroms)
 Number     Number       Type             X           Y           Z
 ---------------------------------------------------------------------
      1         12           0       -5.607959    1.181067    0.147864
      2          6           0       -5.128687   -2.156889   -0.414756
      3          6           0       -3.446268    1.234765    2.735636
      4          6           0       -6.215914    4.474673    0.731712
      5          6           0       -7.952527    1.215105   -2.435022
      6          7           0       -4.399982   -0.355620    1.072159
      7          6           0       -4.300774   -1.695362    0.596984
      8          6           0       -3.222960   -2.389202    1.451946
      9          6           0       -2.905911   -1.283115    2.663175
     10          6           0       -3.601711   -0.138457    2.168344
     11          6           0       -3.370306   -1.817844    4.009344
     12          6           0       -2.049668   -2.757283    0.664848
     13          6           0       -0.979822   -3.550410    1.454049
     14          6           0        0.253417   -3.938408    0.589635
     15          8           0        0.494141   -3.393467   -0.505795
     16          8           0        1.039915   -4.816185    1.206961
     17          7           0       -5.009190    2.543752    1.531334
     18          6           0       -4.087654    2.388815    2.473288
     19          6           0       -3.817088    3.623603    3.236683
     20          6           0       -4.642124    4.555177    2.675556
     21          6           0       -5.392419    3.852231    1.561102
     22          6           0       -2.723890    3.925998    4.240961
     23          6           0       -4.713160    5.889397    3.070318
     24          8           0       -4.067009    6.547831    3.892943
     25          7           0       -6.824718    2.619096   -0.725393
     26          6           0       -6.980723    3.973527   -0.341998
     27          6           0       -7.827345    4.643913   -1.300147
     28          6           0       -8.390467    3.725148   -2.100913
     29          6           0       -7.735217    2.434548   -1.756962
     30          6           0       -8.199743    6.019075   -1.219065
     31          6           0       -9.391799    3.965975   -3.171075
     32          6           0       -8.765364    3.918603   -4.691370
     33          7           0       -6.284565   -0.113914   -1.078374
     34          6           0       -7.337448   -0.020645   -2.085012
     35          6           0       -7.516080   -1.342857   -2.734218
     36          6           0       -6.677808   -2.133109   -2.003512
     37          6           0       -5.989090   -1.382512   -1.093692
     38          6           0       -8.486764   -1.598805   -3.765900
     39          6           0       -6.254529   -3.578467   -2.052667
     40          8           0       -6.574454   -4.500668   -2.676305
     41          6           0       -5.089838   -3.514106   -0.969907
     42          6           0       -5.282542   -4.684447    0.081128
     43          8           0       -5.778908   -4.499143    1.219688
     44          8           0       -4.997802   -5.859504   -0.444162
     45          6           0       -5.187740   -6.987551    0.535429
     46          6           0        2.319665   -4.994353    0.536373
     47          6           0        3.435436   -4.085885    0.998835
     48          6           0        4.002276   -3.121206    0.265885
     49          6           0        3.648578   -2.885026   -1.186021
     50          6           0        5.119672   -2.310692    0.759550
     51          6           0        6.426295   -2.586852    0.020608
     52          6           0        7.593854   -1.823131    0.631965
     53          6           0        9.016297   -1.905710   -0.040719
     54          6           0        9.526958   -3.385717    0.202851
     55          6           0        9.929568   -0.868518    0.380292
     56          6           0       11.263400   -0.908262   -0.268383
     57          6           0       12.149808    0.346014    0.251107
     58          6           0       13.524388    0.469272   -0.594741
     59          6           0       14.332216   -0.667723   -0.464849
     60          6           0       14.258664    1.693146   -0.109435
     61          6           0       15.470826    2.128992   -1.049171
     62          6           0       16.102255    3.488724   -0.728338
     63          6           0       17.484533    3.785209   -1.379013
     64          6           0       17.291220    4.033840   -2.864950
     65          6           0       18.171504    5.115672   -0.733611
     66          1           0       -2.658093    1.214997    3.392364
     67          1           0       -6.343406    5.595326    0.569497
     68          1           0       -8.508034    1.250378   -3.373249
     69          1           0       -3.573922   -3.131699    2.046301
     70          1           0       -1.803080   -1.251898    2.673351
     71          1           0       -2.951088   -2.715567    4.389218
     72          1           0       -3.172140   -1.059706    4.789963
     73          1           0       -4.429572   -1.925386    3.928274
     74          1           0       -2.247491   -3.402243   -0.032847
     75          1           0       -1.493390   -1.904280    0.299652
     76          1           0       -0.587526   -3.180160    2.355058
     77          1           0       -1.579062   -4.541905    1.619109
     78          1           0       -1.944043    3.507554    3.752921
     79          1           0       -2.714965    4.993328    4.451840
     80          1           0       -2.933672    3.354591    5.309572
     81          1           0       -5.630506    6.451502    2.615492
     82          1           0      -10.185279    3.280743   -3.138581
     83          1           0       -9.859529    5.023078   -2.950198
     84          1           0       -9.843346    4.001330   -5.274971
     85          1           0       -8.294195    4.831942   -4.599685
     86          1           0       -8.181760    3.111342   -4.695447
     87          1           0       -7.969126   -1.047210   -4.616863
     88          1           0       -8.300320   -2.706271   -3.950236
     89          1           0       -9.394043   -1.474499   -3.563127
     90          1           0       -4.103644   -3.861836   -1.601614
     91          1           0        2.426811   -6.027391    0.829971
     92          1           0        2.070015   -4.828810   -0.530245
     93          1           0        3.758362   -4.137944    2.088900
     94          1           0        2.554376   -3.029293   -1.251262
     95          1           0        3.818016   -1.805483   -1.189644
     96          1           0        4.356619   -3.500686   -1.777387
     97          1           0        5.015169   -1.220762    0.721522
     98          1           0        5.454646   -2.544131    1.900567
     99          1           0        6.636311   -3.784174    0.061455
    100          1           0        6.317525   -2.464891   -1.048999
    101          1           0        7.211259   -0.835834    0.553897
    102          1           0        7.680103   -1.989919    1.771376
    103          1           0        8.958189   -1.501101   -1.181952
    104          1           0        8.770014   -3.980850   -0.095131
    105          1           0       10.584374   -3.838272   -0.248629
    106          1           0        9.523100   -3.732607    1.362196
    107          1           0        9.380686   -0.037246    0.394254
    108          1           0       10.159317   -0.946730    1.464111
    109          1           0       11.871051   -1.779314   -0.024815
    110          1           0       11.177695   -0.920000   -1.436076
    111          1           0       11.677220    1.314013    0.012083
    112          1           0       12.588565    0.137945    1.295608
    113          1           0       12.931548    0.422933   -1.521511
    114          1           0       14.846058   -0.847565    0.453273
    115          1           0       13.906745   -1.593516   -0.867557
    116          1           0       15.179089   -0.627256   -1.290645
    117          1           0       13.676177    2.648572    0.059986
    118          1           0       14.939441    1.459473    0.909029
    119          1           0       16.033950    1.233137   -1.093717
    120          1           0       15.146548    2.297422   -2.165586
    121          1           0       15.360947    4.239090   -0.860102
    122          1           0       16.407052    3.574750    0.390821
    123          1           0       17.838930    2.844555   -1.118098
    124          1           0       16.420811    4.913253   -2.970968
    125          1           0       18.214686    4.432149   -3.474278
    126          1           0       16.706758    3.173539   -3.273513
    127          1           0       18.193627    4.914229    0.380523
    128          1           0       19.123098    5.133569   -1.159388
    129          1           0       17.634361    6.135541   -0.876000
    130          1           0       -5.085834   -7.584581   -0.125950
    131          1           0       -6.287200   -7.050555    0.666924
    132          1           0       -4.552304   -7.063361    1.457920
    133          8           0       -7.849634    6.843005   -0.395402
    134          1           0       -9.072688    6.450437   -1.937559
 ---------------------------------------------------------------------

 SCF Done:  E(RCAM-B3LYP) =  -3043.41086836     A.U. after   16 cycles

 Excitation energies and oscillator strengths:

 Excited State   1:      Singlet-A      2.0995 eV  590.55 nm  f=0.1106  <S**2>=0.000
     243 -> 246        0.32024
     244 -> 245        0.62377
 This state for optimization and/or second-order correction.
 Total Energy, E(TD-HF/TD-KS) =  -3043.33371409
 Copying the excited state density for this state as the 1-particle RhoCI density.

 The electronic state is 1-A.
 Alpha  occ. eigenvalues --  -46.80566 -19.23971 -19.23324 -19.18463 -19.17687
 Alpha  occ. eigenvalues --  -19.17000 -19.16714 -19.16398 -14.39116 -14.36859
 Alpha  occ. eigenvalues --  -14.36669 -14.36526 -10.35742 -10.35332 -10.31794
 Alpha  occ. eigenvalues --  -10.30580 -10.29368 -10.28312 -10.27597 -10.27431
 Alpha  occ. eigenvalues --  -10.26915 -10.26301 -10.26274 -10.26258 -10.26135
 Alpha  occ. eigenvalues --  -10.25950 -10.25521 -10.24717 -10.24680 -10.24438
 Alpha  occ. eigenvalues --  -10.24427 -10.24401 -10.24375 -10.24315 -10.23567
 Alpha  occ. eigenvalues --  -10.23336 -10.23212 -10.23170 -10.23151 -10.22939
 Alpha  occ. eigenvalues --  -10.22736 -10.22614 -10.22569 -10.22482 -10.22461
 Alpha  occ. eigenvalues --  -10.22245 -10.22131 -10.22014 -10.21961 -10.21955
 Alpha  occ. eigenvalues --  -10.21944 -10.21926 -10.21866 -10.21862 -10.21796
 Alpha  occ. eigenvalues --  -10.21654 -10.21460 -10.21399 -10.21321 -10.20994
 Alpha  occ. eigenvalues --  -10.20989 -10.20978 -10.20973 -10.20606 -10.20064
 Alpha  occ. eigenvalues --  -10.18972  -3.09387  -1.84305  -1.83861  -1.83820
 Alpha  occ. eigenvalues --   -1.14198  -1.13697  -1.11225  -1.06899  -1.05111
 Alpha  occ. eigenvalues --   -1.04306  -1.02917  -1.00969  -1.00654  -0.98205
 Alpha  occ. eigenvalues --   -0.97749  -0.89210  -0.87198  -0.86481  -0.86090
 Alpha  occ. eigenvalues --   -0.85642  -0.85145  -0.85013  -0.84445  -0.84242
 Alpha  occ. eigenvalues --   -0.83463  -0.83092  -0.82012  -0.81168  -0.80027
 Alpha  occ. eigenvalues --   -0.79413  -0.78364  -0.78134  -0.77639  -0.76795
 Alpha  occ. eigenvalues --   -0.75671  -0.75287  -0.74519  -0.73568  -0.72790
 Alpha  occ. eigenvalues --   -0.71360  -0.71066  -0.70281  -0.70173  -0.69892
 Alpha  occ. eigenvalues --   -0.69219  -0.69037  -0.68035  -0.66998  -0.66663
 Alpha  occ. eigenvalues --   -0.66389  -0.65428  -0.63486  -0.62707  -0.62377
 Alpha  occ. eigenvalues --   -0.61538  -0.60689  -0.60629  -0.59168  -0.58816
 Alpha  occ. eigenvalues --   -0.58697  -0.58555  -0.57786  -0.57504  -0.57408
 Alpha  occ. eigenvalues --   -0.56598  -0.55853  -0.55492  -0.55205  -0.54491
 Alpha  occ. eigenvalues --   -0.54123  -0.53774  -0.53208  -0.52984  -0.52431
 Alpha  occ. eigenvalues --   -0.51948  -0.51754  -0.51526  -0.51385  -0.50698
 Alpha  occ. eigenvalues --   -0.50618  -0.50528  -0.49962  -0.49678  -0.49620
 Alpha  occ. eigenvalues --   -0.49067  -0.48903  -0.48579  -0.48372  -0.48215
 Alpha  occ. eigenvalues --   -0.48021  -0.47966  -0.47753  -0.47377  -0.47012
 Alpha  occ. eigenvalues --   -0.46806  -0.46729  -0.46549  -0.46317  -0.46074
 Alpha  occ. eigenvalues --   -0.45983  -0.45774  -0.45551  -0.45400  -0.45288
 Alpha  occ. eigenvalues --   -0.45025  -0.44764  -0.44636  -0.44429  -0.44041
 Alpha  occ. eigenvalues --   -0.43883  -0.43744  -0.43441  -0.43201  -0.43093
 Alpha  occ. eigenvalues --   -0.42817  -0.42463  -0.42363  -0.41964  -0.41728
 Alpha  occ. eigenvalues --   -0.41571  -0.41467  -0.41326  -0.41123  -0.41052
 Alpha  occ. eigenvalues --   -0.40914  -0.40763  -0.40590  -0.40492  -0.40178
 Alpha  occ. eigenvalues --   -0.39929  -0.39842  -0.39651  -0.39604  -0.39298
 Alpha  occ. eigenvalues --   -0.39145  -0.38863  -0.38757  -0.38660  -0.38441
 Alpha  occ. eigenvalues --   -0.38425  -0.38142  -0.38008  -0.37752  -0.37470
 Alpha  occ. eigenvalues --   -0.37098  -0.36830  -0.36612  -0.36277  -0.35899
 Alpha  occ. eigenvalues --   -0.35393  -0.35354  -0.34678  -0.34563  -0.34463
 Alpha  occ. eigenvalues --   -0.34430  -0.34344  -0.34115  -0.33625  -0.33317
 Alpha  occ. eigenvalues --   -0.33128  -0.32670  -0.32422  -0.32291  -0.31616
 Alpha  occ. eigenvalues --   -0.31160  -0.30829  -0.30351  -0.29641  -0.29187
 Alpha  occ. eigenvalues --   -0.28612  -0.28570  -0.28086  -0.27953  -0.27851
 Alpha  occ. eigenvalues --   -0.27272  -0.26625  -0.22920  -0.21106
 Alpha virt. eigenvalues --   -0.07450  -0.06544  -0.01763  -0.00859   0.00781
 Alpha virt. eigenvalues --    0.02359   0.03091   0.03596   0.03762   0.04307
 Alpha virt. eigenvalues --    0.05090   0.06231   0.08027   0.08479   0.09366

 Mulliken charges:
               1
     1  Mg   0.827187
     2  C    0.145250
     3  C   -0.209688
     4  C   -0.203601
     5  C   -0.185318
     6  N   -0.619553
     7  C    0.270441
     8  C   -0.151604
     9  C   -0.184170
    10  C    0.355315
    11  C   -0.322110
    12  C   -0.142226
    13  C   -0.282580
    14  C    0.595692
    15  O   -0.486259
    16  O   -0.447476
    17  N   -0.708866
    18  C    0.363689
    19  C    0.048503
    20  C    0.018219
    21  C    0.350030
    22  C   -0.365645
    23  C    0.202318
    24  O   -0.438000
    25  N   -0.672610
    26  C    0.251393
    27  C    0.023620
    28  C    0.037105
    29  C    0.289026
    30  C    0.224811
    31  C   -0.291948
    32  C   -0.293425
    33  N   -0.777635
    34  C    0.218575
    35  C    0.013528
    36  C   -0.027701
    37  C    0.387884
    38  C   -0.357507
    39  C    0.398905
    40  O   -0.406967
    41  C   -0.374543
    42  C    0.613236
    43  O   -0.501884
    44  O   -0.446661
    45  C   -0.073262
    46  C   -0.016980
    47  C   -0.122111
    48  C    0.133201
    49  C   -0.376365
    50  C   -0.231764
    51  C   -0.172388
    52  C   -0.182493
    53  C   -0.044780
    54  C   -0.306777
    55  C   -0.132700
    56  C   -0.190384
    57  C   -0.186027
    58  C   -0.034191
    59  C   -0.313613
    60  C   -0.170328
    61  C   -0.182545
    62  C   -0.177101
    63  C   -0.042334
    64  C   -0.288901
    65  C   -0.314614
    66  H    0.067167
    67  H    0.136652
    68  H    0.093399
    69  H    0.123845
    70  H    0.109567
    71  H    0.122363
    72  H    0.110910
    73  H    0.134569
    74  H    0.118122
    75  H    0.124746
    76  H    0.137676
    77  H    0.112759
    78  H    0.134230
    79  H    0.172261
    80  H    0.099779
    81  H    0.062505
    82  H    0.124020
    83  H    0.097833
    84  H    0.101554
    85  H    0.137415
    86  H    0.125235
    87  H    0.128696
    88  H    0.136897
    89  H    0.141329
    90  H    0.139153
    91  H    0.115802
    92  H    0.136620
    93  H    0.073887
    94  H    0.157407
    95  H    0.108047
    96  H    0.129437
    97  H    0.105486
    98  H    0.077809
    99  H    0.069637
   100  H    0.106951
   101  H    0.092950
   102  H    0.088009
   103  H    0.060414
   104  H    0.119998
   105  H    0.081469
   106  H    0.078683
   107  H    0.093904
   108  H    0.077373
   109  H    0.110808
   110  H    0.067056
   111  H    0.095032
   112  H    0.085038
   113  H    0.091771
   114  H    0.109578
   115  H    0.100818
   116  H    0.081058
   117  H    0.085247
   118  H    0.066845
   119  H    0.098042
   120  H    0.071438
   121  H    0.094138
   122  H    0.062953
   123  H    0.101558
   124  H    0.065925
   125  H    0.090578
   126  H    0.100548
   127  H    0.092809
   128  H    0.115030
   129  H    0.099989
   130  H    0.132592
   131  H    0.138709
   132  H    0.140604
   133  O   -0.417857
   134  H    0.042839
 Sum of Mulliken charges =   0.00000

 Dipole moment (field-independent basis, Debye):
    X=              2.2578    Y=             -7.1117    Z=             -1.4134  Tot=              7.5942
 Quadrupole moment (field-independent basis, Debye-Ang):
   XX=           -394.8969   YY=           -438.2169   ZZ=           -397.5571
   XY=             16.5529   XZ=             29.9529   YZ=            -36.0376

 Normal termination of Gaussian 09 at Sat Oct  5 13:47:36 2019.
