 Gaussian 09, Revision D.01,
 Gaussian 09:  ES64L-G09RevD.01 24-Apr-2013

 ----------------------------------------------------------------------
 # td=(NStates=1) iop(3/107=0140000000,3/108=0140000000) iop(3/107=0140
 000000,3/108=0140000000) CAM-B3LYP/6-31G(d,p)
 ----------------------------------------------------------------------

 --
 TD
 --
 Symbolic Z-matrix:
 Charge =  0 Multiplicity = 1

                         Standard orientation:
 ---------------------------------------------------------------------
 Center     Atomic      Atomic             Coordinates (Angstroms)
 Number     Number       Type             X           Y           Z
 ---------------------------------------------------------------------
      1         12           0       -5.630973    1.222758    0.161476
      2          6           0       -4.999595   -2.118913   -0.345989
      3          6           0       -3.246521    1.171478    2.640021
      4          6           0       -6.212680    4.530852    0.586823
      5          6           0       -8.088587    1.099612   -2.416538
      6          7           0       -4.305365   -0.239124    0.998881
      7          6           0       -4.170855   -1.678958    0.649706
      8          6           0       -3.205149   -2.375688    1.485666
      9          6           0       -2.888669   -1.299237    2.679515
     10          6           0       -3.617240   -0.037418    2.114214
     11          6           0       -3.259659   -1.832262    4.041182
     12          6           0       -1.924022   -2.739095    0.687942
     13          6           0       -0.892622   -3.397868    1.468304
     14          6           0        0.258195   -3.867235    0.561464
     15          8           0        0.493873   -3.393700   -0.536641
     16          8           0        1.080457   -4.714864    1.147121
     17          7           0       -4.890725    2.575027    1.436128
     18          6           0       -3.895083    2.425278    2.412455
     19          6           0       -3.706990    3.660096    3.098179
     20          6           0       -4.625099    4.628765    2.568438
     21          6           0       -5.340161    3.932935    1.498313
     22          6           0       -2.729123    3.944082    4.234640
     23          6           0       -4.685974    5.940239    2.959804
     24          8           0       -3.951577    6.477078    3.874446
     25          7           0       -7.001338    2.627128   -0.747450
     26          6           0       -6.999969    3.923722   -0.388987
     27          6           0       -8.057163    4.523698   -1.142596
     28          6           0       -8.587838    3.564866   -2.063123
     29          6           0       -7.880328    2.339025   -1.706690
     30          6           0       -8.351709    5.899805   -1.164404
     31          6           0       -9.673703    3.775800   -3.043650
     32          6           0       -9.159063    3.904375   -4.476155
     33          7           0       -6.374818   -0.102954   -1.131324
     34          6           0       -7.469988   -0.061843   -2.090442
     35          6           0       -7.563277   -1.392065   -2.650378
     36          6           0       -6.603111   -2.186246   -2.128445
     37          6           0       -5.938313   -1.372419   -1.112542
     38          6           0       -8.595696   -1.839413   -3.777997
     39          6           0       -6.217244   -3.569306   -2.018085
     40          8           0       -6.668225   -4.576413   -2.590545
     41          6           0       -5.092007   -3.582434   -0.886540
     42          6           0       -5.450500   -4.606353    0.187162
     43          8           0       -5.905876   -4.371721    1.281206
     44          8           0       -5.130716   -5.876570   -0.260570
     45          6           0       -5.383101   -6.870036    0.708038
     46          6           0        2.427886   -4.922146    0.513121
     47          6           0        3.506126   -3.981506    0.900332
     48          6           0        4.127059   -2.985298    0.114795
     49          6           0        3.768640   -2.905861   -1.304921
     50          6           0        5.230201   -2.372338    0.714647
     51          6           0        6.614624   -2.433128    0.060285
     52          6           0        7.691882   -1.616682    0.647894
     53          6           0        9.067427   -1.984802   -0.012970
     54          6           0        9.569371   -3.385711    0.276537
     55          6           0       10.110052   -0.928182    0.503669
     56          6           0       11.515414   -0.941266   -0.225163
     57          6           0       12.388850    0.152937    0.238870
     58          6           0       13.636860    0.452093   -0.553672
     59          6           0       14.593662   -0.783198   -0.372864
     60          6           0       14.351764    1.669919   -0.148622
     61          6           0       15.568444    2.081798   -0.864668
     62          6           0       16.071618    3.565786   -0.631730
     63          6           0       17.302856    3.954877   -1.522834
     64          6           0       16.866357    3.987225   -2.983529
     65          6           0       17.972056    5.209511   -0.995429
     66          1           0       -2.589134    1.079418    3.417788
     67          1           0       -6.284625    5.590493    0.742645
     68          1           0       -8.608961    0.959547   -3.224492
     69          1           0       -3.660794   -3.264276    1.877671
     70          1           0       -1.761153   -1.278019    2.575711
     71          1           0       -2.964891   -2.866347    4.027005
     72          1           0       -2.880541   -1.079068    4.846894
     73          1           0       -4.367552   -1.904536    3.835115
     74          1           0       -1.927385   -3.245333   -0.171484
     75          1           0       -1.532426   -1.758367    0.309285
     76          1           0       -0.601891   -2.786564    2.390977
     77          1           0       -1.338994   -4.336461    1.816579
     78          1           0       -1.713678    3.599890    3.904924
     79          1           0       -2.691428    4.978096    4.408861
     80          1           0       -3.072937    3.525201    5.128096
     81          1           0       -5.342447    6.585351    2.475503
     82          1           0      -10.247356    2.874028   -2.955512
     83          1           0      -10.331045    4.748472   -2.836506
     84          1           0      -10.100202    4.008753   -5.048350
     85          1           0       -8.440310    4.651586   -4.656395
     86          1           0       -8.419235    3.200173   -4.722548
     87          1           0       -8.641073   -1.177687   -4.608714
     88          1           0       -8.356617   -2.897986   -4.169976
     89          1           0       -9.652300   -1.774691   -3.275555
     90          1           0       -4.108180   -3.789813   -1.426425
     91          1           0        2.734821   -6.073900    0.776635
     92          1           0        2.267998   -4.876549   -0.694510
     93          1           0        3.817364   -4.125709    1.914989
     94          1           0        2.573731   -2.883979   -1.402788
     95          1           0        4.149636   -1.989030   -1.797601
     96          1           0        4.235614   -3.874328   -1.900736
     97          1           0        4.917286   -1.039331    0.555274
     98          1           0        5.145104   -2.518737    1.840916
     99          1           0        6.890978   -3.470192    0.082091
    100          1           0        6.180751   -2.284877   -1.079113
    101          1           0        7.463378   -0.596715    0.491898
    102          1           0        7.959195   -1.818081    1.828968
    103          1           0        8.877635   -1.792736   -1.071257
    104          1           0        8.883598   -4.056519   -0.051411
    105          1           0       10.586311   -3.604052   -0.275720
    106          1           0        9.763967   -3.571444    1.226359
    107          1           0        9.757621    0.189268    0.267428
    108          1           0       10.258780   -1.042177    1.453934
    109          1           0       11.949272   -1.817547   -0.076733
    110          1           0       11.380069   -0.697407   -1.342644
    111          1           0       11.933305    1.132417    0.138035
    112          1           0       12.265717    0.138498    1.351163
    113          1           0       13.439659    0.250453   -1.735455
    114          1           0       14.876888   -1.002452    0.799288
    115          1           0       14.125428   -1.817289   -0.628618
    116          1           0       15.457799   -0.842726   -1.191924
    117          1           0       13.562724    2.438189   -0.149711
    118          1           0       14.593653    1.503782    1.010302
    119          1           0       16.362775    1.492082   -0.665338
    120          1           0       15.404846    1.866400   -1.867693
    121          1           0       15.302939    4.340793   -0.604933
    122          1           0       16.477121    3.655950    0.366582
    123          1           0       18.213028    3.276701   -1.223771
    124          1           0       15.914789    4.536933   -3.269777
    125          1           0       17.741467    4.213900   -3.759970
    126          1           0       16.506870    2.904601   -3.416350
    127          1           0       18.369028    5.201210    0.074942
    128          1           0       18.776677    5.392007   -1.625361
    129          1           0       17.327720    6.066267   -1.082501
    130          1           0       -5.118604   -7.715304    0.284318
    131          1           0       -6.415302   -7.024581    0.785133
    132          1           0       -4.909176   -6.774249    1.715697
    133          8           0       -7.975226    6.768914   -0.390305
    134          1           0       -9.101444    6.241976   -1.878510
 ---------------------------------------------------------------------

 SCF Done:  E(RCAM-B3LYP) =  -3043.48004788     A.U. after   16 cycles

 Excitation energies and oscillator strengths:

 Excited State   1:      Singlet-A      1.9993 eV  620.15 nm  f=0.1534  <S**2>=0.000
     243 -> 246       -0.24699
     244 -> 245        0.64646
 This state for optimization and/or second-order correction.
 Total Energy, E(TD-HF/TD-KS) =  -3043.40657635
 Copying the excited state density for this state as the 1-particle RhoCI density.

 The electronic state is 1-A.
 Alpha  occ. eigenvalues --  -46.81582 -19.22870 -19.22700 -19.18540 -19.17906
 Alpha  occ. eigenvalues --  -19.17104 -19.15557 -19.15431 -14.39014 -14.37493
 Alpha  occ. eigenvalues --  -14.37296 -14.36867 -10.36039 -10.35287 -10.32390
 Alpha  occ. eigenvalues --  -10.29864 -10.28541 -10.28247 -10.28161 -10.27358
 Alpha  occ. eigenvalues --  -10.27193 -10.27186 -10.27039 -10.26812 -10.26775
 Alpha  occ. eigenvalues --  -10.26262 -10.26222 -10.25976 -10.25489 -10.25066
 Alpha  occ. eigenvalues --  -10.25036 -10.24658 -10.24551 -10.24497 -10.24434
 Alpha  occ. eigenvalues --  -10.24416 -10.24283 -10.24195 -10.24093 -10.24072
 Alpha  occ. eigenvalues --  -10.23783 -10.23478 -10.23393 -10.23000 -10.22995
 Alpha  occ. eigenvalues --  -10.22846 -10.22797 -10.22778 -10.22757 -10.22356
 Alpha  occ. eigenvalues --  -10.22197 -10.22094 -10.22057 -10.21962 -10.21892
 Alpha  occ. eigenvalues --  -10.21746 -10.21331 -10.20921 -10.20650 -10.20542
 Alpha  occ. eigenvalues --  -10.20140 -10.19988 -10.19790 -10.19657 -10.19544
 Alpha  occ. eigenvalues --  -10.19034  -3.10130  -1.85071  -1.84620  -1.84522
 Alpha  occ. eigenvalues --   -1.13798  -1.13793  -1.06177  -1.05976  -1.05231
 Alpha  occ. eigenvalues --   -1.04298  -1.02212  -1.00801  -0.99630  -0.98704
 Alpha  occ. eigenvalues --   -0.97316  -0.88726  -0.87602  -0.87179  -0.86253
 Alpha  occ. eigenvalues --   -0.85648  -0.84831  -0.84518  -0.84049  -0.83776
 Alpha  occ. eigenvalues --   -0.83366  -0.82741  -0.82396  -0.80959  -0.80684
 Alpha  occ. eigenvalues --   -0.79558  -0.79109  -0.78121  -0.78094  -0.76901
 Alpha  occ. eigenvalues --   -0.75722  -0.75511  -0.74527  -0.73572  -0.72656
 Alpha  occ. eigenvalues --   -0.72465  -0.71092  -0.70592  -0.70223  -0.69758
 Alpha  occ. eigenvalues --   -0.69358  -0.69083  -0.67967  -0.67599  -0.66831
 Alpha  occ. eigenvalues --   -0.66466  -0.65353  -0.64443  -0.63251  -0.62755
 Alpha  occ. eigenvalues --   -0.62388  -0.61637  -0.61189  -0.59740  -0.59302
 Alpha  occ. eigenvalues --   -0.58373  -0.58262  -0.58054  -0.57227  -0.57066
 Alpha  occ. eigenvalues --   -0.56883  -0.56504  -0.55610  -0.55234  -0.55021
 Alpha  occ. eigenvalues --   -0.54278  -0.53832  -0.53169  -0.52882  -0.52264
 Alpha  occ. eigenvalues --   -0.52013  -0.51929  -0.51579  -0.51329  -0.50905
 Alpha  occ. eigenvalues --   -0.50856  -0.50098  -0.50030  -0.49865  -0.49211
 Alpha  occ. eigenvalues --   -0.49057  -0.48891  -0.48620  -0.48504  -0.48061
 Alpha  occ. eigenvalues --   -0.47792  -0.47633  -0.47382  -0.47056  -0.46976
 Alpha  occ. eigenvalues --   -0.46913  -0.46652  -0.46513  -0.46237  -0.46136
 Alpha  occ. eigenvalues --   -0.45859  -0.45673  -0.45342  -0.45142  -0.44957
 Alpha  occ. eigenvalues --   -0.44896  -0.44687  -0.44292  -0.44249  -0.43808
 Alpha  occ. eigenvalues --   -0.43538  -0.43433  -0.43273  -0.43206  -0.43176
 Alpha  occ. eigenvalues --   -0.42899  -0.42605  -0.42534  -0.42334  -0.42279
 Alpha  occ. eigenvalues --   -0.41980  -0.41714  -0.41621  -0.41442  -0.41148
 Alpha  occ. eigenvalues --   -0.40876  -0.40816  -0.40458  -0.40188  -0.40027
 Alpha  occ. eigenvalues --   -0.39698  -0.39670  -0.39473  -0.39313  -0.39116
 Alpha  occ. eigenvalues --   -0.38873  -0.38837  -0.38648  -0.38368  -0.38198
 Alpha  occ. eigenvalues --   -0.38052  -0.37829  -0.37783  -0.37330  -0.37233
 Alpha  occ. eigenvalues --   -0.37041  -0.36554  -0.36080  -0.35913  -0.35785
 Alpha  occ. eigenvalues --   -0.35545  -0.35320  -0.35260  -0.34947  -0.34866
 Alpha  occ. eigenvalues --   -0.34291  -0.34139  -0.33825  -0.33774  -0.33700
 Alpha  occ. eigenvalues --   -0.33398  -0.32584  -0.32269  -0.32132  -0.31894
 Alpha  occ. eigenvalues --   -0.31783  -0.31443  -0.30747  -0.30549  -0.30430
 Alpha  occ. eigenvalues --   -0.29384  -0.28581  -0.27704  -0.27230  -0.26707
 Alpha  occ. eigenvalues --   -0.26503  -0.26019  -0.23802  -0.22033
 Alpha virt. eigenvalues --   -0.09136  -0.07287  -0.02460  -0.01165   0.00100
 Alpha virt. eigenvalues --    0.00672   0.02317   0.03118   0.03787   0.04039
 Alpha virt. eigenvalues --    0.04374   0.05694   0.08138   0.08423   0.08818

 Mulliken charges:
               1
     1  Mg   0.821517
     2  C    0.054157
     3  C   -0.162260
     4  C   -0.148129
     5  C   -0.106992
     6  N   -0.617848
     7  C    0.287891
     8  C   -0.174330
     9  C   -0.166005
    10  C    0.358719
    11  C   -0.295904
    12  C   -0.166423
    13  C   -0.265323
    14  C    0.597336
    15  O   -0.473095
    16  O   -0.454879
    17  N   -0.725422
    18  C    0.315765
    19  C    0.016875
    20  C    0.030544
    21  C    0.296808
    22  C   -0.379581
    23  C    0.198367
    24  O   -0.465786
    25  N   -0.696035
    26  C    0.331878
    27  C   -0.031685
    28  C    0.022146
    29  C    0.290250
    30  C    0.220924
    31  C   -0.242408
    32  C   -0.315142
    33  N   -0.747492
    34  C    0.267276
    35  C   -0.004266
    36  C    0.049670
    37  C    0.329979
    38  C   -0.377868
    39  C    0.369818
    40  O   -0.466232
    41  C   -0.327228
    42  C    0.634314
    43  O   -0.460191
    44  O   -0.448794
    45  C   -0.081535
    46  C   -0.015771
    47  C   -0.127322
    48  C    0.203506
    49  C   -0.398976
    50  C   -0.215068
    51  C   -0.161364
    52  C   -0.148252
    53  C   -0.069009
    54  C   -0.312761
    55  C   -0.174461
    56  C   -0.168595
    57  C   -0.166115
    58  C   -0.051409
    59  C   -0.301566
    60  C   -0.152472
    61  C   -0.169252
    62  C   -0.181091
    63  C   -0.040060
    64  C   -0.303717
    65  C   -0.318053
    66  H    0.074722
    67  H    0.133257
    68  H    0.076436
    69  H    0.120804
    70  H    0.103201
    71  H    0.124085
    72  H    0.114500
    73  H    0.123948
    74  H    0.123057
    75  H    0.116609
    76  H    0.132078
    77  H    0.126543
    78  H    0.107956
    79  H    0.176620
    80  H    0.133303
    81  H    0.094906
    82  H    0.118190
    83  H    0.108271
    84  H    0.114333
    85  H    0.120939
    86  H    0.110791
    87  H    0.132577
    88  H    0.149922
    89  H    0.121443
    90  H    0.164982
    91  H    0.104332
    92  H    0.117760
    93  H    0.083636
    94  H    0.158527
    95  H    0.111079
    96  H    0.107672
    97  H    0.017423
    98  H    0.097677
    99  H    0.105650
   100  H    0.080420
   101  H    0.106535
   102  H    0.069288
   103  H    0.087454
   104  H    0.110996
   105  H    0.092359
   106  H    0.114960
   107  H    0.067334
   108  H    0.096909
   109  H    0.105847
   110  H    0.074944
   111  H    0.081305
   112  H    0.083378
   113  H    0.070262
   114  H    0.075571
   115  H    0.083726
   116  H    0.080852
   117  H    0.083869
   118  H    0.072586
   119  H    0.110928
   120  H    0.094156
   121  H    0.088366
   122  H    0.088138
   123  H    0.078838
   124  H    0.109799
   125  H    0.084383
   126  H    0.082864
   127  H    0.095161
   128  H    0.108676
   129  H    0.098619
   130  H    0.124245
   131  H    0.128653
   132  H    0.116760
   133  O   -0.444425
   134  H    0.047440
 Sum of Mulliken charges =   0.00000

 Dipole moment (field-independent basis, Debye):
    X=              2.9415    Y=             -6.4543    Z=             -1.7889  Tot=              7.3151
 Quadrupole moment (field-independent basis, Debye-Ang):
   XX=           -378.4081   YY=           -447.8426   ZZ=           -393.8764
   XY=             14.5986   XZ=             26.6003   YZ=            -37.7450

 Normal termination of Gaussian 09 at Fri Oct  4 23:46:44 2019.
