 Gaussian 09, Revision D.01,
 Gaussian 09:  ES64L-G09RevD.01 24-Apr-2013

 ----------------------------------------------------------------------
 # td=(NStates=1) iop(3/107=0140000000,3/108=0140000000) iop(3/107=0140
 000000,3/108=0140000000) CAM-B3LYP/6-31G(d,p)
 ----------------------------------------------------------------------

 --
 TD
 --
 Symbolic Z-matrix:
 Charge =  0 Multiplicity = 1

                         Standard orientation:
 ---------------------------------------------------------------------
 Center     Atomic      Atomic             Coordinates (Angstroms)
 Number     Number       Type             X           Y           Z
 ---------------------------------------------------------------------
      1         12           0       -5.698938    1.201854    0.219590
      2          6           0       -5.077041   -2.160312   -0.273530
      3          6           0       -3.301820    1.103131    2.693711
      4          6           0       -6.241847    4.543388    0.718128
      5          6           0       -8.055985    1.123242   -2.250803
      6          7           0       -4.413413   -0.269098    1.013939
      7          6           0       -4.233078   -1.570436    0.688399
      8          6           0       -3.233891   -2.305886    1.498295
      9          6           0       -2.863026   -1.350330    2.633860
     10          6           0       -3.598331   -0.023053    2.080943
     11          6           0       -3.322540   -1.895942    3.909384
     12          6           0       -1.979993   -2.709358    0.561047
     13          6           0       -0.973260   -3.665831    1.347842
     14          6           0        0.308513   -3.892195    0.683410
     15          8           0        0.531742   -3.495863   -0.412941
     16          8           0        1.104293   -4.688621    1.353816
     17          7           0       -4.965918    2.590109    1.445130
     18          6           0       -3.945498    2.349957    2.388075
     19          6           0       -3.735408    3.603115    3.030114
     20          6           0       -4.494146    4.601197    2.563241
     21          6           0       -5.286945    3.904343    1.606839
     22          6           0       -2.698107    3.715001    4.161103
     23          6           0       -4.536799    6.017800    2.907779
     24          8           0       -3.865982    6.542895    3.797948
     25          7           0       -6.955147    2.694124   -0.619531
     26          6           0       -6.975256    3.989838   -0.375662
     27          6           0       -7.989939    4.577883   -1.226584
     28          6           0       -8.587446    3.658059   -2.032210
     29          6           0       -7.920938    2.416216   -1.659228
     30          6           0       -8.449947    6.031207   -1.168169
     31          6           0       -9.554469    3.829374   -3.109337
     32          6           0       -8.919689    4.152017   -4.533525
     33          7           0       -6.487411   -0.145520   -1.019105
     34          6           0       -7.369536   -0.028632   -2.059341
     35          6           0       -7.543886   -1.362237   -2.652579
     36          6           0       -6.663941   -2.208760   -2.003958
     37          6           0       -6.007662   -1.360723   -1.010345
     38          6           0       -8.466257   -1.624442   -3.841928
     39          6           0       -6.063808   -3.477704   -2.046836
     40          8           0       -6.394842   -4.469351   -2.663147
     41          6           0       -5.032948   -3.548393   -0.881344
     42          6           0       -5.422794   -4.626466    0.162026
     43          8           0       -5.858778   -4.409588    1.247859
     44          8           0       -5.250079   -5.868633   -0.374426
     45          6           0       -5.620768   -6.987113    0.421744
     46          6           0        2.310267   -5.073524    0.557225
     47          6           0        3.364279   -4.069548    0.973441
     48          6           0        3.970614   -3.210514    0.103966
     49          6           0        3.718118   -3.068263   -1.375228
     50          6           0        5.072510   -2.330897    0.724488
     51          6           0        6.436353   -2.521603   -0.006326
     52          6           0        7.564069   -1.658645    0.532733
     53          6           0        8.993314   -1.879374   -0.131675
     54          6           0        9.499838   -3.293675    0.112181
     55          6           0       10.038617   -0.899985    0.502860
     56          6           0       11.386815   -0.876256   -0.215448
     57          6           0       12.290966    0.288779    0.106722
     58          6           0       13.637251    0.394108   -0.653582
     59          6           0       14.461609   -0.824238   -0.294830
     60          6           0       14.360580    1.764061   -0.242863
     61          6           0       15.650132    2.026710   -0.960663
     62          6           0       16.161022    3.458111   -0.691755
     63          6           0       17.520735    3.837952   -1.322813
     64          6           0       17.359881    4.016391   -2.789379
     65          6           0       18.008005    5.137500   -0.728252
     66          1           0       -2.721000    1.174387    3.482896
     67          1           0       -6.405664    5.539725    0.973747
     68          1           0       -8.688951    1.409141   -3.161167
     69          1           0       -3.647676   -3.290631    1.889864
     70          1           0       -1.653277   -1.031131    2.615690
     71          1           0       -2.876077   -2.753992    4.124414
     72          1           0       -3.022843   -1.297269    4.732290
     73          1           0       -4.454155   -2.182513    4.028479
     74          1           0       -2.519055   -3.178211   -0.423779
     75          1           0       -1.293281   -1.809344    0.370202
     76          1           0       -0.749315   -3.041965    2.461282
     77          1           0       -1.424392   -4.697523    1.610371
     78          1           0       -1.566954    3.602831    4.054282
     79          1           0       -2.905964    4.783231    4.540525
     80          1           0       -2.904851    3.259544    5.184702
     81          1           0       -5.343127    6.578831    2.395075
     82          1           0       -9.984864    2.831903   -3.282435
     83          1           0      -10.339889    4.506424   -2.802862
     84          1           0       -9.600531    4.074423   -5.322249
     85          1           0       -8.404662    5.078894   -4.511833
     86          1           0       -7.999037    3.424606   -4.612148
     87          1           0       -8.185087   -0.938396   -4.692342
     88          1           0       -8.358367   -2.670078   -4.133080
     89          1           0       -9.477567   -1.453095   -3.430613
     90          1           0       -4.194214   -3.959500   -1.451671
     91          1           0        2.418439   -6.029883    1.164349
     92          1           0        2.065702   -5.002535   -0.394215
     93          1           0        3.524312   -3.964251    2.045365
     94          1           0        2.719423   -3.450042   -1.768495
     95          1           0        3.907738   -1.948844   -1.678348
     96          1           0        4.475674   -3.687869   -1.940014
     97          1           0        4.623776   -1.247689    0.835032
     98          1           0        5.145543   -2.486294    1.700421
     99          1           0        6.740083   -3.595755   -0.036061
    100          1           0        6.425658   -2.210072   -1.151474
    101          1           0        7.391818   -0.536743    0.567898
    102          1           0        7.755515   -2.061455    1.576733
    103          1           0        8.964866   -1.506802   -1.127931
    104          1           0        8.812813   -4.183413   -0.466257
    105          1           0       10.583616   -3.302352   -0.163343
    106          1           0        9.560571   -3.333176    1.212822
    107          1           0        9.691393    0.065836    0.341249
    108          1           0       10.098750   -0.930370    1.443334
    109          1           0       12.048812   -1.789593   -0.228768
    110          1           0       11.130142   -0.853620   -1.287255
    111          1           0       11.681820    1.038418   -0.145679
    112          1           0       12.514394    0.200851    1.180901
    113          1           0       13.447005    0.465814   -1.817349
    114          1           0       14.657356   -0.790025    0.779013
    115          1           0       13.939102   -1.823740   -0.338155
    116          1           0       15.393353   -0.861319   -0.844610
    117          1           0       13.653742    2.582014   -0.438138
    118          1           0       14.464633    1.815651    0.795192
    119          1           0       16.360634    1.001206   -0.805858
    120          1           0       15.328892    1.980662   -1.994622
    121          1           0       15.430622    4.315857   -0.735829
    122          1           0       16.366050    3.508452    0.385394
    123          1           0       18.291999    2.930952   -1.370481
    124          1           0       16.595041    4.811666   -2.766619
    125          1           0       18.430250    4.215153   -3.263139
    126          1           0       17.000217    3.033907   -3.116081
    127          1           0       18.095240    5.255004    0.448537
    128          1           0       19.070515    5.483547   -1.198816
    129          1           0       17.195356    5.749428   -1.023193
    130          1           0       -4.871870   -7.779657   -0.063130
    131          1           0       -6.720454   -7.245528    0.350920
    132          1           0       -5.130986   -6.640397    1.500580
    133          8           0       -7.849756    6.884517   -0.467997
    134          1           0       -9.427992    6.164007   -1.818707
 ---------------------------------------------------------------------

 SCF Done:  E(RCAM-B3LYP) =  -3043.51912129     A.U. after   15 cycles

 Excitation energies and oscillator strengths:

 Excited State   1:      Singlet-A      2.0653 eV  600.32 nm  f=0.1814  <S**2>=0.000
     243 -> 246       -0.27231
     244 -> 245        0.64040
 This state for optimization and/or second-order correction.
 Total Energy, E(TD-HF/TD-KS) =  -3043.44322317
 Copying the excited state density for this state as the 1-particle RhoCI density.

 The electronic state is 1-A.
 Alpha  occ. eigenvalues --  -46.81240 -19.22023 -19.21405 -19.17890 -19.17778
 Alpha  occ. eigenvalues --  -19.17584 -19.16547 -19.15986 -14.38989 -14.37058
 Alpha  occ. eigenvalues --  -14.36904 -14.36772 -10.35176 -10.33436 -10.31744
 Alpha  occ. eigenvalues --  -10.30901 -10.30623 -10.29479 -10.27566 -10.26886
 Alpha  occ. eigenvalues --  -10.26738 -10.26589 -10.26502 -10.26364 -10.26280
 Alpha  occ. eigenvalues --  -10.26275 -10.26108 -10.25760 -10.25584 -10.25319
 Alpha  occ. eigenvalues --  -10.25305 -10.24947 -10.24813 -10.24244 -10.24069
 Alpha  occ. eigenvalues --  -10.24058 -10.24014 -10.23829 -10.23775 -10.23390
 Alpha  occ. eigenvalues --  -10.23175 -10.22878 -10.22741 -10.22697 -10.22678
 Alpha  occ. eigenvalues --  -10.22676 -10.22518 -10.22175 -10.21965 -10.21930
 Alpha  occ. eigenvalues --  -10.21751 -10.21693 -10.21664 -10.21602 -10.21532
 Alpha  occ. eigenvalues --  -10.21530 -10.21441 -10.21340 -10.21259 -10.21060
 Alpha  occ. eigenvalues --  -10.20425 -10.20363 -10.20218 -10.20178 -10.19502
 Alpha  occ. eigenvalues --  -10.18777  -3.09926  -1.84860  -1.84383  -1.84360
 Alpha  occ. eigenvalues --   -1.14414  -1.13866  -1.07015  -1.06367  -1.06055
 Alpha  occ. eigenvalues --   -1.04996  -1.04880  -1.01753  -1.00447  -0.99766
 Alpha  occ. eigenvalues --   -0.98793  -0.88744  -0.86161  -0.86013  -0.85505
 Alpha  occ. eigenvalues --   -0.85319  -0.84947  -0.84842  -0.83699  -0.83509
 Alpha  occ. eigenvalues --   -0.83451  -0.82858  -0.81499  -0.80384  -0.79896
 Alpha  occ. eigenvalues --   -0.78702  -0.78393  -0.77699  -0.77124  -0.76546
 Alpha  occ. eigenvalues --   -0.75304  -0.74770  -0.74077  -0.72751  -0.71751
 Alpha  occ. eigenvalues --   -0.71434  -0.70795  -0.70494  -0.70058  -0.69553
 Alpha  occ. eigenvalues --   -0.69183  -0.68625  -0.67683  -0.67323  -0.66007
 Alpha  occ. eigenvalues --   -0.65763  -0.64735  -0.64564  -0.62491  -0.62322
 Alpha  occ. eigenvalues --   -0.61421  -0.60747  -0.60512  -0.59283  -0.59179
 Alpha  occ. eigenvalues --   -0.58307  -0.58255  -0.57841  -0.57006  -0.56713
 Alpha  occ. eigenvalues --   -0.56323  -0.56288  -0.55882  -0.55093  -0.54884
 Alpha  occ. eigenvalues --   -0.53864  -0.53462  -0.52424  -0.52105  -0.51731
 Alpha  occ. eigenvalues --   -0.51672  -0.51405  -0.50971  -0.50552  -0.50337
 Alpha  occ. eigenvalues --   -0.50203  -0.49867  -0.49666  -0.49459  -0.49295
 Alpha  occ. eigenvalues --   -0.48991  -0.48792  -0.48439  -0.48257  -0.47894
 Alpha  occ. eigenvalues --   -0.47578  -0.47324  -0.47242  -0.47061  -0.46812
 Alpha  occ. eigenvalues --   -0.46743  -0.46585  -0.46535  -0.46275  -0.46024
 Alpha  occ. eigenvalues --   -0.45803  -0.45592  -0.45295  -0.44993  -0.44786
 Alpha  occ. eigenvalues --   -0.44420  -0.44278  -0.43752  -0.43548  -0.43375
 Alpha  occ. eigenvalues --   -0.43287  -0.43211  -0.43047  -0.42930  -0.42477
 Alpha  occ. eigenvalues --   -0.42326  -0.42048  -0.42009  -0.41877  -0.41748
 Alpha  occ. eigenvalues --   -0.41596  -0.41473  -0.41398  -0.41089  -0.40986
 Alpha  occ. eigenvalues --   -0.40731  -0.40495  -0.40452  -0.40287  -0.39918
 Alpha  occ. eigenvalues --   -0.39829  -0.39702  -0.39459  -0.39422  -0.39226
 Alpha  occ. eigenvalues --   -0.39105  -0.39016  -0.38915  -0.38480  -0.38358
 Alpha  occ. eigenvalues --   -0.38190  -0.37887  -0.37633  -0.37296  -0.36893
 Alpha  occ. eigenvalues --   -0.36593  -0.36537  -0.36372  -0.36248  -0.36069
 Alpha  occ. eigenvalues --   -0.35539  -0.35228  -0.35099  -0.34400  -0.34230
 Alpha  occ. eigenvalues --   -0.34145  -0.33907  -0.33793  -0.33558  -0.33354
 Alpha  occ. eigenvalues --   -0.33259  -0.32800  -0.32254  -0.32058  -0.31801
 Alpha  occ. eigenvalues --   -0.31499  -0.31337  -0.31049  -0.30227  -0.30011
 Alpha  occ. eigenvalues --   -0.29118  -0.28755  -0.28134  -0.27995  -0.27790
 Alpha  occ. eigenvalues --   -0.27538  -0.26582  -0.22921  -0.21933
 Alpha virt. eigenvalues --   -0.08651  -0.06488  -0.01452  -0.00985   0.00197
 Alpha virt. eigenvalues --    0.03088   0.03570   0.03899   0.04190   0.04368
 Alpha virt. eigenvalues --    0.05039   0.05618   0.07765   0.08339   0.09089

 Mulliken charges:
               1
     1  Mg   0.822205
     2  C    0.051765
     3  C   -0.122966
     4  C   -0.153533
     5  C   -0.172611
     6  N   -0.644234
     7  C    0.346678
     8  C   -0.155369
     9  C   -0.127357
    10  C    0.341317
    11  C   -0.312607
    12  C   -0.157485
    13  C   -0.264278
    14  C    0.619279
    15  O   -0.473429
    16  O   -0.468794
    17  N   -0.720131
    18  C    0.299437
    19  C   -0.000462
    20  C    0.058685
    21  C    0.262355
    22  C   -0.431728
    23  C    0.251833
    24  O   -0.415257
    25  N   -0.664089
    26  C    0.340516
    27  C   -0.062853
    28  C    0.079394
    29  C    0.211078
    30  C    0.253469
    31  C   -0.267522
    32  C   -0.311576
    33  N   -0.743275
    34  C    0.298875
    35  C   -0.012553
    36  C    0.062218
    37  C    0.341957
    38  C   -0.369277
    39  C    0.318516
    40  O   -0.451227
    41  C   -0.337798
    42  C    0.628176
    43  O   -0.449986
    44  O   -0.442973
    45  C   -0.078391
    46  C    0.007505
    47  C   -0.136268
    48  C    0.144701
    49  C   -0.376152
    50  C   -0.214082
    51  C   -0.170682
    52  C   -0.165949
    53  C   -0.064691
    54  C   -0.291221
    55  C   -0.172509
    56  C   -0.203001
    57  C   -0.155586
    58  C   -0.062886
    59  C   -0.313575
    60  C   -0.172592
    61  C   -0.168408
    62  C   -0.180832
    63  C   -0.069443
    64  C   -0.267506
    65  C   -0.279578
    66  H    0.072507
    67  H    0.107868
    68  H    0.083405
    69  H    0.123938
    70  H    0.084964
    71  H    0.128743
    72  H    0.108774
    73  H    0.118173
    74  H    0.098761
    75  H    0.118756
    76  H    0.093768
    77  H    0.125901
    78  H    0.120743
    79  H    0.148585
    80  H    0.113132
    81  H    0.092230
    82  H    0.112046
    83  H    0.118707
    84  H    0.126310
    85  H    0.127256
    86  H    0.098688
    87  H    0.128023
    88  H    0.148573
    89  H    0.133877
    90  H    0.157872
    91  H    0.119810
    92  H    0.129963
    93  H    0.086875
    94  H    0.139874
    95  H    0.109210
    96  H    0.117853
    97  H    0.083238
    98  H    0.107905
    99  H    0.103559
   100  H    0.077916
   101  H    0.084654
   102  H    0.074929
   103  H    0.084737
   104  H    0.074448
   105  H    0.106664
   106  H    0.103902
   107  H    0.089959
   108  H    0.094157
   109  H    0.078590
   110  H    0.083855
   111  H    0.093023
   112  H    0.085565
   113  H    0.063604
   114  H    0.102392
   115  H    0.099027
   116  H    0.102402
   117  H    0.085988
   118  H    0.094376
   119  H    0.073032
   120  H    0.101149
   121  H    0.089368
   122  H    0.097281
   123  H    0.064148
   124  H    0.086596
   125  H    0.084901
   126  H    0.103672
   127  H    0.084698
   128  H    0.081282
   129  H    0.101717
   130  H    0.118555
   131  H    0.140710
   132  H    0.109489
   133  O   -0.437246
   134  H    0.067337
 Sum of Mulliken charges =   0.00000

 Dipole moment (field-independent basis, Debye):
    X=              1.0729    Y=             -4.5410    Z=             -1.0746  Tot=              4.7881
 Quadrupole moment (field-independent basis, Debye-Ang):
   XX=           -377.0601   YY=           -439.8986   ZZ=           -394.8328
   XY=              4.9523   XZ=             28.7018   YZ=            -32.7684

 Normal termination of Gaussian 09 at Sat Oct  5 09:46:21 2019.
