 Gaussian 09, Revision D.01,
 Gaussian 09:  ES64L-G09RevD.01 24-Apr-2013

 ----------------------------------------------------------------------
 # td=(NStates=1) iop(3/107=0140000000,3/108=0140000000) iop(3/107=0140
 000000,3/108=0140000000) CAM-B3LYP/6-31G(d,p)
 ----------------------------------------------------------------------

 --
 TD
 --
 Symbolic Z-matrix:
 Charge =  0 Multiplicity = 1

                         Standard orientation:
 ---------------------------------------------------------------------
 Center     Atomic      Atomic             Coordinates (Angstroms)
 Number     Number       Type             X           Y           Z
 ---------------------------------------------------------------------
      1         12           0       -5.627249    1.274251    0.155409
      2          6           0       -5.013796   -2.179197   -0.407793
      3          6           0       -3.329050    1.046916    2.785307
      4          6           0       -6.162980    4.419331    0.658955
      5          6           0       -7.972580    1.195406   -2.321212
      6          7           0       -4.364409   -0.298739    0.961138
      7          6           0       -4.276660   -1.618657    0.633013
      8          6           0       -3.232138   -2.297253    1.494544
      9          6           0       -2.979519   -1.332681    2.668068
     10          6           0       -3.619383   -0.161724    2.123477
     11          6           0       -3.618096   -1.791687    3.974367
     12          6           0       -2.051806   -2.797096    0.616452
     13          6           0       -0.947326   -3.596021    1.396922
     14          6           0        0.269087   -3.827309    0.492032
     15          8           0        0.436593   -3.417705   -0.571609
     16          8           0        1.112861   -4.707351    1.265217
     17          7           0       -4.841848    2.559856    1.433205
     18          6           0       -3.948643    2.371542    2.507925
     19          6           0       -3.710868    3.606816    3.236684
     20          6           0       -4.535128    4.519861    2.591910
     21          6           0       -5.237589    3.860895    1.538643
     22          6           0       -2.876258    3.787074    4.488986
     23          6           0       -4.759046    5.947099    3.033037
     24          8           0       -3.963127    6.610405    3.759182
     25          7           0       -6.792349    2.675443   -0.803578
     26          6           0       -6.897060    3.922249   -0.337491
     27          6           0       -7.997397    4.634351   -1.153506
     28          6           0       -8.392503    3.664753   -2.022042
     29          6           0       -7.783484    2.441582   -1.715642
     30          6           0       -8.326000    5.988821   -1.236586
     31          6           0       -9.491600    3.945201   -3.145548
     32          6           0       -8.746561    4.052568   -4.607455
     33          7           0       -6.377426   -0.130017   -1.065297
     34          6           0       -7.328352    0.045030   -2.074194
     35          6           0       -7.455735   -1.256105   -2.693818
     36          6           0       -6.630727   -2.148711   -2.117677
     37          6           0       -5.941220   -1.385449   -1.163010
     38          6           0       -8.443322   -1.610220   -3.803663
     39          6           0       -6.239176   -3.536716   -1.990273
     40          8           0       -6.652327   -4.506762   -2.675181
     41          6           0       -5.102212   -3.544297   -0.954757
     42          6           0       -5.401301   -4.587731    0.164850
     43          8           0       -5.796218   -4.441014    1.321268
     44          8           0       -5.222423   -5.801939   -0.368940
     45          6           0       -5.652073   -6.983655    0.340189
     46          6           0        2.397602   -5.058872    0.729753
     47          6           0        3.468369   -4.040826    0.955200
     48          6           0        4.188708   -3.289902    0.050303
     49          6           0        3.785631   -3.031966   -1.389079
     50          6           0        5.196134   -2.376730    0.728771
     51          6           0        6.573752   -2.629121    0.012132
     52          6           0        7.716567   -1.821282    0.562011
     53          6           0        9.110730   -1.972300    0.030589
     54          6           0        9.544553   -3.421113    0.303398
     55          6           0       10.030946   -0.815314    0.480531
     56          6           0       11.341929   -0.862239   -0.189586
     57          6           0       12.209919    0.316356    0.295090
     58          6           0       13.502270    0.509428   -0.533200
     59          6           0       14.438805   -0.700681   -0.359052
     60          6           0       14.242462    1.850446   -0.099346
     61          6           0       15.544451    2.136251   -1.009699
     62          6           0       16.101125    3.535119   -0.728056
     63          6           0       17.360445    3.823306   -1.397424
     64          6           0       17.190015    3.825405   -2.923223
     65          6           0       18.027484    5.129638   -0.931758
     66          1           0       -2.669542    1.117919    3.703718
     67          1           0       -6.264418    5.587064    0.718085
     68          1           0       -8.902252    1.223640   -2.861469
     69          1           0       -3.785071   -3.186856    2.062201
     70          1           0       -1.742893   -1.207302    2.674180
     71          1           0       -3.391050   -2.787944    4.117491
     72          1           0       -3.188156   -1.074810    4.850982
     73          1           0       -4.714080   -1.602296    3.894103
     74          1           0       -2.534866   -3.240080   -0.248957
     75          1           0       -1.695221   -1.701014    0.204629
     76          1           0       -0.574862   -3.218935    2.427627
     77          1           0       -1.222072   -4.588924    1.798909
     78          1           0       -1.786146    3.658031    4.112763
     79          1           0       -3.113122    4.886167    4.979752
     80          1           0       -3.005468    2.911420    5.192055
     81          1           0       -5.666764    6.473481    2.696815
     82          1           0      -10.138893    3.025228   -3.070233
     83          1           0       -9.921066    4.835961   -2.924366
     84          1           0       -9.324759    3.797844   -5.403136
     85          1           0       -8.300782    5.049610   -4.671401
     86          1           0       -7.854292    3.261092   -4.726483
     87          1           0       -8.009983   -1.362529   -4.742017
     88          1           0       -8.608303   -2.945430   -3.707143
     89          1           0       -9.446288   -1.374997   -3.739548
     90          1           0       -4.136304   -3.875913   -1.409821
     91          1           0        2.703432   -6.071339    0.891605
     92          1           0        2.559154   -5.098518   -0.365738
     93          1           0        3.711728   -4.088310    2.024819
     94          1           0        2.756938   -3.411230   -1.716046
     95          1           0        3.748783   -1.923011   -1.445647
     96          1           0        4.471776   -3.574194   -1.813268
     97          1           0        4.804944   -1.340371    0.480185
     98          1           0        5.533724   -2.489616    1.790418
     99          1           0        6.647413   -3.733773    0.340570
    100          1           0        6.534018   -2.531283   -1.079268
    101          1           0        7.593954   -0.847897    0.459375
    102          1           0        7.628189   -2.122570    1.715410
    103          1           0        9.033386   -2.070144   -1.116645
    104          1           0        9.051079   -4.315254   -0.009789
    105          1           0       10.549302   -3.531226   -0.235435
    106          1           0        9.827573   -3.260497    1.534874
    107          1           0        9.395652    0.108521    0.416945
    108          1           0       10.301788   -1.064467    1.507092
    109          1           0       11.851935   -1.718145    0.083027
    110          1           0       11.237514   -0.511848   -1.428768
    111          1           0       11.718124    1.173734   -0.027308
    112          1           0       12.321724    0.408552    1.253130
    113          1           0       13.270775    0.504413   -1.644644
    114          1           0       14.560723   -0.809819    0.648992
    115          1           0       13.813315   -1.461873   -0.698021
    116          1           0       15.344113   -0.697331   -0.798114
    117          1           0       13.660671    2.819451   -0.233101
    118          1           0       14.588679    1.679335    1.062969
    119          1           0       16.204254    1.197798   -0.992704
    120          1           0       15.197046    1.953566   -2.036961
    121          1           0       15.272429    4.259392   -0.910315
    122          1           0       16.199251    3.583075    0.387584
    123          1           0       18.066129    3.130795   -1.070181
    124          1           0       16.362934    4.666138   -3.102910
    125          1           0       17.961913    4.392669   -3.417625
    126          1           0       16.721320    2.924129   -3.274871
    127          1           0       17.965159    5.148617    0.285173
    128          1           0       18.988180    5.316350   -1.303195
    129          1           0       17.189326    5.970743   -1.017500
    130          1           0       -5.823947   -7.801561   -0.326573
    131          1           0       -6.640387   -6.714095    0.643188
    132          1           0       -4.819262   -7.270380    1.169926
    133          8           0       -7.854938    6.892891   -0.452157
    134          1           0       -9.240596    6.192490   -1.853124
 ---------------------------------------------------------------------

 SCF Done:  E(RCAM-B3LYP) =  -3043.43927202     A.U. after   16 cycles

 Excitation energies and oscillator strengths:

 Excited State   1:      Singlet-A      2.0014 eV  619.50 nm  f=0.1778  <S**2>=0.000
     243 -> 246        0.26777
     244 -> 245        0.64428
 This state for optimization and/or second-order correction.
 Total Energy, E(TD-HF/TD-KS) =  -3043.36572311
 Copying the excited state density for this state as the 1-particle RhoCI density.

 The electronic state is 1-A.
 Alpha  occ. eigenvalues --  -46.81233 -19.22615 -19.21410 -19.19521 -19.17695
 Alpha  occ. eigenvalues --  -19.17632 -19.17122 -19.16519 -14.39261 -14.37251
 Alpha  occ. eigenvalues --  -14.37079 -14.36674 -10.35970 -10.35675 -10.32282
 Alpha  occ. eigenvalues --  -10.30758 -10.30082 -10.28336 -10.27647 -10.27408
 Alpha  occ. eigenvalues --  -10.27364 -10.26349 -10.26336 -10.26237 -10.26206
 Alpha  occ. eigenvalues --  -10.26079 -10.26039 -10.25872 -10.25527 -10.25511
 Alpha  occ. eigenvalues --  -10.25270 -10.24880 -10.24763 -10.24731 -10.24661
 Alpha  occ. eigenvalues --  -10.24229 -10.24203 -10.24183 -10.23953 -10.23836
 Alpha  occ. eigenvalues --  -10.23529 -10.23400 -10.23326 -10.23296 -10.23257
 Alpha  occ. eigenvalues --  -10.22973 -10.22934 -10.22524 -10.22404 -10.21946
 Alpha  occ. eigenvalues --  -10.21894 -10.21860 -10.21832 -10.21790 -10.21526
 Alpha  occ. eigenvalues --  -10.21374 -10.21369 -10.21209 -10.20974 -10.20814
 Alpha  occ. eigenvalues --  -10.20666 -10.20370 -10.20349 -10.19827 -10.18529
 Alpha  occ. eigenvalues --  -10.17472  -3.09958  -1.84888  -1.84440  -1.84370
 Alpha  occ. eigenvalues --   -1.14119  -1.13729  -1.05872  -1.05362  -1.04338
 Alpha  occ. eigenvalues --   -1.04054  -1.02822  -1.01530  -1.00739  -1.00176
 Alpha  occ. eigenvalues --   -0.99045  -0.89942  -0.86585  -0.86042  -0.85715
 Alpha  occ. eigenvalues --   -0.85433  -0.84967  -0.84520  -0.84312  -0.83615
 Alpha  occ. eigenvalues --   -0.83446  -0.82942  -0.81853  -0.80531  -0.79920
 Alpha  occ. eigenvalues --   -0.78822  -0.77921  -0.77814  -0.77407  -0.76557
 Alpha  occ. eigenvalues --   -0.75670  -0.74633  -0.74344  -0.73823  -0.72318
 Alpha  occ. eigenvalues --   -0.71969  -0.71328  -0.70368  -0.70203  -0.69794
 Alpha  occ. eigenvalues --   -0.69490  -0.68963  -0.67890  -0.67663  -0.66677
 Alpha  occ. eigenvalues --   -0.65997  -0.65212  -0.64413  -0.62154  -0.62089
 Alpha  occ. eigenvalues --   -0.61229  -0.60720  -0.60109  -0.59225  -0.59149
 Alpha  occ. eigenvalues --   -0.58826  -0.58376  -0.57762  -0.57392  -0.56883
 Alpha  occ. eigenvalues --   -0.56550  -0.55992  -0.55244  -0.55220  -0.54920
 Alpha  occ. eigenvalues --   -0.54181  -0.54042  -0.52896  -0.52627  -0.52437
 Alpha  occ. eigenvalues --   -0.52283  -0.51826  -0.51570  -0.51258  -0.51166
 Alpha  occ. eigenvalues --   -0.50945  -0.50176  -0.49817  -0.49627  -0.49276
 Alpha  occ. eigenvalues --   -0.49138  -0.48981  -0.48925  -0.48369  -0.48264
 Alpha  occ. eigenvalues --   -0.47968  -0.47764  -0.47557  -0.47241  -0.47051
 Alpha  occ. eigenvalues --   -0.46942  -0.46750  -0.46341  -0.46211  -0.46081
 Alpha  occ. eigenvalues --   -0.45761  -0.45739  -0.45535  -0.45434  -0.45062
 Alpha  occ. eigenvalues --   -0.44883  -0.44768  -0.44532  -0.44460  -0.44108
 Alpha  occ. eigenvalues --   -0.43689  -0.43326  -0.43205  -0.43028  -0.42762
 Alpha  occ. eigenvalues --   -0.42657  -0.42572  -0.42287  -0.42048  -0.41926
 Alpha  occ. eigenvalues --   -0.41848  -0.41357  -0.40807  -0.40679  -0.40583
 Alpha  occ. eigenvalues --   -0.40462  -0.40214  -0.40149  -0.40095  -0.39967
 Alpha  occ. eigenvalues --   -0.39762  -0.39586  -0.39464  -0.39368  -0.39281
 Alpha  occ. eigenvalues --   -0.38803  -0.38572  -0.38216  -0.38088  -0.37928
 Alpha  occ. eigenvalues --   -0.37706  -0.37312  -0.37087  -0.37018  -0.36755
 Alpha  occ. eigenvalues --   -0.36754  -0.36312  -0.35861  -0.35653  -0.35351
 Alpha  occ. eigenvalues --   -0.35186  -0.35030  -0.34913  -0.34729  -0.34565
 Alpha  occ. eigenvalues --   -0.34495  -0.34063  -0.33338  -0.33236  -0.33044
 Alpha  occ. eigenvalues --   -0.32891  -0.32662  -0.32536  -0.32008  -0.31680
 Alpha  occ. eigenvalues --   -0.31484  -0.31192  -0.31148  -0.30434  -0.30094
 Alpha  occ. eigenvalues --   -0.29337  -0.28562  -0.28447  -0.28244  -0.27685
 Alpha  occ. eigenvalues --   -0.27513  -0.26558  -0.23132  -0.21933
 Alpha virt. eigenvalues --   -0.09024  -0.06952  -0.02058  -0.01416  -0.00248
 Alpha virt. eigenvalues --    0.02750   0.03390   0.03612   0.03796   0.04015
 Alpha virt. eigenvalues --    0.04547   0.05179   0.07560   0.08418   0.09274

 Mulliken charges:
               1
     1  Mg   0.823924
     2  C    0.078043
     3  C   -0.186227
     4  C   -0.207966
     5  C   -0.171923
     6  N   -0.612425
     7  C    0.322427
     8  C   -0.175335
     9  C   -0.137274
    10  C    0.342502
    11  C   -0.295913
    12  C   -0.154966
    13  C   -0.286025
    14  C    0.619256
    15  O   -0.393269
    16  O   -0.504865
    17  N   -0.718326
    18  C    0.257163
    19  C    0.061950
    20  C   -0.033804
    21  C    0.356386
    22  C   -0.378332
    23  C    0.232317
    24  O   -0.432473
    25  N   -0.697203
    26  C    0.320105
    27  C    0.021059
    28  C    0.023212
    29  C    0.283862
    30  C    0.196535
    31  C   -0.226331
    32  C   -0.320800
    33  N   -0.745287
    34  C    0.334290
    35  C   -0.060663
    36  C    0.126484
    37  C    0.274224
    38  C   -0.376806
    39  C    0.372903
    40  O   -0.472845
    41  C   -0.339695
    42  C    0.605240
    43  O   -0.477837
    44  O   -0.435448
    45  C   -0.076769
    46  C   -0.004779
    47  C   -0.139131
    48  C    0.083203
    49  C   -0.352244
    50  C   -0.201749
    51  C   -0.198853
    52  C   -0.122339
    53  C   -0.066835
    54  C   -0.293558
    55  C   -0.168228
    56  C   -0.163141
    57  C   -0.168548
    58  C   -0.084680
    59  C   -0.307232
    60  C   -0.162762
    61  C   -0.193430
    62  C   -0.159992
    63  C   -0.033387
    64  C   -0.307215
    65  C   -0.311712
    66  H    0.083428
    67  H    0.133112
    68  H    0.092540
    69  H    0.112694
    70  H    0.093406
    71  H    0.126469
    72  H    0.093666
    73  H    0.131700
    74  H    0.116910
    75  H    0.100903
    76  H    0.140680
    77  H    0.149360
    78  H    0.125498
    79  H    0.155048
    80  H    0.117770
    81  H    0.104344
    82  H    0.110248
    83  H    0.117403
    84  H    0.128269
    85  H    0.124242
    86  H    0.096746
    87  H    0.140863
    88  H    0.096885
    89  H    0.134570
    90  H    0.172675
    91  H    0.118800
    92  H    0.092855
    93  H    0.073605
    94  H    0.140954
    95  H    0.118014
    96  H    0.139766
    97  H    0.090008
    98  H    0.104074
    99  H    0.088453
   100  H    0.090335
   101  H    0.086660
   102  H    0.052796
   103  H    0.070694
   104  H    0.121703
   105  H    0.084286
   106  H    0.053718
   107  H    0.097315
   108  H    0.095401
   109  H    0.115847
   110  H    0.053517
   111  H    0.100757
   112  H    0.094130
   113  H    0.071386
   114  H    0.103496
   115  H    0.103785
   116  H    0.104170
   117  H    0.082638
   118  H    0.062624
   119  H    0.082748
   120  H    0.091967
   121  H    0.087763
   122  H    0.086526
   123  H    0.099146
   124  H    0.071521
   125  H    0.107446
   126  H    0.113655
   127  H    0.072454
   128  H    0.112730
   129  H    0.081485
   130  H    0.139529
   131  H    0.140016
   132  H    0.111897
   133  O   -0.459012
   134  H    0.072450
 Sum of Mulliken charges =   0.00000

 Dipole moment (field-independent basis, Debye):
    X=              0.8741    Y=             -5.7401    Z=             -1.1918  Tot=              5.9273
 Quadrupole moment (field-independent basis, Debye-Ang):
   XX=           -375.3315   YY=           -446.5808   ZZ=           -394.8006
   XY=             12.6054   XZ=             18.3778   YZ=            -31.2632

 Normal termination of Gaussian 09 at Tue Oct  8 01:23:30 2019.
