 Gaussian 09, Revision D.01,
 Gaussian 09:  ES64L-G09RevD.01 24-Apr-2013

 ----------------------------------------------------------------------
 # td=(NStates=1) iop(3/107=0140000000,3/108=0140000000) iop(3/107=0140
 000000,3/108=0140000000) CAM-B3LYP/6-31G(d,p)
 ----------------------------------------------------------------------

 --
 TD
 --
 Symbolic Z-matrix:
 Charge =  0 Multiplicity = 1

                         Standard orientation:
 ---------------------------------------------------------------------
 Center     Atomic      Atomic             Coordinates (Angstroms)
 Number     Number       Type             X           Y           Z
 ---------------------------------------------------------------------
      1         12           0       -5.708763    1.129038    0.269826
      2          6           0       -5.043874   -2.179400   -0.355023
      3          6           0       -3.539758    1.067859    2.804241
      4          6           0       -6.190525    4.538585    0.607789
      5          6           0       -8.038396    1.180740   -2.286939
      6          7           0       -4.480838   -0.359146    1.187284
      7          6           0       -4.331485   -1.619827    0.715456
      8          6           0       -3.182731   -2.342015    1.442643
      9          6           0       -2.915512   -1.448145    2.682875
     10          6           0       -3.559429   -0.101572    2.196212
     11          6           0       -3.402490   -1.747886    4.023299
     12          6           0       -1.906189   -2.574737    0.523849
     13          6           0       -0.891941   -3.423606    1.406590
     14          6           0        0.329624   -3.775360    0.631270
     15          8           0        0.526488   -3.410774   -0.557063
     16          8           0        1.235441   -4.443098    1.345152
     17          7           0       -5.008112    2.587028    1.470077
     18          6           0       -4.085731    2.354718    2.525892
     19          6           0       -3.849545    3.545580    3.184484
     20          6           0       -4.602023    4.531224    2.589506
     21          6           0       -5.379002    3.896753    1.469581
     22          6           0       -2.887335    3.813913    4.306513
     23          6           0       -4.734511    5.972105    2.942634
     24          8           0       -4.058697    6.545091    3.774267
     25          7           0       -6.895218    2.698291   -0.729483
     26          6           0       -6.930156    4.015173   -0.349337
     27          6           0       -7.991889    4.620258   -1.264498
     28          6           0       -8.514437    3.636584   -2.119989
     29          6           0       -7.783848    2.452341   -1.715725
     30          6           0       -8.279295    6.065942   -1.182796
     31          6           0       -9.428737    3.777867   -3.226253
     32          6           0       -8.664382    4.097046   -4.664049
     33          7           0       -6.393063   -0.121286   -1.007594
     34          6           0       -7.373044   -0.016175   -2.022946
     35          6           0       -7.518177   -1.324446   -2.699505
     36          6           0       -6.672489   -2.232219   -2.005495
     37          6           0       -6.058139   -1.445656   -1.042036
     38          6           0       -8.550249   -1.664167   -3.837827
     39          6           0       -6.271705   -3.602699   -1.969768
     40          8           0       -6.638940   -4.570119   -2.690929
     41          6           0       -5.047193   -3.646293   -0.767702
     42          6           0       -5.467346   -4.691991    0.213642
     43          8           0       -5.752219   -4.437697    1.297402
     44          8           0       -5.179249   -5.922973   -0.285209
     45          6           0       -5.473699   -7.009989    0.597369
     46          6           0        2.400677   -4.876414    0.511779
     47          6           0        3.419938   -3.921243    0.839733
     48          6           0        4.089457   -3.096117   -0.028118
     49          6           0        3.764100   -3.138750   -1.483588
     50          6           0        5.198324   -2.281961    0.493594
     51          6           0        6.573946   -2.584351   -0.261843
     52          6           0        7.716518   -1.838236    0.465497
     53          6           0        9.065889   -2.044899   -0.215100
     54          6           0        9.530423   -3.534335   -0.025339
     55          6           0       10.101441   -1.039720    0.449143
     56          6           0       11.489908   -1.045304   -0.154570
     57          6           0       12.294153    0.244647    0.289232
     58          6           0       13.668712    0.393181   -0.406799
     59          6           0       14.566540   -0.830015   -0.134604
     60          6           0       14.347926    1.752918   -0.024859
     61          6           0       15.528102    2.155744   -0.901458
     62          6           0       16.080690    3.572509   -0.603757
     63          6           0       17.310951    3.959490   -1.376614
     64          6           0       17.075175    4.122412   -2.928999
     65          6           0       17.834287    5.313789   -0.737172
     66          1           0       -2.666790    1.281412    3.532117
     67          1           0       -6.373728    5.621458    0.939354
     68          1           0       -8.811305    1.278132   -3.014052
     69          1           0       -3.618162   -3.336304    1.970807
     70          1           0       -1.816718   -1.120224    2.726413
     71          1           0       -3.082745   -2.693548    4.350530
     72          1           0       -3.291721   -1.011105    4.750794
     73          1           0       -4.549171   -1.919146    4.017117
     74          1           0       -2.040313   -3.293798   -0.308913
     75          1           0       -1.563170   -1.648463    0.171052
     76          1           0       -0.500572   -2.975033    2.250980
     77          1           0       -1.252131   -4.375097    1.994962
     78          1           0       -1.855423    3.335032    4.105380
     79          1           0       -2.851527    4.683810    4.465572
     80          1           0       -3.161678    3.129144    5.164849
     81          1           0       -5.434489    6.420023    2.438838
     82          1           0      -10.121307    2.958711   -3.280259
     83          1           0      -10.209919    4.678845   -3.196494
     84          1           0       -9.389700    4.056934   -5.432586
     85          1           0       -8.098848    5.006480   -4.494501
     86          1           0       -8.011869    3.280859   -4.994135
     87          1           0       -8.409997   -0.957969   -4.626115
     88          1           0       -8.111221   -2.706236   -4.284387
     89          1           0       -9.414129   -1.576766   -3.545641
     90          1           0       -4.431801   -4.115249   -1.343471
     91          1           0        2.838013   -5.891436    1.013696
     92          1           0        1.897760   -4.992656   -0.386974
     93          1           0        3.901613   -3.965725    1.880477
     94          1           0        2.603588   -3.235524   -1.547109
     95          1           0        3.829961   -2.235965   -1.958947
     96          1           0        4.305832   -3.894236   -2.200943
     97          1           0        5.172809   -1.005145    0.412248
     98          1           0        5.326128   -2.394518    1.526017
     99          1           0        6.836083   -3.630749   -0.287791
    100          1           0        6.608191   -2.282930   -1.394408
    101          1           0        7.634521   -0.748818    0.518721
    102          1           0        7.976292   -2.116281    1.396673
    103          1           0        8.915452   -1.753659   -1.353709
    104          1           0        8.903693   -4.243393   -0.457399
    105          1           0       10.487378   -3.766954   -0.360095
    106          1           0        9.466698   -4.019014    0.969273
    107          1           0        9.731389   -0.077675    0.356920
    108          1           0       10.129613   -1.165841    1.482055
    109          1           0       12.158129   -2.011419   -0.106414
    110          1           0       11.327749   -0.821421   -1.213322
    111          1           0       11.572485    1.153258   -0.073924
    112          1           0       12.108338    0.305167    1.525370
    113          1           0       13.623856    0.499445   -1.446758
    114          1           0       14.588601   -1.015666    0.948014
    115          1           0       14.049614   -1.625713   -0.514553
    116          1           0       15.582882   -0.642402   -0.472678
    117          1           0       13.644359    2.394388   -0.123018
    118          1           0       14.629566    1.695993    1.102376
    119          1           0       16.245317    1.353907   -0.775838
    120          1           0       15.302044    2.149526   -1.974988
    121          1           0       15.379337    4.327641   -0.698881
    122          1           0       16.439038    3.562924    0.559731
    123          1           0       18.191437    3.361223   -1.148349
    124          1           0       16.298023    4.678939   -3.178799
    125          1           0       18.067563    4.512837   -3.468070
    126          1           0       16.877715    3.064043   -3.316254
    127          1           0       18.056623    5.228482    0.351681
    128          1           0       18.905900    5.609015   -1.166121
    129          1           0       17.447097    6.221732   -0.992006
    130          1           0       -5.618527   -7.992950   -0.133744
    131          1           0       -6.424450   -6.871325    1.106199
    132          1           0       -4.536871   -7.165779    1.527525
    133          8           0       -7.809371    6.950559   -0.484956
    134          1           0       -8.983339    6.553103   -1.873980
 ---------------------------------------------------------------------

 SCF Done:  E(RCAM-B3LYP) =  -3043.42074501     A.U. after   16 cycles

 Excitation energies and oscillator strengths:

 Excited State   1:      Singlet-A      2.0348 eV  609.33 nm  f=0.1983  <S**2>=0.000
     243 -> 246       -0.27149
     244 -> 245        0.64341
 This state for optimization and/or second-order correction.
 Total Energy, E(TD-HF/TD-KS) =  -3043.34596892
 Copying the excited state density for this state as the 1-particle RhoCI density.

 The electronic state is 1-A.
 Alpha  occ. eigenvalues --  -46.81054 -19.22721 -19.22313 -19.18143 -19.17532
 Alpha  occ. eigenvalues --  -19.16641 -19.16601 -19.16568 -14.38738 -14.37395
 Alpha  occ. eigenvalues --  -14.36926 -14.36565 -10.34915 -10.34507 -10.32536
 Alpha  occ. eigenvalues --  -10.30335 -10.29773 -10.28767 -10.28043 -10.27753
 Alpha  occ. eigenvalues --  -10.27459 -10.26906 -10.26865 -10.26609 -10.26540
 Alpha  occ. eigenvalues --  -10.26533 -10.26118 -10.25855 -10.25447 -10.25215
 Alpha  occ. eigenvalues --  -10.25103 -10.24807 -10.24695 -10.24420 -10.24272
 Alpha  occ. eigenvalues --  -10.24251 -10.24086 -10.23984 -10.23377 -10.23357
 Alpha  occ. eigenvalues --  -10.23193 -10.23104 -10.23060 -10.23055 -10.22847
 Alpha  occ. eigenvalues --  -10.22811 -10.22681 -10.22527 -10.22514 -10.22271
 Alpha  occ. eigenvalues --  -10.21953 -10.21800 -10.21636 -10.21330 -10.21103
 Alpha  occ. eigenvalues --  -10.20950 -10.20814 -10.20542 -10.20524 -10.20378
 Alpha  occ. eigenvalues --  -10.19887 -10.19659 -10.19538 -10.19201 -10.19191
 Alpha  occ. eigenvalues --  -10.18947  -3.09774  -1.84700  -1.84228  -1.84217
 Alpha  occ. eigenvalues --   -1.15367  -1.13047  -1.07464  -1.06436  -1.06265
 Alpha  occ. eigenvalues --   -1.05145  -1.02720  -1.00469  -0.99622  -0.99296
 Alpha  occ. eigenvalues --   -0.98210  -0.88524  -0.86522  -0.86090  -0.85390
 Alpha  occ. eigenvalues --   -0.85016  -0.84763  -0.84283  -0.83978  -0.83336
 Alpha  occ. eigenvalues --   -0.82863  -0.82757  -0.82086  -0.80870  -0.79869
 Alpha  occ. eigenvalues --   -0.78806  -0.78184  -0.77481  -0.77399  -0.76522
 Alpha  occ. eigenvalues --   -0.75700  -0.75255  -0.74338  -0.73422  -0.72263
 Alpha  occ. eigenvalues --   -0.71824  -0.70962  -0.70757  -0.70620  -0.70265
 Alpha  occ. eigenvalues --   -0.70052  -0.69072  -0.67982  -0.67496  -0.67015
 Alpha  occ. eigenvalues --   -0.66282  -0.64782  -0.64590  -0.63065  -0.62746
 Alpha  occ. eigenvalues --   -0.61446  -0.60853  -0.60351  -0.59328  -0.59180
 Alpha  occ. eigenvalues --   -0.59049  -0.58894  -0.58105  -0.57881  -0.57781
 Alpha  occ. eigenvalues --   -0.57028  -0.56636  -0.55611  -0.55455  -0.54653
 Alpha  occ. eigenvalues --   -0.54423  -0.54057  -0.53243  -0.52674  -0.52081
 Alpha  occ. eigenvalues --   -0.51690  -0.51238  -0.51023  -0.50705  -0.50537
 Alpha  occ. eigenvalues --   -0.50044  -0.50022  -0.49883  -0.49419  -0.49025
 Alpha  occ. eigenvalues --   -0.48876  -0.48557  -0.48449  -0.48359  -0.48184
 Alpha  occ. eigenvalues --   -0.48037  -0.47897  -0.47183  -0.46765  -0.46679
 Alpha  occ. eigenvalues --   -0.46603  -0.46568  -0.46360  -0.45949  -0.45696
 Alpha  occ. eigenvalues --   -0.45619  -0.45409  -0.45234  -0.45041  -0.44891
 Alpha  occ. eigenvalues --   -0.44582  -0.44400  -0.44353  -0.44037  -0.43883
 Alpha  occ. eigenvalues --   -0.43478  -0.43411  -0.43210  -0.42981  -0.42681
 Alpha  occ. eigenvalues --   -0.42592  -0.42320  -0.42004  -0.41916  -0.41795
 Alpha  occ. eigenvalues --   -0.41437  -0.41427  -0.41172  -0.41128  -0.41022
 Alpha  occ. eigenvalues --   -0.40745  -0.40590  -0.40489  -0.40334  -0.39904
 Alpha  occ. eigenvalues --   -0.39839  -0.39541  -0.39469  -0.39367  -0.39274
 Alpha  occ. eigenvalues --   -0.38977  -0.38943  -0.38792  -0.38713  -0.38633
 Alpha  occ. eigenvalues --   -0.38333  -0.37978  -0.37824  -0.37363  -0.37221
 Alpha  occ. eigenvalues --   -0.36992  -0.36599  -0.36436  -0.36177  -0.36123
 Alpha  occ. eigenvalues --   -0.35514  -0.35483  -0.35297  -0.35150  -0.34709
 Alpha  occ. eigenvalues --   -0.34386  -0.33808  -0.33638  -0.33609  -0.33548
 Alpha  occ. eigenvalues --   -0.33390  -0.32991  -0.32601  -0.32135  -0.31995
 Alpha  occ. eigenvalues --   -0.31828  -0.31341  -0.30669  -0.30354  -0.30087
 Alpha  occ. eigenvalues --   -0.29160  -0.28204  -0.27916  -0.27645  -0.27538
 Alpha  occ. eigenvalues --   -0.26812  -0.26276  -0.23281  -0.22194
 Alpha virt. eigenvalues --   -0.09209  -0.06790  -0.02024  -0.00332   0.00597
 Alpha virt. eigenvalues --    0.02328   0.03467   0.03667   0.03926   0.04325
 Alpha virt. eigenvalues --    0.04939   0.06278   0.08199   0.08489   0.09108

 Mulliken charges:
               1
     1  Mg   0.833936
     2  C    0.026625
     3  C   -0.189160
     4  C   -0.170999
     5  C   -0.164468
     6  N   -0.622933
     7  C    0.333022
     8  C   -0.180361
     9  C   -0.111017
    10  C    0.306152
    11  C   -0.309497
    12  C   -0.159634
    13  C   -0.274473
    14  C    0.607413
    15  O   -0.509549
    16  O   -0.463713
    17  N   -0.737786
    18  C    0.289070
    19  C    0.040038
    20  C   -0.081077
    21  C    0.335017
    22  C   -0.315493
    23  C    0.292008
    24  O   -0.426786
    25  N   -0.690310
    26  C    0.326109
    27  C   -0.057596
    28  C    0.092264
    29  C    0.299261
    30  C    0.233343
    31  C   -0.292757
    32  C   -0.316165
    33  N   -0.755112
    34  C    0.294241
    35  C   -0.030495
    36  C    0.095914
    37  C    0.326853
    38  C   -0.345547
    39  C    0.295135
    40  O   -0.468091
    41  C   -0.293045
    42  C    0.621607
    43  O   -0.425246
    44  O   -0.444173
    45  C   -0.072987
    46  C   -0.001103
    47  C   -0.119186
    48  C    0.169006
    49  C   -0.401309
    50  C   -0.221524
    51  C   -0.181732
    52  C   -0.157908
    53  C   -0.066031
    54  C   -0.330559
    55  C   -0.178811
    56  C   -0.177204
    57  C   -0.170447
    58  C   -0.064923
    59  C   -0.313894
    60  C   -0.151318
    61  C   -0.194028
    62  C   -0.143940
    63  C   -0.047445
    64  C   -0.310879
    65  C   -0.327894
    66  H    0.071376
    67  H    0.138389
    68  H    0.080103
    69  H    0.110555
    70  H    0.099218
    71  H    0.114759
    72  H    0.130513
    73  H    0.110313
    74  H    0.136508
    75  H    0.134712
    76  H    0.149386
    77  H    0.127705
    78  H    0.105769
    79  H    0.125523
    80  H    0.114465
    81  H    0.076101
    82  H    0.117110
    83  H    0.110304
    84  H    0.122073
    85  H    0.131339
    86  H    0.114569
    87  H    0.125139
    88  H    0.137789
    89  H    0.141286
    90  H    0.155506
    91  H    0.102589
    92  H    0.146133
    93  H    0.084822
    94  H    0.143046
    95  H    0.121484
    96  H    0.104978
    97  H    0.066270
    98  H    0.106403
    99  H    0.104422
   100  H    0.089122
   101  H    0.082470
   102  H    0.101872
   103  H    0.063232
   104  H    0.104320
   105  H    0.109285
   106  H    0.091807
   107  H    0.095302
   108  H    0.094804
   109  H    0.084688
   110  H    0.097809
   111  H    0.063363
   112  H    0.063604
   113  H    0.093398
   114  H    0.099604
   115  H    0.109571
   116  H    0.099361
   117  H    0.095188
   118  H    0.071966
   119  H    0.093760
   120  H    0.086013
   121  H    0.100602
   122  H    0.062176
   123  H    0.096977
   124  H    0.119625
   125  H    0.086983
   126  H    0.094326
   127  H    0.099041
   128  H    0.061432
   129  H    0.113502
   130  H    0.115713
   131  H    0.143806
   132  H    0.079234
   133  O   -0.425373
   134  H    0.052349
 Sum of Mulliken charges =   0.00000

 Dipole moment (field-independent basis, Debye):
    X=              0.3881    Y=             -5.1822    Z=             -1.2746  Tot=              5.3508
 Quadrupole moment (field-independent basis, Debye-Ang):
   XX=           -374.8357   YY=           -441.7653   ZZ=           -390.8252
   XY=              6.5682   XZ=             21.3323   YZ=            -39.2286

 Normal termination of Gaussian 09 at Tue Oct  8 08:23:02 2019.
