 Gaussian 09, Revision D.01,
 Gaussian 09:  ES64L-G09RevD.01 24-Apr-2013

 ----------------------------------------------------------------------
 # td=(NStates=1) iop(3/107=0140000000,3/108=0140000000) iop(3/107=0140
 000000,3/108=0140000000) CAM-B3LYP/6-31G(d,p)
 ----------------------------------------------------------------------

 --
 TD
 --
 Symbolic Z-matrix:
 Charge =  0 Multiplicity = 1

                         Standard orientation:
 ---------------------------------------------------------------------
 Center     Atomic      Atomic             Coordinates (Angstroms)
 Number     Number       Type             X           Y           Z
 ---------------------------------------------------------------------
      1         12           0       -5.684788    1.196937    0.202462
      2          6           0       -4.944783   -2.080335   -0.451162
      3          6           0       -3.424837    1.147866    2.809691
      4          6           0       -6.151329    4.462110    0.665231
      5          6           0       -8.072287    1.144254   -2.374618
      6          7           0       -4.363586   -0.328590    1.022394
      7          6           0       -4.227316   -1.541630    0.579653
      8          6           0       -3.092762   -2.319961    1.455854
      9          6           0       -2.874685   -1.286659    2.631695
     10          6           0       -3.566829   -0.131330    2.081070
     11          6           0       -3.389284   -1.742070    3.926436
     12          6           0       -1.986277   -2.676929    0.581037
     13          6           0       -1.024209   -3.487893    1.335988
     14          6           0        0.210035   -3.952565    0.634681
     15          8           0        0.574049   -3.414896   -0.444760
     16          8           0        1.109509   -4.833390    1.210162
     17          7           0       -4.894908    2.635665    1.455447
     18          6           0       -4.034421    2.408768    2.442816
     19          6           0       -3.704274    3.614816    3.116232
     20          6           0       -4.503340    4.563952    2.494680
     21          6           0       -5.238590    3.887337    1.528874
     22          6           0       -2.783058    3.758273    4.284234
     23          6           0       -4.622450    5.988959    2.917097
     24          8           0       -4.104584    6.535839    3.811117
     25          7           0       -7.021548    2.522596   -0.577022
     26          6           0       -7.086430    3.876208   -0.247238
     27          6           0       -8.008416    4.544921   -1.173013
     28          6           0       -8.500559    3.538057   -2.044627
     29          6           0       -7.905459    2.352221   -1.638657
     30          6           0       -8.339123    5.923763   -1.130510
     31          6           0       -9.565568    3.728155   -3.047741
     32          6           0       -8.864820    4.021126   -4.460135
     33          7           0       -6.420413   -0.121693   -1.068132
     34          6           0       -7.367952   -0.008599   -1.966957
     35          6           0       -7.484670   -1.261190   -2.808605
     36          6           0       -6.605301   -2.096879   -2.077137
     37          6           0       -5.930904   -1.375198   -1.135273
     38          6           0       -8.458071   -1.678289   -3.851271
     39          6           0       -6.175324   -3.532970   -1.980041
     40          8           0       -6.514761   -4.561290   -2.635943
     41          6           0       -4.962686   -3.570447   -0.953976
     42          6           0       -5.239682   -4.625296    0.155193
     43          8           0       -5.674742   -4.385329    1.230911
     44          8           0       -4.849250   -5.792276   -0.331662
     45          6           0       -5.208829   -6.973689    0.409363
     46          6           0        2.271371   -5.075628    0.439810
     47          6           0        3.437326   -4.137078    0.914051
     48          6           0        4.027788   -3.223547    0.217782
     49          6           0        3.721957   -2.944517   -1.215251
     50          6           0        5.272188   -2.488503    0.779004
     51          6           0        6.637952   -2.757739    0.186922
     52          6           0        7.684268   -1.719498    0.671180
     53          6           0        9.100750   -2.063913    0.069310
     54          6           0        9.526600   -3.500032    0.174465
     55          6           0       10.027521   -0.933087    0.466357
     56          6           0       11.328119   -0.876771   -0.243928
     57          6           0       12.311298    0.236307    0.263624
     58          6           0       13.631775    0.478155   -0.464471
     59          6           0       14.654338   -0.798736   -0.321930
     60          6           0       14.191687    1.766280   -0.119693
     61          6           0       15.455819    2.146068   -0.946519
     62          6           0       16.004319    3.519878   -0.706503
     63          6           0       17.226614    4.089175   -1.485455
     64          6           0       16.870793    4.172074   -2.932165
     65          6           0       17.648250    5.434628   -0.926070
     66          1           0       -2.806535    1.236560    3.679734
     67          1           0       -6.328754    5.554356    0.594922
     68          1           0       -8.652396    1.268162   -3.338517
     69          1           0       -3.681278   -3.227424    1.830932
     70          1           0       -1.761578   -1.153592    2.690447
     71          1           0       -2.773014   -2.474190    4.141684
     72          1           0       -3.196347   -1.007183    4.722367
     73          1           0       -4.523299   -1.885594    3.907366
     74          1           0       -2.300548   -3.372677   -0.145089
     75          1           0       -1.588743   -1.750592    0.072554
     76          1           0       -0.863863   -3.016263    2.221889
     77          1           0       -1.662407   -4.321347    1.777270
     78          1           0       -1.788748    3.565449    4.187612
     79          1           0       -3.044110    4.728819    4.790829
     80          1           0       -2.995162    3.126916    5.157007
     81          1           0       -5.455747    6.481842    2.256825
     82          1           0      -10.230362    2.918218   -3.143565
     83          1           0      -10.394938    4.651770   -2.798260
     84          1           0       -9.519232    4.393917   -5.353209
     85          1           0       -8.115075    4.920091   -4.273693
     86          1           0       -8.337960    3.062137   -4.768416
     87          1           0       -8.220633   -1.093637   -4.820265
     88          1           0       -8.557903   -2.663923   -4.053271
     89          1           0       -9.524902   -1.028840   -3.640210
     90          1           0       -4.201873   -3.962798   -1.508080
     91          1           0        2.574156   -6.046994    0.539883
     92          1           0        1.880680   -4.905130   -0.729159
     93          1           0        3.615399   -4.169213    2.047598
     94          1           0        2.577392   -3.062003   -1.333741
     95          1           0        3.896557   -1.810511   -1.501648
     96          1           0        4.323904   -3.604947   -1.810464
     97          1           0        5.138185   -1.292209    0.863621
     98          1           0        5.458627   -2.672196    1.934297
     99          1           0        7.169908   -3.653949    0.421961
    100          1           0        6.475118   -2.711657   -0.837975
    101          1           0        7.403563   -0.688939    0.302076
    102          1           0        7.887057   -1.711741    1.726850
    103          1           0        8.927066   -1.968629   -0.927104
    104          1           0        8.786111   -4.168515   -0.224448
    105          1           0       10.446899   -3.661895   -0.283649
    106          1           0        9.454921   -3.901324    1.114307
    107          1           0        9.515189   -0.052268    0.248163
    108          1           0       10.424208   -0.920225    1.494652
    109          1           0       11.953938   -1.707526   -0.186858
    110          1           0       11.118507   -0.972562   -1.317930
    111          1           0       11.997559    1.190829   -0.243037
    112          1           0       12.429355    0.434301    1.385345
    113          1           0       13.236798    0.504296   -1.575248
    114          1           0       15.007572   -0.777121    0.673403
    115          1           0       13.818819   -1.706820   -0.267052
    116          1           0       15.335574   -0.850940   -1.181843
    117          1           0       13.471707    2.720188   -0.250003
    118          1           0       14.508309    1.744780    0.985810
    119          1           0       16.228951    1.463836   -0.745058
    120          1           0       15.089724    2.082911   -2.012205
    121          1           0       15.144590    4.105851   -1.053690
    122          1           0       16.187985    3.722641    0.375309
    123          1           0       18.256611    3.408542   -1.506251
    124          1           0       16.053124    4.790576   -3.345101
    125          1           0       17.690488    4.369871   -3.584008
    126          1           0       16.760342    3.283329   -3.399195
    127          1           0       17.844726    5.596957    0.162000
    128          1           0       18.811412    5.943089   -1.258621
    129          1           0       16.872477    6.108207   -1.380077
    130          1           0       -4.639087   -7.675518   -0.200273
    131          1           0       -6.427245   -7.003069    0.288200
    132          1           0       -5.001077   -6.793701    1.447302
    133          8           0       -7.814377    6.819005   -0.417013
    134          1           0       -9.244268    6.154585   -1.862156
 ---------------------------------------------------------------------

 SCF Done:  E(RCAM-B3LYP) =  -3043.46648614     A.U. after   16 cycles

 Excitation energies and oscillator strengths:

 Excited State   1:      Singlet-A      2.0866 eV  594.20 nm  f=0.0940  <S**2>=0.000
     243 -> 245       -0.11850
     243 -> 246        0.35423
     244 -> 245        0.58304
     244 -> 246        0.10041
 This state for optimization and/or second-order correction.
 Total Energy, E(TD-HF/TD-KS) =  -3043.38980626
 Copying the excited state density for this state as the 1-particle RhoCI density.

 The electronic state is 1-A.
 Alpha  occ. eigenvalues --  -46.81940 -19.23359 -19.22851 -19.18266 -19.17560
 Alpha  occ. eigenvalues --  -19.17523 -19.17476 -19.16788 -14.39523 -14.37080
 Alpha  occ. eigenvalues --  -14.36929 -14.36367 -10.36400 -10.35629 -10.32268
 Alpha  occ. eigenvalues --  -10.30336 -10.30261 -10.29170 -10.28124 -10.27454
 Alpha  occ. eigenvalues --  -10.27342 -10.27078 -10.26598 -10.25992 -10.25964
 Alpha  occ. eigenvalues --  -10.25833 -10.25821 -10.25397 -10.25245 -10.25215
 Alpha  occ. eigenvalues --  -10.24906 -10.24681 -10.24536 -10.24524 -10.24484
 Alpha  occ. eigenvalues --  -10.24461 -10.24408 -10.24183 -10.23780 -10.23641
 Alpha  occ. eigenvalues --  -10.23315 -10.23303 -10.22985 -10.22886 -10.22657
 Alpha  occ. eigenvalues --  -10.22582 -10.22260 -10.22210 -10.22094 -10.22043
 Alpha  occ. eigenvalues --  -10.21881 -10.21855 -10.21359 -10.21174 -10.21149
 Alpha  occ. eigenvalues --  -10.21033 -10.20993 -10.20699 -10.20631 -10.20292
 Alpha  occ. eigenvalues --  -10.20105 -10.20023 -10.19885 -10.19499 -10.18599
 Alpha  occ. eigenvalues --  -10.18520  -3.10577  -1.85514  -1.85048  -1.84987
 Alpha  occ. eigenvalues --   -1.15585  -1.13095  -1.09574  -1.07401  -1.04585
 Alpha  occ. eigenvalues --   -1.04128  -1.03343  -1.03187  -1.02725  -1.02010
 Alpha  occ. eigenvalues --   -0.98593  -0.89051  -0.88772  -0.86253  -0.85716
 Alpha  occ. eigenvalues --   -0.85440  -0.85339  -0.84518  -0.83964  -0.83627
 Alpha  occ. eigenvalues --   -0.83536  -0.83263  -0.82516  -0.80602  -0.80392
 Alpha  occ. eigenvalues --   -0.79140  -0.78309  -0.77624  -0.77325  -0.76927
 Alpha  occ. eigenvalues --   -0.76150  -0.75205  -0.74386  -0.73924  -0.73118
 Alpha  occ. eigenvalues --   -0.71929  -0.71520  -0.70574  -0.70168  -0.69989
 Alpha  occ. eigenvalues --   -0.69363  -0.69066  -0.68145  -0.66602  -0.66086
 Alpha  occ. eigenvalues --   -0.65935  -0.65120  -0.64406  -0.62363  -0.62093
 Alpha  occ. eigenvalues --   -0.61647  -0.61156  -0.60468  -0.59933  -0.59880
 Alpha  occ. eigenvalues --   -0.59758  -0.58524  -0.57872  -0.57532  -0.56967
 Alpha  occ. eigenvalues --   -0.56495  -0.55974  -0.55714  -0.55458  -0.55379
 Alpha  occ. eigenvalues --   -0.54620  -0.54330  -0.53809  -0.53275  -0.52724
 Alpha  occ. eigenvalues --   -0.52254  -0.51664  -0.51433  -0.51276  -0.51053
 Alpha  occ. eigenvalues --   -0.50655  -0.50131  -0.49884  -0.49847  -0.49096
 Alpha  occ. eigenvalues --   -0.49057  -0.48884  -0.48572  -0.48536  -0.48212
 Alpha  occ. eigenvalues --   -0.47959  -0.47726  -0.47605  -0.47453  -0.47248
 Alpha  occ. eigenvalues --   -0.47174  -0.47093  -0.46713  -0.46284  -0.45952
 Alpha  occ. eigenvalues --   -0.45636  -0.45515  -0.45333  -0.45173  -0.45152
 Alpha  occ. eigenvalues --   -0.45015  -0.44632  -0.44479  -0.44255  -0.44125
 Alpha  occ. eigenvalues --   -0.43987  -0.43834  -0.43764  -0.43593  -0.43513
 Alpha  occ. eigenvalues --   -0.43161  -0.42874  -0.42679  -0.42659  -0.42284
 Alpha  occ. eigenvalues --   -0.42026  -0.41834  -0.41388  -0.41204  -0.40984
 Alpha  occ. eigenvalues --   -0.40757  -0.40654  -0.40428  -0.40380  -0.40237
 Alpha  occ. eigenvalues --   -0.40025  -0.39987  -0.39732  -0.39686  -0.39235
 Alpha  occ. eigenvalues --   -0.39063  -0.38849  -0.38754  -0.38449  -0.38395
 Alpha  occ. eigenvalues --   -0.38325  -0.38013  -0.37678  -0.37483  -0.37005
 Alpha  occ. eigenvalues --   -0.36445  -0.36231  -0.35792  -0.35695  -0.35412
 Alpha  occ. eigenvalues --   -0.35253  -0.35144  -0.34798  -0.34628  -0.34252
 Alpha  occ. eigenvalues --   -0.34223  -0.34023  -0.33969  -0.33273  -0.33116
 Alpha  occ. eigenvalues --   -0.32770  -0.32483  -0.32156  -0.32071  -0.31967
 Alpha  occ. eigenvalues --   -0.31476  -0.30637  -0.30463  -0.30300  -0.30191
 Alpha  occ. eigenvalues --   -0.28704  -0.28390  -0.27931  -0.27722  -0.27679
 Alpha  occ. eigenvalues --   -0.27520  -0.27246  -0.22732  -0.22031
 Alpha virt. eigenvalues --   -0.08391  -0.07258  -0.02075  -0.00373   0.00385
 Alpha virt. eigenvalues --    0.01158   0.03210   0.03444   0.03743   0.05145
 Alpha virt. eigenvalues --    0.05511   0.05956   0.07465   0.07887   0.08579

 Mulliken charges:
               1
     1  Mg   0.836760
     2  C    0.036933
     3  C   -0.180748
     4  C   -0.205861
     5  C   -0.152413
     6  N   -0.611623
     7  C    0.303387
     8  C   -0.193865
     9  C   -0.153365
    10  C    0.324939
    11  C   -0.282411
    12  C   -0.141053
    13  C   -0.274437
    14  C    0.613728
    15  O   -0.475681
    16  O   -0.464087
    17  N   -0.699795
    18  C    0.300087
    19  C    0.048154
    20  C   -0.041485
    21  C    0.350758
    22  C   -0.409664
    23  C    0.266503
    24  O   -0.384420
    25  N   -0.687778
    26  C    0.275071
    27  C   -0.010777
    28  C    0.069895
    29  C    0.285230
    30  C    0.226985
    31  C   -0.260464
    32  C   -0.307525
    33  N   -0.735578
    34  C    0.271687
    35  C    0.032305
    36  C   -0.005269
    37  C    0.341810
    38  C   -0.370852
    39  C    0.355027
    40  O   -0.485512
    41  C   -0.285049
    42  C    0.608324
    43  O   -0.456760
    44  O   -0.435673
    45  C   -0.090531
    46  C    0.002484
    47  C   -0.144117
    48  C    0.158373
    49  C   -0.387113
    50  C   -0.224188
    51  C   -0.161907
    52  C   -0.194074
    53  C   -0.063517
    54  C   -0.333612
    55  C   -0.152492
    56  C   -0.195115
    57  C   -0.178944
    58  C   -0.061856
    59  C   -0.314617
    60  C   -0.156765
    61  C   -0.177773
    62  C   -0.156745
    63  C   -0.044052
    64  C   -0.324427
    65  C   -0.278443
    66  H    0.079272
    67  H    0.140761
    68  H    0.103141
    69  H    0.121511
    70  H    0.110501
    71  H    0.116766
    72  H    0.110061
    73  H    0.125438
    74  H    0.125322
    75  H    0.124297
    76  H    0.143653
    77  H    0.122510
    78  H    0.137886
    79  H    0.152314
    80  H    0.117311
    81  H    0.053734
    82  H    0.122720
    83  H    0.094026
    84  H    0.105695
    85  H    0.111384
    86  H    0.108719
    87  H    0.124179
    88  H    0.159345
    89  H    0.099620
    90  H    0.162183
    91  H    0.118608
    92  H    0.116957
    93  H    0.081490
    94  H    0.150349
    95  H    0.092527
    96  H    0.125222
    97  H    0.075486
    98  H    0.069480
    99  H    0.099300
   100  H    0.099659
   101  H    0.083758
   102  H    0.099232
   103  H    0.094806
   104  H    0.104610
   105  H    0.108814
   106  H    0.106715
   107  H    0.099766
   108  H    0.083985
   109  H    0.096770
   110  H    0.081184
   111  H    0.093021
   112  H    0.081192
   113  H    0.066044
   114  H    0.113542
   115  H    0.071889
   116  H    0.116649
   117  H    0.072064
   118  H    0.077093
   119  H    0.100733
   120  H    0.086328
   121  H    0.087750
   122  H    0.082104
   123  H    0.058400
   124  H    0.097874
   125  H    0.097991
   126  H    0.113347
   127  H    0.105974
   128  H    0.050400
   129  H    0.102494
   130  H    0.143330
   131  H    0.122420
   132  H    0.145221
   133  O   -0.451271
   134  H    0.048339
 Sum of Mulliken charges =   0.00000

 Dipole moment (field-independent basis, Debye):
    X=              0.7751    Y=             -6.5675    Z=             -0.9198  Tot=              6.6767
 Quadrupole moment (field-independent basis, Debye-Ang):
   XX=           -391.9316   YY=           -445.6413   ZZ=           -388.3740
   XY=             18.0386   XZ=             20.1154   YZ=            -31.2188

 Normal termination of Gaussian 09 at Wed Oct  9 00:49:13 2019.
