 Gaussian 09, Revision D.01,
 Gaussian 09:  ES64L-G09RevD.01 24-Apr-2013

 ----------------------------------------------------------------------
 # td=(NStates=1) iop(3/107=0140000000,3/108=0140000000) iop(3/107=0140
 000000,3/108=0140000000) CAM-B3LYP/6-31G(d,p)
 ----------------------------------------------------------------------

 --
 TD
 --
 Symbolic Z-matrix:
 Charge =  0 Multiplicity = 1

                         Standard orientation:
 ---------------------------------------------------------------------
 Center     Atomic      Atomic             Coordinates (Angstroms)
 Number     Number       Type             X           Y           Z
 ---------------------------------------------------------------------
      1         12           0       -5.670296    1.231878    0.168822
      2          6           0       -5.083637   -2.155539   -0.342515
      3          6           0       -3.483192    1.285549    2.787912
      4          6           0       -6.144122    4.580533    0.580610
      5          6           0       -8.015641    1.181485   -2.354603
      6          7           0       -4.401387   -0.234424    1.091049
      7          6           0       -4.312024   -1.520119    0.694930
      8          6           0       -3.259203   -2.295980    1.525755
      9          6           0       -2.996349   -1.247741    2.668459
     10          6           0       -3.612083    0.034638    2.119545
     11          6           0       -3.303796   -1.763980    4.026950
     12          6           0       -2.043105   -2.730281    0.697839
     13          6           0       -1.026209   -3.617321    1.436964
     14          6           0        0.147852   -3.969205    0.569981
     15          8           0        0.489361   -3.371894   -0.572360
     16          8           0        0.997260   -4.706838    1.301461
     17          7           0       -4.962804    2.636664    1.438508
     18          6           0       -4.048288    2.414830    2.507820
     19          6           0       -3.737750    3.689571    3.175134
     20          6           0       -4.525039    4.601165    2.512295
     21          6           0       -5.333677    3.887224    1.517310
     22          6           0       -2.769546    3.819893    4.290324
     23          6           0       -4.652374    6.013577    2.929285
     24          8           0       -3.930655    6.580020    3.778855
     25          7           0       -6.871698    2.627991   -0.724519
     26          6           0       -6.955669    3.950312   -0.422753
     27          6           0       -7.991837    4.592555   -1.224355
     28          6           0       -8.514442    3.549540   -2.052092
     29          6           0       -7.801190    2.402549   -1.775457
     30          6           0       -8.327572    6.110254   -1.285944
     31          6           0       -9.489925    3.702890   -3.115903
     32          6           0       -8.732068    3.709613   -4.581667
     33          7           0       -6.388249   -0.108546   -1.119792
     34          6           0       -7.292344   -0.031751   -2.036338
     35          6           0       -7.576764   -1.344043   -2.610467
     36          6           0       -6.759483   -2.291466   -1.989176
     37          6           0       -6.089549   -1.395364   -1.033402
     38          6           0       -8.526411   -1.703225   -3.755345
     39          6           0       -6.116608   -3.585298   -1.978462
     40          8           0       -6.382529   -4.607066   -2.645351
     41          6           0       -5.011245   -3.537893   -0.989703
     42          6           0       -5.141984   -4.674308    0.045087
     43          8           0       -5.646046   -4.540988    1.135587
     44          8           0       -4.776629   -5.864324   -0.471168
     45          6           0       -5.035983   -6.959141    0.396238
     46          6           0        2.289668   -5.022251    0.669666
     47          6           0        3.304341   -4.015681    1.107100
     48          6           0        3.948034   -3.143255    0.289195
     49          6           0        3.624058   -3.140033   -1.264466
     50          6           0        5.008883   -2.295231    0.788948
     51          6           0        6.470123   -2.498283    0.199003
     52          6           0        7.578260   -1.635935    0.636249
     53          6           0        8.876378   -1.860030   -0.144642
     54          6           0        9.474586   -3.225508    0.237222
     55          6           0        9.839370   -0.700804    0.315472
     56          6           0       11.260850   -0.714578   -0.165724
     57          6           0       12.121933    0.469413    0.195913
     58          6           0       13.550647    0.480460   -0.446884
     59          6           0       14.452390   -0.714906   -0.125719
     60          6           0       14.267994    1.804787   -0.060362
     61          6           0       15.520214    2.064701   -0.907482
     62          6           0       16.194913    3.488549   -0.751141
     63          6           0       17.459810    3.609556   -1.499511
     64          6           0       17.368734    3.591545   -3.004276
     65          6           0       18.144847    4.942990   -1.106145
     66          1           0       -2.861415    1.234145    3.574252
     67          1           0       -6.325554    5.478108    0.798967
     68          1           0       -8.732479    1.417722   -2.985700
     69          1           0       -3.742294   -3.232200    2.133920
     70          1           0       -1.926103   -0.899937    2.482931
     71          1           0       -2.822154   -2.725788    4.109887
     72          1           0       -2.890917   -1.298528    4.944461
     73          1           0       -4.479349   -1.983172    4.205292
     74          1           0       -2.404574   -3.255403   -0.241066
     75          1           0       -1.680166   -2.005125    0.122366
     76          1           0       -0.641015   -3.197404    2.287328
     77          1           0       -1.592127   -4.481277    1.607501
     78          1           0       -1.896302    3.522649    3.802920
     79          1           0       -2.581642    4.719165    4.803616
     80          1           0       -3.266214    3.296828    5.279858
     81          1           0       -5.496893    6.665782    2.267727
     82          1           0      -10.099860    2.793970   -3.143199
     83          1           0      -10.320385    4.615839   -3.099184
     84          1           0       -9.637037    3.721469   -5.293306
     85          1           0       -8.183376    4.522248   -4.429272
     86          1           0       -8.212605    2.830323   -4.918108
     87          1           0       -8.324272   -1.136002   -4.715958
     88          1           0       -8.450996   -2.757235   -3.748769
     89          1           0       -9.566753   -1.449190   -3.572848
     90          1           0       -4.170254   -3.868159   -1.465277
     91          1           0        2.368062   -5.838928    1.004830
     92          1           0        2.005624   -5.005806   -0.341109
     93          1           0        3.494293   -4.158225    2.172613
     94          1           0        2.666501   -3.402328   -1.408815
     95          1           0        3.610391   -2.017713   -1.542979
     96          1           0        4.297472   -3.700054   -2.017091
     97          1           0        4.788269   -1.241480    0.599291
     98          1           0        5.152911   -2.379066    1.799490
     99          1           0        6.626932   -3.685681    0.180468
    100          1           0        6.354587   -2.537649   -0.813946
    101          1           0        7.447035   -0.646746    0.508315
    102          1           0        7.624853   -1.512677    1.701185
    103          1           0        8.619901   -1.627932   -1.147173
    104          1           0        8.880264   -4.136009    0.141919
    105          1           0       10.361727   -3.306290   -0.341095
    106          1           0       10.096581   -2.930657    1.356948
    107          1           0        9.530094    0.354920    0.089863
    108          1           0        9.949575   -0.817511    1.667030
    109          1           0       11.680193   -1.694657    0.099626
    110          1           0       11.159485   -1.053847   -1.394457
    111          1           0       11.610789    1.449773   -0.307820
    112          1           0       12.114164    0.762149    1.322075
    113          1           0       13.364328    0.626542   -1.522612
    114          1           0       14.540599   -0.686574    0.875784
    115          1           0       14.055243   -1.878002   -0.572973
    116          1           0       15.465979   -0.411762   -0.457834
    117          1           0       13.596062    2.654115    0.028084
    118          1           0       14.373757    1.799230    1.039639
    119          1           0       16.346394    1.544586   -0.590699
    120          1           0       15.378220    1.893953   -1.904925
    121          1           0       15.562653    4.317953   -0.909835
    122          1           0       16.590113    3.421478    0.391382
    123          1           0       18.150102    2.711095   -1.197001
    124          1           0       16.728826    4.431826   -3.493046
    125          1           0       18.375396    3.988533   -3.584887
    126          1           0       17.098128    2.559088   -3.406346
    127          1           0       18.251173    4.976638    0.005863
    128          1           0       19.322314    5.119686   -1.466706
    129          1           0       17.600180    5.851036   -1.554025
    130          1           0       -4.734385   -7.755776   -0.049743
    131          1           0       -6.116322   -7.058928    0.807471
    132          1           0       -4.607946   -7.036351    1.432103
    133          8           0       -7.881723    6.879219   -0.549146
    134          1           0       -9.184255    6.215689   -2.032851
 ---------------------------------------------------------------------

 SCF Done:  E(RCAM-B3LYP) =  -3043.32602114     A.U. after   16 cycles

 Excitation energies and oscillator strengths:

 Excited State   1:      Singlet-A      2.0765 eV  597.09 nm  f=0.1601  <S**2>=0.000
     243 -> 246        0.28912
     244 -> 245        0.63913
 This state for optimization and/or second-order correction.
 Total Energy, E(TD-HF/TD-KS) =  -3043.24971216
 Copying the excited state density for this state as the 1-particle RhoCI density.

 The electronic state is 1-A.
 Alpha  occ. eigenvalues --  -46.81234 -19.24110 -19.22937 -19.18290 -19.17746
 Alpha  occ. eigenvalues --  -19.17139 -19.16990 -19.16401 -14.39528 -14.37179
 Alpha  occ. eigenvalues --  -14.36454 -14.35754 -10.35861 -10.35562 -10.31320
 Alpha  occ. eigenvalues --  -10.31262 -10.31160 -10.27898 -10.27640 -10.26783
 Alpha  occ. eigenvalues --  -10.26245 -10.26120 -10.26044 -10.25996 -10.25863
 Alpha  occ. eigenvalues --  -10.25055 -10.25011 -10.24964 -10.24853 -10.24821
 Alpha  occ. eigenvalues --  -10.24814 -10.24718 -10.24642 -10.24573 -10.23935
 Alpha  occ. eigenvalues --  -10.23821 -10.23630 -10.23410 -10.23354 -10.23110
 Alpha  occ. eigenvalues --  -10.23056 -10.22989 -10.22606 -10.22545 -10.22516
 Alpha  occ. eigenvalues --  -10.22422 -10.22363 -10.22347 -10.22241 -10.22157
 Alpha  occ. eigenvalues --  -10.22157 -10.22150 -10.21983 -10.21981 -10.21886
 Alpha  occ. eigenvalues --  -10.21694 -10.21668 -10.21411 -10.21310 -10.21149
 Alpha  occ. eigenvalues --  -10.21112 -10.21096 -10.20895 -10.20733 -10.19980
 Alpha  occ. eigenvalues --  -10.19324  -3.09936  -1.84871  -1.84400  -1.84359
 Alpha  occ. eigenvalues --   -1.14888  -1.12526  -1.11101  -1.05796  -1.05130
 Alpha  occ. eigenvalues --   -1.04630  -1.03049  -1.01411  -0.99971  -0.99915
 Alpha  occ. eigenvalues --   -0.98128  -0.89272  -0.86624  -0.86480  -0.86120
 Alpha  occ. eigenvalues --   -0.85600  -0.85377  -0.84973  -0.83844  -0.83680
 Alpha  occ. eigenvalues --   -0.82954  -0.82797  -0.82602  -0.80973  -0.80211
 Alpha  occ. eigenvalues --   -0.79283  -0.78358  -0.77588  -0.77033  -0.76815
 Alpha  occ. eigenvalues --   -0.75557  -0.75338  -0.74737  -0.74103  -0.72606
 Alpha  occ. eigenvalues --   -0.72014  -0.70635  -0.70498  -0.70111  -0.69718
 Alpha  occ. eigenvalues --   -0.69298  -0.69084  -0.68182  -0.67086  -0.67024
 Alpha  occ. eigenvalues --   -0.65734  -0.65200  -0.65046  -0.63741  -0.62823
 Alpha  occ. eigenvalues --   -0.61690  -0.61585  -0.60887  -0.60742  -0.59669
 Alpha  occ. eigenvalues --   -0.58973  -0.58070  -0.57855  -0.57669  -0.57211
 Alpha  occ. eigenvalues --   -0.57024  -0.56417  -0.56087  -0.55417  -0.55029
 Alpha  occ. eigenvalues --   -0.54565  -0.53991  -0.53413  -0.52739  -0.52558
 Alpha  occ. eigenvalues --   -0.52053  -0.51784  -0.51551  -0.51159  -0.51082
 Alpha  occ. eigenvalues --   -0.50518  -0.50407  -0.50327  -0.49997  -0.49514
 Alpha  occ. eigenvalues --   -0.49069  -0.48959  -0.48668  -0.48345  -0.48250
 Alpha  occ. eigenvalues --   -0.48195  -0.47791  -0.47214  -0.46981  -0.46764
 Alpha  occ. eigenvalues --   -0.46474  -0.46363  -0.46252  -0.46134  -0.45960
 Alpha  occ. eigenvalues --   -0.45708  -0.45567  -0.45299  -0.44948  -0.44796
 Alpha  occ. eigenvalues --   -0.44682  -0.44480  -0.44327  -0.44075  -0.43910
 Alpha  occ. eigenvalues --   -0.43773  -0.43491  -0.43467  -0.43129  -0.43000
 Alpha  occ. eigenvalues --   -0.42935  -0.42830  -0.42722  -0.42477  -0.42430
 Alpha  occ. eigenvalues --   -0.42195  -0.41600  -0.41307  -0.41205  -0.41169
 Alpha  occ. eigenvalues --   -0.40709  -0.40495  -0.40475  -0.40330  -0.40176
 Alpha  occ. eigenvalues --   -0.39849  -0.39519  -0.39321  -0.39277  -0.39159
 Alpha  occ. eigenvalues --   -0.38979  -0.38794  -0.38570  -0.38429  -0.38418
 Alpha  occ. eigenvalues --   -0.38264  -0.37883  -0.37681  -0.37477  -0.37100
 Alpha  occ. eigenvalues --   -0.36441  -0.36317  -0.36193  -0.35711  -0.35391
 Alpha  occ. eigenvalues --   -0.35010  -0.34836  -0.34813  -0.34522  -0.34342
 Alpha  occ. eigenvalues --   -0.34294  -0.33887  -0.33768  -0.33693  -0.33404
 Alpha  occ. eigenvalues --   -0.33090  -0.32368  -0.32217  -0.31911  -0.31780
 Alpha  occ. eigenvalues --   -0.31731  -0.31144  -0.30996  -0.30004  -0.29669
 Alpha  occ. eigenvalues --   -0.28597  -0.28427  -0.28182  -0.27899  -0.27468
 Alpha  occ. eigenvalues --   -0.27347  -0.26928  -0.22581  -0.21101
 Alpha virt. eigenvalues --   -0.07821  -0.06372  -0.02361  -0.00272   0.00547
 Alpha virt. eigenvalues --    0.00894   0.02985   0.03087   0.03682   0.04003
 Alpha virt. eigenvalues --    0.05353   0.05720   0.08424   0.08455   0.08581

 Mulliken charges:
               1
     1  Mg   0.824725
     2  C    0.089648
     3  C   -0.179033
     4  C   -0.106872
     5  C   -0.085526
     6  N   -0.619770
     7  C    0.278240
     8  C   -0.166079
     9  C   -0.126309
    10  C    0.314883
    11  C   -0.321370
    12  C   -0.184117
    13  C   -0.239738
    14  C    0.577738
    15  O   -0.514185
    16  O   -0.468707
    17  N   -0.699456
    18  C    0.330433
    19  C    0.069130
    20  C   -0.055923
    21  C    0.331769
    22  C   -0.359913
    23  C    0.237176
    24  O   -0.429771
    25  N   -0.707091
    26  C    0.287816
    27  C   -0.083676
    28  C    0.073584
    29  C    0.275342
    30  C    0.275758
    31  C   -0.309912
    32  C   -0.305143
    33  N   -0.675202
    34  C    0.299160
    35  C   -0.051431
    36  C    0.079553
    37  C    0.218161
    38  C   -0.375808
    39  C    0.361670
    40  O   -0.483751
    41  C   -0.290492
    42  C    0.620551
    43  O   -0.461800
    44  O   -0.428349
    45  C   -0.086728
    46  C    0.060278
    47  C   -0.139070
    48  C    0.137127
    49  C   -0.373874
    50  C   -0.233626
    51  C   -0.185820
    52  C   -0.147697
    53  C   -0.054978
    54  C   -0.296996
    55  C   -0.157505
    56  C   -0.156364
    57  C   -0.174855
    58  C   -0.048881
    59  C   -0.288958
    60  C   -0.195131
    61  C   -0.172853
    62  C   -0.167670
    63  C   -0.036674
    64  C   -0.297907
    65  C   -0.295538
    66  H    0.070748
    67  H    0.062484
    68  H    0.036683
    69  H    0.110441
    70  H    0.108275
    71  H    0.122174
    72  H    0.114630
    73  H    0.112635
    74  H    0.097216
    75  H    0.130759
    76  H    0.151649
    77  H    0.144835
    78  H    0.135745
    79  H    0.164403
    80  H    0.106832
    81  H    0.062128
    82  H    0.118554
    83  H    0.104463
    84  H    0.102918
    85  H    0.134174
    86  H    0.123819
    87  H    0.118988
    88  H    0.148619
    89  H    0.121792
    90  H    0.168464
    91  H    0.095657
    92  H    0.128468
    93  H    0.084480
    94  H    0.160501
    95  H    0.097111
    96  H    0.106498
    97  H    0.100831
    98  H    0.105918
    99  H    0.061031
   100  H    0.104608
   101  H    0.096080
   102  H    0.087783
   103  H    0.100561
   104  H    0.115163
   105  H    0.111543
   106  H    0.068533
   107  H    0.090088
   108  H    0.022926
   109  H    0.100337
   110  H    0.044787
   111  H    0.069318
   112  H    0.086099
   113  H    0.090640
   114  H    0.118028
   115  H    0.069568
   116  H    0.102440
   117  H    0.091731
   118  H    0.081266
   119  H    0.107009
   120  H    0.104983
   121  H    0.095224
   122  H    0.067961
   123  H    0.076340
   124  H    0.090780
   125  H    0.079192
   126  H    0.097004
   127  H    0.097818
   128  H    0.070408
   129  H    0.098212
   130  H    0.126404
   131  H    0.122835
   132  H    0.113624
   133  O   -0.367892
   134  H    0.052478
 Sum of Mulliken charges =   0.00000

 Dipole moment (field-independent basis, Debye):
    X=              2.6918    Y=             -4.2182    Z=              0.4973  Tot=              5.0285
 Quadrupole moment (field-independent basis, Debye-Ang):
   XX=           -380.1439   YY=           -437.0384   ZZ=           -391.7685
   XY=              6.0385   XZ=             14.4910   YZ=            -36.7134

 Normal termination of Gaussian 09 at Thu Oct  3 22:33:00 2019.
