 Gaussian 09, Revision D.01,
 Gaussian 09:  ES64L-G09RevD.01 24-Apr-2013

 ----------------------------------------------------------------------
 # td=(NStates=1) iop(3/107=0140000000,3/108=0140000000) iop(3/107=0140
 000000,3/108=0140000000) CAM-B3LYP/6-31G(d,p)
 ----------------------------------------------------------------------

 --
 TD
 --
 Symbolic Z-matrix:
 Charge =  0 Multiplicity = 1

                         Standard orientation:
 ---------------------------------------------------------------------
 Center     Atomic      Atomic             Coordinates (Angstroms)
 Number     Number       Type             X           Y           Z
 ---------------------------------------------------------------------
      1         12           0       -5.698439    1.245139    0.279021
      2          6           0       -4.941560   -2.163156   -0.488167
      3          6           0       -3.507253    0.988524    2.911784
      4          6           0       -6.223361    4.591592    0.750650
      5          6           0       -7.991483    1.258916   -2.338498
      6          7           0       -4.374892   -0.343074    0.989829
      7          6           0       -4.201753   -1.661271    0.518407
      8          6           0       -3.161922   -2.414283    1.377775
      9          6           0       -2.977678   -1.491522    2.517845
     10          6           0       -3.574352   -0.205252    2.052898
     11          6           0       -3.469129   -1.953942    3.898027
     12          6           0       -1.907033   -2.703443    0.615019
     13          6           0       -0.915597   -3.531292    1.477739
     14          6           0        0.344891   -3.913320    0.631456
     15          8           0        0.545273   -3.457894   -0.470928
     16          8           0        1.134477   -4.749369    1.306494
     17          7           0       -4.937871    2.627434    1.412169
     18          6           0       -4.067723    2.291287    2.475681
     19          6           0       -3.739080    3.528316    3.219635
     20          6           0       -4.538028    4.575929    2.693887
     21          6           0       -5.286070    4.004654    1.511895
     22          6           0       -2.798161    3.592561    4.230066
     23          6           0       -4.482266    5.976194    3.109673
     24          8           0       -3.877588    6.440141    4.075752
     25          7           0       -6.834097    2.636701   -0.616544
     26          6           0       -6.945812    3.970232   -0.275823
     27          6           0       -7.854243    4.659505   -1.195198
     28          6           0       -8.473857    3.674283   -1.946453
     29          6           0       -7.741410    2.458692   -1.702362
     30          6           0       -8.078826    6.149981   -1.103394
     31          6           0       -9.331971    3.991763   -3.123684
     32          6           0       -8.795242    3.949850   -4.503392
     33          7           0       -6.348684   -0.075611   -1.147361
     34          6           0       -7.373865    0.034374   -2.108730
     35          6           0       -7.574963   -1.300314   -2.706423
     36          6           0       -6.700345   -2.132455   -2.146530
     37          6           0       -5.865347   -1.336358   -1.188188
     38          6           0       -8.516786   -1.488487   -3.824938
     39          6           0       -6.258216   -3.490981   -2.116468
     40          8           0       -6.706913   -4.454567   -2.716888
     41          6           0       -5.081078   -3.507563   -1.087379
     42          6           0       -5.193305   -4.600093   -0.103287
     43          8           0       -5.741866   -4.463636    0.985048
     44          8           0       -4.923899   -5.822435   -0.580702
     45          6           0       -5.312179   -6.941207    0.326233
     46          6           0        2.374133   -5.113803    0.593316
     47          6           0        3.426325   -4.135298    1.082862
     48          6           0        4.075106   -3.237855    0.325381
     49          6           0        3.736301   -2.974705   -1.186741
     50          6           0        5.163055   -2.413502    0.872894
     51          6           0        6.568089   -2.765255    0.378181
     52          6           0        7.572543   -1.840288    0.688296
     53          6           0        8.941235   -1.965163    0.098002
     54          6           0        9.569905   -3.312282    0.373753
     55          6           0        9.871766   -0.924424    0.510429
     56          6           0       11.186751   -0.749775   -0.372844
     57          6           0       12.153050    0.289528    0.125959
     58          6           0       13.476144    0.515556   -0.625981
     59          6           0       14.395126   -0.767078   -0.301496
     60          6           0       14.187240    1.782667   -0.319525
     61          6           0       15.421948    2.096066   -1.106663
     62          6           0       15.955906    3.507897   -0.867399
     63          6           0       17.281301    3.877901   -1.449289
     64          6           0       17.178016    4.132666   -2.949106
     65          6           0       17.768289    5.235218   -0.834397
     66          1           0       -3.126213    0.758597    3.866275
     67          1           0       -6.504089    5.752710    0.782683
     68          1           0       -8.678035    1.268115   -3.108033
     69          1           0       -3.714998   -3.319870    1.641579
     70          1           0       -1.870012   -1.404532    2.682117
     71          1           0       -2.988516   -2.813816    4.244759
     72          1           0       -3.433487   -0.983464    4.718644
     73          1           0       -4.510446   -2.263333    3.604065
     74          1           0       -1.975438   -3.374103   -0.416507
     75          1           0       -1.057636   -1.808611    0.203053
     76          1           0       -0.550912   -2.925158    2.486624
     77          1           0       -1.525512   -4.468292    1.695704
     78          1           0       -1.909362    3.139654    3.916020
     79          1           0       -2.296098    4.689806    4.590992
     80          1           0       -3.214232    3.096507    5.258726
     81          1           0       -5.238461    6.678835    2.465001
     82          1           0      -10.141361    3.291475   -3.218380
     83          1           0       -9.768818    4.944256   -3.128513
     84          1           0       -9.524277    4.104500   -5.289284
     85          1           0       -7.936566    4.546487   -4.656618
     86          1           0       -8.223195    3.003565   -4.677579
     87          1           0       -8.304059   -0.812622   -4.747126
     88          1           0       -8.620879   -2.463745   -4.075889
     89          1           0       -9.641889   -1.286481   -3.374111
     90          1           0       -4.229055   -3.759389   -1.675985
     91          1           0        2.539318   -6.027765    1.042259
     92          1           0        2.253146   -5.157248   -0.398774
     93          1           0        3.430359   -4.424064    2.055930
     94          1           0        2.763578   -3.518620   -1.486913
     95          1           0        3.789672   -1.927395   -1.273311
     96          1           0        4.447799   -3.514313   -1.902764
     97          1           0        4.947605   -1.442201    1.061636
     98          1           0        5.021609   -2.592993    1.972880
     99          1           0        6.795869   -3.729133    0.582224
    100          1           0        6.562334   -2.772798   -0.761640
    101          1           0        7.243539   -0.624453    0.460597
    102          1           0        7.754826   -1.916139    1.756101
    103          1           0        8.831826   -1.769500   -1.037236
    104          1           0        8.970987   -4.046888   -0.151521
    105          1           0       10.611599   -3.579049    0.177927
    106          1           0        9.612074   -3.315082    1.546498
    107          1           0        9.236507    0.026164    0.535554
    108          1           0       10.300754   -1.044442    1.534573
    109          1           0       11.877466   -1.591985   -0.309656
    110          1           0       10.844995   -0.545268   -1.425686
    111          1           0       11.537787    1.342050   -0.068582
    112          1           0       12.170369    0.289336    1.269940
    113          1           0       13.156077    0.688477   -1.768496
    114          1           0       14.301006   -0.757913    0.709901
    115          1           0       13.911555   -1.604009   -0.769210
    116          1           0       15.248346   -0.821135   -0.689564
    117          1           0       13.318810    2.690163   -0.556248
    118          1           0       14.538690    1.711778    0.882235
    119          1           0       16.131854    1.623096   -0.768410
    120          1           0       15.124119    1.981180   -2.234981
    121          1           0       14.878204    4.367225   -1.010239
    122          1           0       16.094567    3.492490    0.276456
    123          1           0       18.111604    3.070838   -1.371242
    124          1           0       16.209972    4.690315   -3.020735
    125          1           0       17.982060    4.562400   -3.475049
    126          1           0       16.716430    3.315808   -3.536049
    127          1           0       17.639894    4.972308    0.154432
    128          1           0       18.795831    5.430976   -1.113424
    129          1           0       17.145502    5.946147   -1.230193
    130          1           0       -5.064823   -7.796312   -0.290077
    131          1           0       -6.244372   -7.030675    0.533797
    132          1           0       -4.718347   -7.090598    1.151105
    133          8           0       -7.618928    6.892495   -0.271171
    134          1           0       -9.075199    6.311722   -1.650331
 ---------------------------------------------------------------------

 SCF Done:  E(RCAM-B3LYP) =  -3043.37136374     A.U. after   15 cycles

 Excitation energies and oscillator strengths:

 Excited State   1:      Singlet-A      2.0346 eV  609.37 nm  f=0.1542  <S**2>=0.000
     243 -> 246        0.27125
     244 -> 245        0.64264
 This state for optimization and/or second-order correction.
 Total Energy, E(TD-HF/TD-KS) =  -3043.29659304
 Copying the excited state density for this state as the 1-particle RhoCI density.

 The electronic state is 1-A.
 Alpha  occ. eigenvalues --  -46.80398 -19.23162 -19.22857 -19.18787 -19.17562
 Alpha  occ. eigenvalues --  -19.17149 -19.16738 -19.16643 -14.39143 -14.37217
 Alpha  occ. eigenvalues --  -14.36883 -14.36597 -10.35246 -10.34870 -10.31630
 Alpha  occ. eigenvalues --  -10.31415 -10.30527 -10.28396 -10.28114 -10.27227
 Alpha  occ. eigenvalues --  -10.26670 -10.26251 -10.26206 -10.25871 -10.25815
 Alpha  occ. eigenvalues --  -10.25814 -10.25768 -10.25548 -10.25430 -10.24685
 Alpha  occ. eigenvalues --  -10.24612 -10.24525 -10.24380 -10.24080 -10.24032
 Alpha  occ. eigenvalues --  -10.23934 -10.23826 -10.23740 -10.23680 -10.23678
 Alpha  occ. eigenvalues --  -10.23540 -10.23323 -10.23318 -10.23213 -10.22981
 Alpha  occ. eigenvalues --  -10.22748 -10.22671 -10.22666 -10.22248 -10.22231
 Alpha  occ. eigenvalues --  -10.22005 -10.21729 -10.21726 -10.21676 -10.21603
 Alpha  occ. eigenvalues --  -10.21204 -10.21148 -10.21109 -10.21031 -10.20939
 Alpha  occ. eigenvalues --  -10.20893 -10.20717 -10.19935 -10.19221 -10.18536
 Alpha  occ. eigenvalues --  -10.18329  -3.09201  -1.84114  -1.83676  -1.83626
 Alpha  occ. eigenvalues --   -1.13897  -1.13404  -1.08750  -1.06856  -1.05487
 Alpha  occ. eigenvalues --   -1.05362  -1.03748  -1.00415  -0.98925  -0.97963
 Alpha  occ. eigenvalues --   -0.96619  -0.89356  -0.87821  -0.86642  -0.86004
 Alpha  occ. eigenvalues --   -0.85840  -0.85534  -0.84412  -0.84132  -0.83886
 Alpha  occ. eigenvalues --   -0.83360  -0.82640  -0.82062  -0.81064  -0.80154
 Alpha  occ. eigenvalues --   -0.79470  -0.79210  -0.78468  -0.77635  -0.77315
 Alpha  occ. eigenvalues --   -0.75952  -0.74975  -0.74539  -0.73965  -0.72214
 Alpha  occ. eigenvalues --   -0.72003  -0.71660  -0.71329  -0.70385  -0.69896
 Alpha  occ. eigenvalues --   -0.69466  -0.68667  -0.66945  -0.66866  -0.66279
 Alpha  occ. eigenvalues --   -0.65644  -0.64842  -0.64536  -0.63491  -0.62101
 Alpha  occ. eigenvalues --   -0.61520  -0.61182  -0.59931  -0.59651  -0.59190
 Alpha  occ. eigenvalues --   -0.58736  -0.57860  -0.57793  -0.57309  -0.56780
 Alpha  occ. eigenvalues --   -0.56427  -0.56064  -0.55471  -0.54831  -0.54450
 Alpha  occ. eigenvalues --   -0.53888  -0.53382  -0.52838  -0.52660  -0.52142
 Alpha  occ. eigenvalues --   -0.52035  -0.51941  -0.51690  -0.51446  -0.51249
 Alpha  occ. eigenvalues --   -0.50665  -0.50284  -0.50243  -0.50091  -0.49675
 Alpha  occ. eigenvalues --   -0.49247  -0.48904  -0.48787  -0.48689  -0.48328
 Alpha  occ. eigenvalues --   -0.48001  -0.47499  -0.47412  -0.47358  -0.47197
 Alpha  occ. eigenvalues --   -0.46964  -0.46897  -0.46774  -0.46507  -0.46315
 Alpha  occ. eigenvalues --   -0.46049  -0.45660  -0.45373  -0.45285  -0.45136
 Alpha  occ. eigenvalues --   -0.45046  -0.44906  -0.44626  -0.44423  -0.44277
 Alpha  occ. eigenvalues --   -0.44020  -0.43504  -0.43405  -0.43174  -0.43110
 Alpha  occ. eigenvalues --   -0.42574  -0.42549  -0.42385  -0.42206  -0.42067
 Alpha  occ. eigenvalues --   -0.41791  -0.41696  -0.41337  -0.40979  -0.40943
 Alpha  occ. eigenvalues --   -0.40585  -0.40559  -0.40528  -0.40488  -0.40161
 Alpha  occ. eigenvalues --   -0.39919  -0.39857  -0.39728  -0.39627  -0.39370
 Alpha  occ. eigenvalues --   -0.39041  -0.38938  -0.38635  -0.38582  -0.38420
 Alpha  occ. eigenvalues --   -0.37835  -0.37735  -0.37391  -0.37293  -0.36459
 Alpha  occ. eigenvalues --   -0.36279  -0.36075  -0.35825  -0.35494  -0.35353
 Alpha  occ. eigenvalues --   -0.35003  -0.34780  -0.34575  -0.34470  -0.33964
 Alpha  occ. eigenvalues --   -0.33892  -0.33628  -0.33435  -0.33203  -0.33097
 Alpha  occ. eigenvalues --   -0.32814  -0.32692  -0.32398  -0.31915  -0.31855
 Alpha  occ. eigenvalues --   -0.31034  -0.30934  -0.30852  -0.30407  -0.29816
 Alpha  occ. eigenvalues --   -0.28979  -0.28507  -0.28124  -0.27886  -0.27793
 Alpha  occ. eigenvalues --   -0.27236  -0.26864  -0.22919  -0.21402
 Alpha virt. eigenvalues --   -0.08168  -0.06590  -0.01903  -0.01245   0.00390
 Alpha virt. eigenvalues --    0.02658   0.03024   0.03301   0.03983   0.04517
 Alpha virt. eigenvalues --    0.05378   0.05963   0.07970   0.08411   0.08412

 Mulliken charges:
               1
     1  Mg   0.838279
     2  C    0.129337
     3  C   -0.196521
     4  C   -0.203388
     5  C   -0.149707
     6  N   -0.608785
     7  C    0.274870
     8  C   -0.149717
     9  C   -0.156740
    10  C    0.361922
    11  C   -0.293677
    12  C   -0.162985
    13  C   -0.257631
    14  C    0.605409
    15  O   -0.460509
    16  O   -0.460992
    17  N   -0.740434
    18  C    0.313175
    19  C    0.095092
    20  C   -0.014100
    21  C    0.312694
    22  C   -0.412061
    23  C    0.235389
    24  O   -0.420202
    25  N   -0.699500
    26  C    0.309753
    27  C   -0.054906
    28  C    0.022103
    29  C    0.288250
    30  C    0.265993
    31  C   -0.246026
    32  C   -0.317073
    33  N   -0.727723
    34  C    0.265993
    35  C    0.030914
    36  C    0.049115
    37  C    0.272077
    38  C   -0.373403
    39  C    0.360731
    40  O   -0.461220
    41  C   -0.324653
    42  C    0.617294
    43  O   -0.492036
    44  O   -0.457080
    45  C   -0.087564
    46  C   -0.010652
    47  C   -0.099479
    48  C    0.103258
    49  C   -0.360388
    50  C   -0.238562
    51  C   -0.152044
    52  C   -0.144125
    53  C   -0.050178
    54  C   -0.305987
    55  C   -0.160024
    56  C   -0.163885
    57  C   -0.172738
    58  C   -0.056303
    59  C   -0.307491
    60  C   -0.132702
    61  C   -0.117118
    62  C   -0.152284
    63  C   -0.076828
    64  C   -0.310242
    65  C   -0.287590
    66  H    0.087912
    67  H    0.163975
    68  H    0.084608
    69  H    0.135561
    70  H    0.106032
    71  H    0.127161
    72  H    0.086917
    73  H    0.126099
    74  H    0.100841
    75  H    0.100580
    76  H    0.111873
    77  H    0.122521
    78  H    0.134352
    79  H    0.137125
    80  H    0.113388
    81  H    0.057642
    82  H    0.111976
    83  H    0.116442
    84  H    0.114977
    85  H    0.116745
    86  H    0.093862
    87  H    0.126125
    88  H    0.151782
    89  H    0.099873
    90  H    0.163666
    91  H    0.118149
    92  H    0.125530
    93  H    0.086518
    94  H    0.132798
    95  H    0.124649
    96  H    0.106641
    97  H    0.113426
    98  H    0.086769
    99  H    0.115152
   100  H    0.082021
   101  H    0.052004
   102  H    0.086570
   103  H    0.067470
   104  H    0.101535
   105  H    0.111135
   106  H    0.081577
   107  H    0.074312
   108  H    0.076563
   109  H    0.094827
   110  H    0.089027
   111  H    0.048853
   112  H    0.084280
   113  H    0.063048
   114  H    0.114277
   115  H    0.103004
   116  H    0.105818
   117  H    0.052111
   118  H    0.044219
   119  H    0.103505
   120  H    0.079177
   121  H    0.030608
   122  H    0.077737
   123  H    0.080632
   124  H    0.092226
   125  H    0.106340
   126  H    0.088528
   127  H    0.103005
   128  H    0.097430
   129  H    0.115765
   130  H    0.122172
   131  H    0.150770
   132  H    0.131988
   133  O   -0.402034
   134  H    0.063435
 Sum of Mulliken charges =   0.00000

 Dipole moment (field-independent basis, Debye):
    X=              2.7989    Y=             -6.5563    Z=             -0.9697  Tot=              7.1944
 Quadrupole moment (field-independent basis, Debye-Ang):
   XX=           -367.0042   YY=           -432.0695   ZZ=           -396.1193
   XY=             -5.7894   XZ=             21.7566   YZ=            -39.8129

 Normal termination of Gaussian 09 at Sat Oct  5 10:34:56 2019.
