 Gaussian 09, Revision D.01,
 Gaussian 09:  ES64L-G09RevD.01 24-Apr-2013

 ----------------------------------------------------------------------
 # td=(NStates=1) iop(3/107=0140000000,3/108=0140000000) iop(3/107=0140
 000000,3/108=0140000000) CAM-B3LYP/6-31G(d,p)
 ----------------------------------------------------------------------

 --
 TD
 --
 Symbolic Z-matrix:
 Charge =  0 Multiplicity = 1

                         Standard orientation:
 ---------------------------------------------------------------------
 Center     Atomic      Atomic             Coordinates (Angstroms)
 Number     Number       Type             X           Y           Z
 ---------------------------------------------------------------------
      1         12           0       -5.609963    1.291017    0.131217
      2          6           0       -5.082898   -2.111753   -0.430309
      3          6           0       -3.303291    1.090923    2.703272
      4          6           0       -6.061409    4.546602    0.755014
      5          6           0       -7.998695    1.261449   -2.290314
      6          7           0       -4.343279   -0.336026    0.925028
      7          6           0       -4.196826   -1.667920    0.634819
      8          6           0       -3.295600   -2.402262    1.456545
      9          6           0       -3.017962   -1.494482    2.673200
     10          6           0       -3.520171   -0.107932    2.086532
     11          6           0       -3.744586   -1.915026    3.872732
     12          6           0       -1.997910   -2.686737    0.599104
     13          6           0       -0.963597   -3.509421    1.420460
     14          6           0        0.232755   -3.785948    0.622336
     15          8           0        0.421157   -3.389580   -0.518371
     16          8           0        1.044734   -4.672203    1.237154
     17          7           0       -4.692283    2.618643    1.373133
     18          6           0       -3.934359    2.374577    2.391354
     19          6           0       -3.642975    3.531899    3.167396
     20          6           0       -4.399202    4.543639    2.576594
     21          6           0       -5.176820    3.944901    1.541318
     22          6           0       -2.802044    3.704746    4.337333
     23          6           0       -4.430830    5.892628    2.981226
     24          8           0       -3.653717    6.463220    3.828176
     25          7           0       -6.786519    2.631770   -0.695739
     26          6           0       -6.773096    3.977119   -0.299183
     27          6           0       -7.814214    4.681445   -1.143203
     28          6           0       -8.347207    3.775585   -1.974718
     29          6           0       -7.726023    2.445405   -1.711224
     30          6           0       -8.224021    6.110247   -1.049473
     31          6           0       -9.404256    3.935179   -3.022339
     32          6           0       -8.753692    4.239062   -4.451986
     33          7           0       -6.366276   -0.059786   -1.174753
     34          6           0       -7.408527    0.065279   -2.072093
     35          6           0       -7.693106   -1.191404   -2.678869
     36          6           0       -6.815457   -2.059152   -2.034020
     37          6           0       -6.003297   -1.380160   -1.163670
     38          6           0       -8.656040   -1.496564   -3.766538
     39          6           0       -6.381938   -3.526369   -2.049766
     40          8           0       -6.860437   -4.507880   -2.571435
     41          6           0       -5.142624   -3.541202   -1.016044
     42          6           0       -5.420432   -4.623220    0.024982
     43          8           0       -5.806747   -4.408182    1.162466
     44          8           0       -5.114170   -5.794909   -0.419706
     45          6           0       -5.483985   -6.953861    0.408053
     46          6           0        2.302368   -5.206259    0.606695
     47          6           0        3.362010   -4.262356    1.043452
     48          6           0        3.998584   -3.354373    0.249487
     49          6           0        3.691635   -3.253348   -1.221492
     50          6           0        5.122706   -2.519943    0.809974
     51          6           0        6.539842   -2.735623    0.032004
     52          6           0        7.643228   -1.860017    0.633748
     53          6           0        9.088411   -1.987198   -0.149159
     54          6           0        9.605478   -3.355545    0.068994
     55          6           0        9.943777   -0.845565    0.450057
     56          6           0       11.336668   -0.801590   -0.272494
     57          6           0       12.214469    0.336820    0.171272
     58          6           0       13.560251    0.426856   -0.630512
     59          6           0       14.441136   -0.847600   -0.475866
     60          6           0       14.213512    1.592119   -0.239242
     61          6           0       15.429115    2.090824   -1.170530
     62          6           0       15.970780    3.421654   -0.658475
     63          6           0       17.366285    3.892566   -1.287098
     64          6           0       17.280134    4.111082   -2.806147
     65          6           0       17.843226    5.173964   -0.634383
     66          1           0       -2.977251    1.201025    3.674042
     67          1           0       -6.274213    5.650928    0.748959
     68          1           0       -8.735511    1.290130   -3.047874
     69          1           0       -3.475753   -3.400907    1.772937
     70          1           0       -1.975457   -1.427878    3.128056
     71          1           0       -3.400389   -2.953021    4.240937
     72          1           0       -3.463578   -1.299451    4.652609
     73          1           0       -4.759678   -1.986071    3.812205
     74          1           0       -2.232846   -3.178151   -0.255935
     75          1           0       -1.643770   -1.634666    0.264073
     76          1           0       -0.553668   -2.899292    2.299418
     77          1           0       -1.297021   -4.496164    1.930006
     78          1           0       -1.757325    3.208764    3.950308
     79          1           0       -2.790344    4.830308    4.399080
     80          1           0       -3.115295    3.056729    5.342918
     81          1           0       -5.190438    6.666142    2.451254
     82          1           0       -9.923645    3.025156   -2.960252
     83          1           0       -9.976666    4.863794   -2.754269
     84          1           0       -9.644568    4.238718   -5.223438
     85          1           0       -8.295382    5.226782   -4.251314
     86          1           0       -7.994273    3.373118   -4.657317
     87          1           0       -8.664562   -0.843862   -4.773689
     88          1           0       -8.591734   -2.684303   -3.965743
     89          1           0       -9.640606   -1.312232   -3.483303
     90          1           0       -4.317133   -4.054753   -1.686289
     91          1           0        2.678169   -6.138363    1.062616
     92          1           0        2.099086   -5.125367   -0.473305
     93          1           0        3.680478   -4.376037    1.991047
     94          1           0        2.575271   -3.409388   -1.311002
     95          1           0        4.050113   -2.115373   -1.651789
     96          1           0        4.373721   -3.817176   -1.942977
     97          1           0        4.849804   -1.545670    0.715425
     98          1           0        5.263448   -2.655470    1.836291
     99          1           0        6.755650   -3.785578    0.197386
    100          1           0        6.632328   -2.396391   -1.114067
    101          1           0        7.319293   -0.802195    0.681909
    102          1           0        7.982530   -2.133834    1.627295
    103          1           0        8.984307   -1.843553   -1.187409
    104          1           0        8.920167   -4.295463   -0.156303
    105          1           0       10.603532   -3.287942   -0.508897
    106          1           0        9.646099   -3.474576    1.303310
    107          1           0        9.479875    0.218518    0.343388
    108          1           0        9.955772   -0.902824    1.561361
    109          1           0       11.798992   -1.704118    0.082917
    110          1           0       11.091584   -0.731565   -1.347338
    111          1           0       11.597579    1.365314    0.198217
    112          1           0       12.424170    0.238470    1.374604
    113          1           0       13.494318    0.675628   -1.558072
    114          1           0       14.889081   -0.781751    0.553308
    115          1           0       13.885650   -1.901858   -0.649355
    116          1           0       15.309577   -0.586572   -1.011717
    117          1           0       13.723476    2.530510   -0.350406
    118          1           0       14.643631    1.449587    0.776187
    119          1           0       16.297097    1.364384   -1.063024
    120          1           0       15.047473    1.976221   -2.193157
    121          1           0       15.390268    4.376065   -0.805340
    122          1           0       16.182935    3.334481    0.416945
    123          1           0       18.153815    3.171459   -1.243517
    124          1           0       16.527404    4.719768   -2.977702
    125          1           0       18.102080    4.543705   -3.253385
    126          1           0       17.107594    3.235781   -3.290922
    127          1           0       18.093201    5.103452    0.357676
    128          1           0       18.774406    5.581897   -1.288527
    129          1           0       16.881798    5.951757   -0.741672
    130          1           0       -5.412802   -7.727568   -0.360554
    131          1           0       -6.496611   -6.953551    0.568872
    132          1           0       -4.808311   -7.058133    1.369015
    133          8           0       -7.719746    6.983011   -0.311998
    134          1           0       -9.123150    6.287783   -1.676114
 ---------------------------------------------------------------------

 SCF Done:  E(RCAM-B3LYP) =  -3043.50323555     A.U. after   16 cycles

 Excitation energies and oscillator strengths:

 Excited State   1:      Singlet-A      1.9464 eV  636.99 nm  f=0.2402  <S**2>=0.000
     243 -> 246       -0.21549
     244 -> 245        0.66739
 This state for optimization and/or second-order correction.
 Total Energy, E(TD-HF/TD-KS) =  -3043.43170635
 Copying the excited state density for this state as the 1-particle RhoCI density.

 The electronic state is 1-A.
 Alpha  occ. eigenvalues --  -46.80931 -19.23100 -19.21224 -19.18297 -19.18039
 Alpha  occ. eigenvalues --  -19.16629 -19.16604 -19.15883 -14.39382 -14.37253
 Alpha  occ. eigenvalues --  -14.37175 -14.35612 -10.34671 -10.34248 -10.32215
 Alpha  occ. eigenvalues --  -10.31616 -10.30623 -10.28333 -10.28236 -10.28069
 Alpha  occ. eigenvalues --  -10.27722 -10.26902 -10.26249 -10.26073 -10.25965
 Alpha  occ. eigenvalues --  -10.25415 -10.25371 -10.25180 -10.25046 -10.24825
 Alpha  occ. eigenvalues --  -10.24652 -10.24552 -10.24517 -10.24484 -10.23990
 Alpha  occ. eigenvalues --  -10.23823 -10.23764 -10.23552 -10.23523 -10.23444
 Alpha  occ. eigenvalues --  -10.23304 -10.23078 -10.23077 -10.22903 -10.22808
 Alpha  occ. eigenvalues --  -10.22588 -10.22551 -10.22479 -10.22410 -10.22280
 Alpha  occ. eigenvalues --  -10.22278 -10.21550 -10.21515 -10.21500 -10.21441
 Alpha  occ. eigenvalues --  -10.21369 -10.21184 -10.20898 -10.20732 -10.20675
 Alpha  occ. eigenvalues --  -10.20641 -10.20634 -10.20090 -10.19525 -10.19441
 Alpha  occ. eigenvalues --  -10.16756  -3.09639  -1.84565  -1.84129  -1.84038
 Alpha  occ. eigenvalues --   -1.14935  -1.11909  -1.07806  -1.05894  -1.03923
 Alpha  occ. eigenvalues --   -1.03501  -1.03247  -1.01226  -1.00208  -0.98739
 Alpha  occ. eigenvalues --   -0.97960  -0.88115  -0.86852  -0.86323  -0.85959
 Alpha  occ. eigenvalues --   -0.85403  -0.84825  -0.84363  -0.84336  -0.84025
 Alpha  occ. eigenvalues --   -0.83350  -0.83277  -0.82278  -0.80875  -0.79888
 Alpha  occ. eigenvalues --   -0.79193  -0.78490  -0.78183  -0.77482  -0.76422
 Alpha  occ. eigenvalues --   -0.75692  -0.74665  -0.74412  -0.73328  -0.71810
 Alpha  occ. eigenvalues --   -0.71757  -0.70610  -0.70389  -0.69787  -0.69287
 Alpha  occ. eigenvalues --   -0.69066  -0.68751  -0.67640  -0.67092  -0.66290
 Alpha  occ. eigenvalues --   -0.66192  -0.64720  -0.64308  -0.62454  -0.62015
 Alpha  occ. eigenvalues --   -0.61573  -0.60969  -0.59828  -0.59327  -0.59192
 Alpha  occ. eigenvalues --   -0.58714  -0.58628  -0.58416  -0.57385  -0.57219
 Alpha  occ. eigenvalues --   -0.56267  -0.56086  -0.55664  -0.55256  -0.54906
 Alpha  occ. eigenvalues --   -0.53717  -0.53227  -0.52983  -0.52538  -0.52225
 Alpha  occ. eigenvalues --   -0.51771  -0.51430  -0.51356  -0.51328  -0.50922
 Alpha  occ. eigenvalues --   -0.50440  -0.49922  -0.49871  -0.49557  -0.49499
 Alpha  occ. eigenvalues --   -0.49171  -0.48733  -0.48340  -0.48126  -0.47795
 Alpha  occ. eigenvalues --   -0.47548  -0.47448  -0.47361  -0.47260  -0.46805
 Alpha  occ. eigenvalues --   -0.46559  -0.46444  -0.46380  -0.45948  -0.45385
 Alpha  occ. eigenvalues --   -0.45303  -0.45115  -0.44921  -0.44601  -0.44424
 Alpha  occ. eigenvalues --   -0.44339  -0.44001  -0.43920  -0.43698  -0.43387
 Alpha  occ. eigenvalues --   -0.43297  -0.43220  -0.42943  -0.42740  -0.42576
 Alpha  occ. eigenvalues --   -0.42383  -0.42246  -0.42061  -0.41788  -0.41749
 Alpha  occ. eigenvalues --   -0.41656  -0.41496  -0.41165  -0.41126  -0.40896
 Alpha  occ. eigenvalues --   -0.40755  -0.40451  -0.40335  -0.40183  -0.40102
 Alpha  occ. eigenvalues --   -0.39829  -0.39725  -0.39522  -0.39480  -0.39213
 Alpha  occ. eigenvalues --   -0.39002  -0.38950  -0.38786  -0.38405  -0.38243
 Alpha  occ. eigenvalues --   -0.38184  -0.37772  -0.37236  -0.37172  -0.37050
 Alpha  occ. eigenvalues --   -0.36698  -0.36691  -0.36426  -0.36031  -0.35824
 Alpha  occ. eigenvalues --   -0.35626  -0.35485  -0.35285  -0.35101  -0.35076
 Alpha  occ. eigenvalues --   -0.34403  -0.34167  -0.34084  -0.33991  -0.33742
 Alpha  occ. eigenvalues --   -0.33492  -0.33469  -0.32433  -0.32098  -0.31922
 Alpha  occ. eigenvalues --   -0.31039  -0.30378  -0.30070  -0.29623  -0.29220
 Alpha  occ. eigenvalues --   -0.29176  -0.28787  -0.27915  -0.27786  -0.27601
 Alpha  occ. eigenvalues --   -0.26990  -0.26306  -0.23527  -0.21224
 Alpha virt. eigenvalues --   -0.08849  -0.06300  -0.01955  -0.01621   0.00429
 Alpha virt. eigenvalues --    0.02858   0.03303   0.03944   0.04183   0.04424
 Alpha virt. eigenvalues --    0.04817   0.05792   0.07684   0.08312   0.09423

 Mulliken charges:
               1
     1  Mg   0.830470
     2  C    0.059965
     3  C   -0.163864
     4  C   -0.179970
     5  C   -0.178368
     6  N   -0.616514
     7  C    0.373355
     8  C   -0.154743
     9  C   -0.133498
    10  C    0.302978
    11  C   -0.299575
    12  C   -0.172225
    13  C   -0.274875
    14  C    0.618642
    15  O   -0.480053
    16  O   -0.488250
    17  N   -0.692716
    18  C    0.313676
    19  C    0.060403
    20  C    0.036748
    21  C    0.287526
    22  C   -0.400046
    23  C    0.199786
    24  O   -0.452754
    25  N   -0.744327
    26  C    0.287340
    27  C   -0.028913
    28  C    0.024393
    29  C    0.324942
    30  C    0.258065
    31  C   -0.254538
    32  C   -0.291169
    33  N   -0.765890
    34  C    0.300474
    35  C    0.068146
    36  C   -0.022535
    37  C    0.324984
    38  C   -0.401556
    39  C    0.380813
    40  O   -0.443100
    41  C   -0.357633
    42  C    0.621179
    43  O   -0.497153
    44  O   -0.426330
    45  C   -0.092161
    46  C   -0.004160
    47  C   -0.126082
    48  C    0.149144
    49  C   -0.380444
    50  C   -0.232391
    51  C   -0.176172
    52  C   -0.176371
    53  C   -0.069251
    54  C   -0.279105
    55  C   -0.174906
    56  C   -0.173794
    57  C   -0.166271
    58  C   -0.009693
    59  C   -0.319656
    60  C   -0.183912
    61  C   -0.208943
    62  C   -0.162851
    63  C   -0.080766
    64  C   -0.306449
    65  C   -0.281006
    66  H    0.080371
    67  H    0.147310
    68  H    0.076603
    69  H    0.125284
    70  H    0.101422
    71  H    0.093453
    72  H    0.113170
    73  H    0.135941
    74  H    0.133584
    75  H    0.119347
    76  H    0.137284
    77  H    0.136514
    78  H    0.100727
    79  H    0.178711
    80  H    0.108058
    81  H    0.081910
    82  H    0.117548
    83  H    0.106743
    84  H    0.107571
    85  H    0.121166
    86  H    0.110386
    87  H    0.112940
    88  H    0.137163
    89  H    0.141786
    90  H    0.150547
    91  H    0.127879
    92  H    0.130887
    93  H    0.078265
    94  H    0.153510
    95  H    0.067439
    96  H    0.119322
    97  H    0.116703
    98  H    0.098891
    99  H    0.100715
   100  H    0.083339
   101  H    0.085794
   102  H    0.084964
   103  H    0.087894
   104  H    0.099708
   105  H    0.098114
   106  H    0.067160
   107  H    0.076122
   108  H    0.086290
   109  H    0.111328
   110  H    0.094689
   111  H    0.065846
   112  H    0.062551
   113  H    0.083777
   114  H    0.094682
   115  H    0.097092
   116  H    0.110866
   117  H    0.104073
   118  H    0.075641
   119  H    0.086611
   120  H    0.095531
   121  H    0.084516
   122  H    0.098210
   123  H    0.086270
   124  H    0.103946
   125  H    0.099141
   126  H    0.102468
   127  H    0.112401
   128  H    0.079593
   129  H    0.063276
   130  H    0.133883
   131  H    0.151446
   132  H    0.127982
   133  O   -0.434262
   134  H    0.071856
 Sum of Mulliken charges =   0.00000

 Dipole moment (field-independent basis, Debye):
    X=              0.8372    Y=             -6.3266    Z=             -1.1978  Tot=              6.4932
 Quadrupole moment (field-independent basis, Debye-Ang):
   XX=           -361.0945   YY=           -433.2906   ZZ=           -394.7961
   XY=              3.3863   XZ=             20.1795   YZ=            -39.3330

 Normal termination of Gaussian 09 at Wed Oct  9 02:38:35 2019.
