 Gaussian 09, Revision D.01,
 Gaussian 09:  ES64L-G09RevD.01 24-Apr-2013

 ----------------------------------------------------------------------
 # td=(NStates=1) iop(3/107=0140000000,3/108=0140000000) iop(3/107=0140
 000000,3/108=0140000000) CAM-B3LYP/6-31G(d,p)
 ----------------------------------------------------------------------

 --
 TD
 --
 Symbolic Z-matrix:
 Charge =  0 Multiplicity = 1

                         Standard orientation:
 ---------------------------------------------------------------------
 Center     Atomic      Atomic             Coordinates (Angstroms)
 Number     Number       Type             X           Y           Z
 ---------------------------------------------------------------------
      1         12           0       -5.545151    1.191943    0.230542
      2          6           0       -4.899592   -2.137645   -0.422344
      3          6           0       -3.406153    1.220739    2.734534
      4          6           0       -6.187231    4.586703    0.643808
      5          6           0       -7.891544    1.231002   -2.465764
      6          7           0       -4.428557   -0.385337    1.031024
      7          6           0       -4.262259   -1.676476    0.711450
      8          6           0       -3.191431   -2.313369    1.485526
      9          6           0       -2.954046   -1.343234    2.715772
     10          6           0       -3.606743   -0.093050    2.213061
     11          6           0       -3.450622   -1.754933    4.123558
     12          6           0       -1.939501   -2.675879    0.737110
     13          6           0       -0.891715   -3.487014    1.518850
     14          6           0        0.246624   -3.855789    0.609442
     15          8           0        0.331410   -3.429936   -0.501322
     16          8           0        1.095978   -4.663143    1.264343
     17          7           0       -4.896909    2.651412    1.433982
     18          6           0       -4.044221    2.428934    2.522832
     19          6           0       -3.859666    3.634787    3.265346
     20          6           0       -4.577079    4.549114    2.563323
     21          6           0       -5.241858    4.027820    1.484836
     22          6           0       -2.801228    3.827614    4.356662
     23          6           0       -4.656821    5.980363    3.004124
     24          8           0       -4.072332    6.528774    3.856495
     25          7           0       -6.907983    2.612814   -0.652893
     26          6           0       -7.017097    3.891221   -0.301563
     27          6           0       -7.949764    4.585532   -1.130749
     28          6           0       -8.435784    3.602928   -2.043790
     29          6           0       -7.770730    2.382268   -1.761633
     30          6           0       -8.281772    6.038468   -1.263198
     31          6           0       -9.377628    3.855987   -3.242068
     32          6           0       -8.673687    3.946803   -4.575708
     33          7           0       -6.352827   -0.128140   -1.082931
     34          6           0       -7.251694    0.005183   -2.049239
     35          6           0       -7.443520   -1.352208   -2.688191
     36          6           0       -6.573069   -2.197249   -2.161522
     37          6           0       -5.865055   -1.458299   -1.095251
     38          6           0       -8.451553   -1.694995   -3.888701
     39          6           0       -6.180975   -3.584193   -2.006299
     40          8           0       -6.573573   -4.525998   -2.696613
     41          6           0       -4.955002   -3.539232   -0.978063
     42          6           0       -5.215441   -4.672956    0.065421
     43          8           0       -5.693087   -4.461584    1.124917
     44          8           0       -4.962741   -5.817122   -0.447216
     45          6           0       -5.198587   -6.962252    0.484569
     46          6           0        2.295775   -5.005493    0.577647
     47          6           0        3.421922   -4.041615    0.946058
     48          6           0        4.098721   -3.323250    0.092536
     49          6           0        3.690620   -3.153251   -1.374412
     50          6           0        5.211016   -2.437318    0.668798
     51          6           0        6.515998   -2.966663    0.218257
     52          6           0        7.732156   -2.047831    0.670122
     53          6           0        9.059122   -2.121848   -0.019163
     54          6           0        9.702176   -3.405469    0.267925
     55          6           0        9.902761   -0.962025    0.348823
     56          6           0       11.425005   -0.979895   -0.217625
     57          6           0       12.111008    0.337846    0.133013
     58          6           0       13.453553    0.461700   -0.636493
     59          6           0       14.545760   -0.597548   -0.381433
     60          6           0       14.135172    1.779396   -0.110523
     61          6           0       15.281493    2.208135   -0.980856
     62          6           0       15.834907    3.566321   -0.600094
     63          6           0       17.191722    4.099263   -1.434926
     64          6           0       16.887706    4.257033   -2.845268
     65          6           0       17.636955    5.428743   -0.852161
     66          1           0       -2.642686    1.213622    3.592949
     67          1           0       -6.475519    5.626266    0.829977
     68          1           0       -8.555773    1.101621   -3.392406
     69          1           0       -3.617531   -3.045233    1.977616
     70          1           0       -1.886405   -1.194259    2.922575
     71          1           0       -2.738570   -2.565632    4.343727
     72          1           0       -3.477936   -0.911697    4.972088
     73          1           0       -4.741417   -2.004265    4.127652
     74          1           0       -2.115869   -3.322862   -0.119823
     75          1           0       -1.415175   -1.647913    0.410407
     76          1           0       -0.477506   -2.840541    2.426990
     77          1           0       -1.344017   -4.243930    2.147188
     78          1           0       -1.843590    3.667640    3.956856
     79          1           0       -2.830197    4.990249    4.492379
     80          1           0       -3.162240    3.314551    5.177764
     81          1           0       -5.235040    6.675296    2.121375
     82          1           0       -9.912582    2.944666   -3.229069
     83          1           0       -9.911663    4.801851   -2.906684
     84          1           0       -9.209819    4.034867   -5.405075
     85          1           0       -8.311793    4.953255   -4.500164
     86          1           0       -7.907358    3.155332   -4.799432
     87          1           0       -8.250594   -1.208022   -4.784930
     88          1           0       -8.525680   -2.776625   -3.871098
     89          1           0       -9.388555   -1.227426   -3.739956
     90          1           0       -4.219872   -3.906582   -1.598495
     91          1           0        2.628793   -6.112763    0.722546
     92          1           0        2.063102   -4.915026   -0.468943
     93          1           0        3.793276   -4.176816    1.924367
     94          1           0        2.587496   -3.507347   -1.583478
     95          1           0        3.744535   -2.096330   -1.681981
     96          1           0        4.488926   -3.694706   -1.926653
     97          1           0        4.876586   -1.446341    0.373273
     98          1           0        5.093224   -2.485972    1.699780
     99          1           0        6.773217   -3.918888    0.572082
    100          1           0        6.573447   -3.206208   -0.897894
    101          1           0        7.332432   -1.015124    0.328242
    102          1           0        7.775279   -2.065144    1.648629
    103          1           0        8.879163   -2.073001   -1.113208
    104          1           0        9.047423   -4.395111    0.207845
    105          1           0       10.510303   -3.838633   -0.399373
    106          1           0       10.277679   -3.480322    1.264391
    107          1           0        9.358828   -0.053882    0.336955
    108          1           0       10.139555   -1.146111    1.404254
    109          1           0       12.002063   -1.964200    0.024206
    110          1           0       11.155087   -1.169637   -1.259030
    111          1           0       11.659157    1.256031   -0.004600
    112          1           0       12.257957    0.332941    1.179925
    113          1           0       13.090041    0.702670   -1.670283
    114          1           0       14.981644   -1.034211    0.527363
    115          1           0       14.079604   -1.618904   -0.663035
    116          1           0       15.453320   -0.540794   -1.042867
    117          1           0       13.611485    2.650969   -0.346109
    118          1           0       14.366595    1.690559    0.893269
    119          1           0       16.230773    1.482862   -0.868228
    120          1           0       14.770222    2.288805   -2.061286
    121          1           0       15.278343    4.520587   -0.765374
    122          1           0       16.166400    3.534460    0.497855
    123          1           0       17.736735    3.278958   -1.024092
    124          1           0       16.041491    4.956752   -3.033295
    125          1           0       17.859465    4.812774   -3.353788
    126          1           0       16.922055    3.285112   -3.559043
    127          1           0       17.849870    5.492664    0.170968
    128          1           0       18.583154    5.817326   -1.530849
    129          1           0       16.720103    5.961914   -1.103436
    130          1           0       -4.823338   -7.847517   -0.004214
    131          1           0       -6.267127   -7.033065    0.893925
    132          1           0       -4.752098   -6.646805    1.524618
    133          8           0       -7.910697    6.830313   -0.427828
    134          1           0       -9.055419    6.026756   -2.057010
 ---------------------------------------------------------------------

 SCF Done:  E(RCAM-B3LYP) =  -3043.46532998     A.U. after   16 cycles

 Excitation energies and oscillator strengths:

 Excited State   1:      Singlet-A      1.9806 eV  625.99 nm  f=0.1887  <S**2>=0.000
     243 -> 246       -0.24831
     244 -> 245        0.65579
 This state for optimization and/or second-order correction.
 Total Energy, E(TD-HF/TD-KS) =  -3043.39254341
 Copying the excited state density for this state as the 1-particle RhoCI density.

 The electronic state is 1-A.
 Alpha  occ. eigenvalues --  -46.80678 -19.24049 -19.22949 -19.18196 -19.17969
 Alpha  occ. eigenvalues --  -19.17543 -19.17349 -19.16850 -14.38985 -14.36506
 Alpha  occ. eigenvalues --  -14.35988 -14.35958 -10.35656 -10.34650 -10.31609
 Alpha  occ. eigenvalues --  -10.30908 -10.30560 -10.29501 -10.27980 -10.27758
 Alpha  occ. eigenvalues --  -10.27229 -10.26433 -10.25786 -10.25692 -10.25597
 Alpha  occ. eigenvalues --  -10.25387 -10.25283 -10.25218 -10.24926 -10.24788
 Alpha  occ. eigenvalues --  -10.24588 -10.24588 -10.24360 -10.24113 -10.23637
 Alpha  occ. eigenvalues --  -10.23587 -10.23487 -10.23387 -10.23283 -10.23241
 Alpha  occ. eigenvalues --  -10.22956 -10.22530 -10.22462 -10.22293 -10.22243
 Alpha  occ. eigenvalues --  -10.22085 -10.22007 -10.21771 -10.21632 -10.21631
 Alpha  occ. eigenvalues --  -10.21630 -10.21552 -10.21340 -10.21202 -10.21182
 Alpha  occ. eigenvalues --  -10.21133 -10.21118 -10.21061 -10.20998 -10.20639
 Alpha  occ. eigenvalues --  -10.20630 -10.20392 -10.20124 -10.20085 -10.19988
 Alpha  occ. eigenvalues --  -10.18829  -3.09250  -1.84194  -1.83719  -1.83658
 Alpha  occ. eigenvalues --   -1.16354  -1.14850  -1.09923  -1.07386  -1.07057
 Alpha  occ. eigenvalues --   -1.06511  -1.06270  -0.99895  -0.98820  -0.98600
 Alpha  occ. eigenvalues --   -0.97739  -0.88909  -0.87005  -0.86278  -0.85774
 Alpha  occ. eigenvalues --   -0.85088  -0.85075  -0.84203  -0.83415  -0.83159
 Alpha  occ. eigenvalues --   -0.82608  -0.82092  -0.81933  -0.80614  -0.79747
 Alpha  occ. eigenvalues --   -0.78978  -0.78457  -0.78066  -0.77083  -0.76204
 Alpha  occ. eigenvalues --   -0.75086  -0.74635  -0.74190  -0.73576  -0.72049
 Alpha  occ. eigenvalues --   -0.71756  -0.70980  -0.70269  -0.69923  -0.69641
 Alpha  occ. eigenvalues --   -0.69460  -0.69031  -0.67229  -0.67081  -0.66490
 Alpha  occ. eigenvalues --   -0.65372  -0.65004  -0.63931  -0.62722  -0.62113
 Alpha  occ. eigenvalues --   -0.61621  -0.60792  -0.60585  -0.59784  -0.59516
 Alpha  occ. eigenvalues --   -0.59209  -0.58810  -0.57699  -0.57529  -0.57434
 Alpha  occ. eigenvalues --   -0.56050  -0.55571  -0.55144  -0.54913  -0.54618
 Alpha  occ. eigenvalues --   -0.54461  -0.53720  -0.52878  -0.52500  -0.52245
 Alpha  occ. eigenvalues --   -0.52004  -0.51975  -0.51559  -0.51405  -0.51323
 Alpha  occ. eigenvalues --   -0.50680  -0.50577  -0.50093  -0.49763  -0.49689
 Alpha  occ. eigenvalues --   -0.48991  -0.48552  -0.48310  -0.48190  -0.48019
 Alpha  occ. eigenvalues --   -0.47766  -0.47549  -0.47289  -0.47213  -0.46982
 Alpha  occ. eigenvalues --   -0.46768  -0.46716  -0.46469  -0.46032  -0.45706
 Alpha  occ. eigenvalues --   -0.45573  -0.45375  -0.45107  -0.45024  -0.44891
 Alpha  occ. eigenvalues --   -0.44659  -0.44465  -0.44226  -0.44125  -0.43928
 Alpha  occ. eigenvalues --   -0.43585  -0.43466  -0.43206  -0.42980  -0.42852
 Alpha  occ. eigenvalues --   -0.42689  -0.42640  -0.42222  -0.42005  -0.41829
 Alpha  occ. eigenvalues --   -0.41688  -0.41602  -0.41368  -0.40991  -0.40942
 Alpha  occ. eigenvalues --   -0.40757  -0.40599  -0.40484  -0.40455  -0.40193
 Alpha  occ. eigenvalues --   -0.39899  -0.39631  -0.39541  -0.39438  -0.39204
 Alpha  occ. eigenvalues --   -0.39049  -0.38991  -0.38918  -0.38614  -0.38237
 Alpha  occ. eigenvalues --   -0.37995  -0.37736  -0.37482  -0.37160  -0.37048
 Alpha  occ. eigenvalues --   -0.37030  -0.36739  -0.35987  -0.35937  -0.35693
 Alpha  occ. eigenvalues --   -0.35371  -0.35126  -0.34947  -0.34841  -0.34589
 Alpha  occ. eigenvalues --   -0.34464  -0.34217  -0.34107  -0.33918  -0.33858
 Alpha  occ. eigenvalues --   -0.33103  -0.32214  -0.31992  -0.31636  -0.31473
 Alpha  occ. eigenvalues --   -0.31162  -0.30961  -0.30441  -0.29882  -0.28914
 Alpha  occ. eigenvalues --   -0.28330  -0.28036  -0.27898  -0.27851  -0.27608
 Alpha  occ. eigenvalues --   -0.26928  -0.26725  -0.22963  -0.20783
 Alpha virt. eigenvalues --   -0.08005  -0.06226  -0.01824   0.00039   0.00639
 Alpha virt. eigenvalues --    0.02992   0.04041   0.04433   0.04838   0.05238
 Alpha virt. eigenvalues --    0.05244   0.06070   0.08130   0.09145   0.09634

 Mulliken charges:
               1
     1  Mg   0.816978
     2  C    0.080207
     3  C   -0.211985
     4  C   -0.173805
     5  C   -0.178683
     6  N   -0.626338
     7  C    0.325967
     8  C   -0.123719
     9  C   -0.171578
    10  C    0.316535
    11  C   -0.288232
    12  C   -0.149855
    13  C   -0.289278
    14  C    0.631876
    15  O   -0.452307
    16  O   -0.454328
    17  N   -0.736422
    18  C    0.322834
    19  C    0.027029
    20  C   -0.056856
    21  C    0.343256
    22  C   -0.375842
    23  C    0.257232
    24  O   -0.373086
    25  N   -0.689654
    26  C    0.315523
    27  C   -0.047088
    28  C   -0.014322
    29  C    0.320483
    30  C    0.278863
    31  C   -0.240061
    32  C   -0.303115
    33  N   -0.715544
    34  C    0.304690
    35  C   -0.065288
    36  C    0.086213
    37  C    0.233439
    38  C   -0.373666
    39  C    0.363327
    40  O   -0.458628
    41  C   -0.325734
    42  C    0.603893
    43  O   -0.471554
    44  O   -0.412698
    45  C   -0.109428
    46  C   -0.020096
    47  C   -0.129471
    48  C    0.118220
    49  C   -0.373653
    50  C   -0.208991
    51  C   -0.188111
    52  C   -0.162498
    53  C   -0.039110
    54  C   -0.316848
    55  C   -0.181447
    56  C   -0.196133
    57  C   -0.162524
    58  C   -0.053867
    59  C   -0.335957
    60  C   -0.156844
    61  C   -0.162470
    62  C   -0.192399
    63  C   -0.063708
    64  C   -0.285059
    65  C   -0.283811
    66  H    0.079700
    67  H    0.137748
    68  H    0.097449
    69  H    0.123319
    70  H    0.112603
    71  H    0.112413
    72  H    0.113608
    73  H    0.088186
    74  H    0.125804
    75  H    0.108417
    76  H    0.115694
    77  H    0.135850
    78  H    0.135395
    79  H    0.151749
    80  H    0.131313
    81  H    0.024868
    82  H    0.114404
    83  H    0.106009
    84  H    0.122674
    85  H    0.110327
    86  H    0.110878
    87  H    0.133202
    88  H    0.148847
    89  H    0.119299
    90  H    0.158426
    91  H    0.108710
    92  H    0.119847
    93  H    0.079477
    94  H    0.138684
    95  H    0.113520
    96  H    0.117685
    97  H    0.106222
    98  H    0.105622
    99  H    0.108119
   100  H    0.081332
   101  H    0.069027
   102  H    0.099468
   103  H    0.080558
   104  H    0.078603
   105  H    0.095766
   106  H    0.091573
   107  H    0.093079
   108  H    0.086517
   109  H    0.094519
   110  H    0.092898
   111  H    0.100391
   112  H    0.097502
   113  H    0.090489
   114  H    0.116355
   115  H    0.076486
   116  H    0.111034
   117  H    0.090386
   118  H    0.095018
   119  H    0.069572
   120  H    0.075772
   121  H    0.074931
   122  H    0.075520
   123  H    0.094988
   124  H    0.105077
   125  H    0.069023
   126  H    0.096088
   127  H    0.108280
   128  H    0.077466
   129  H    0.096304
   130  H    0.142223
   131  H    0.145250
   132  H    0.127770
   133  O   -0.418912
   134  H    0.059107
 Sum of Mulliken charges =   0.00000

 Dipole moment (field-independent basis, Debye):
    X=              3.4899    Y=             -6.2337    Z=              0.0031  Tot=              7.1441
 Quadrupole moment (field-independent basis, Debye-Ang):
   XX=           -399.0172   YY=           -430.1522   ZZ=           -391.9244
   XY=              6.2167   XZ=             25.9937   YZ=            -36.0344

 Normal termination of Gaussian 09 at Fri Oct  4 23:42:43 2019.
