 Gaussian 09, Revision D.01,
 Gaussian 09:  ES64L-G09RevD.01 24-Apr-2013

 ----------------------------------------------------------------------
 # td=(NStates=1) iop(3/107=0140000000,3/108=0140000000) iop(3/107=0140
 000000,3/108=0140000000) CAM-B3LYP/6-31G(d,p)
 ----------------------------------------------------------------------

 --
 TD
 --
 Symbolic Z-matrix:
 Charge =  0 Multiplicity = 1

                         Standard orientation:
 ---------------------------------------------------------------------
 Center     Atomic      Atomic             Coordinates (Angstroms)
 Number     Number       Type             X           Y           Z
 ---------------------------------------------------------------------
      1         12           0       -5.643974    1.207341    0.181503
      2          6           0       -5.123795   -2.134924   -0.318798
      3          6           0       -3.491844    1.070811    2.785396
      4          6           0       -6.317875    4.519874    0.748122
      5          6           0       -7.843808    1.200996   -2.470936
      6          7           0       -4.447811   -0.371438    1.077261
      7          6           0       -4.312942   -1.576940    0.680053
      8          6           0       -3.236601   -2.363816    1.466651
      9          6           0       -2.903076   -1.342301    2.593509
     10          6           0       -3.571720   -0.162350    2.091853
     11          6           0       -3.414082   -1.697659    4.064725
     12          6           0       -1.958335   -2.644295    0.688559
     13          6           0       -1.011828   -3.547380    1.380500
     14          6           0        0.229790   -3.930670    0.605241
     15          8           0        0.480644   -3.529308   -0.488961
     16          8           0        1.068724   -4.632317    1.279837
     17          7           0       -4.982661    2.572442    1.406040
     18          6           0       -4.082886    2.369694    2.520112
     19          6           0       -3.775352    3.527938    3.251508
     20          6           0       -4.633344    4.497362    2.689832
     21          6           0       -5.370202    3.888471    1.634410
     22          6           0       -2.662418    3.681215    4.299061
     23          6           0       -4.658868    5.962641    3.045537
     24          8           0       -3.895086    6.520091    3.889078
     25          7           0       -6.882518    2.613228   -0.700253
     26          6           0       -6.948604    3.893860   -0.373749
     27          6           0       -7.990393    4.638577   -1.216524
     28          6           0       -8.416621    3.691323   -2.052444
     29          6           0       -7.774928    2.441368   -1.785940
     30          6           0       -8.357665    6.059677   -1.076686
     31          6           0       -9.531967    3.843613   -3.092968
     32          6           0       -8.928218    4.033620   -4.565413
     33          7           0       -6.386056   -0.203511   -1.122283
     34          6           0       -7.300223   -0.117888   -2.228535
     35          6           0       -7.504426   -1.278436   -2.859700
     36          6           0       -6.568970   -2.189510   -2.179967
     37          6           0       -5.960020   -1.437131   -1.148717
     38          6           0       -8.487742   -1.585514   -3.968993
     39          6           0       -6.156577   -3.555158   -2.121389
     40          8           0       -6.607555   -4.446077   -2.790294
     41          6           0       -5.060705   -3.564207   -0.830894
     42          6           0       -5.430943   -4.630468    0.080618
     43          8           0       -5.925549   -4.366089    1.175426
     44          8           0       -4.861855   -5.827096   -0.296600
     45          6           0       -5.337575   -6.888572    0.590506
     46          6           0        2.322651   -5.001481    0.682707
     47          6           0        3.496183   -4.060688    1.008070
     48          6           0        4.079823   -3.190793    0.198106
     49          6           0        3.761890   -3.108701   -1.255842
     50          6           0        5.133272   -2.310299    0.781890
     51          6           0        6.472633   -2.644680    0.082562
     52          6           0        7.562917   -1.829436    0.581876
     53          6           0        8.957790   -2.022580   -0.074471
     54          6           0        9.719398   -3.407544    0.349853
     55          6           0        9.961699   -0.851648    0.353215
     56          6           0       11.373945   -0.866141   -0.299404
     57          6           0       12.236047    0.316732    0.063739
     58          6           0       13.630396    0.541446   -0.624072
     59          6           0       14.455058   -0.715542   -0.437081
     60          6           0       14.383230    1.817120   -0.116989
     61          6           0       15.546817    2.199571   -0.996414
     62          6           0       16.075296    3.558113   -0.605557
     63          6           0       17.388139    3.858118   -1.257691
     64          6           0       17.203896    3.998992   -2.911515
     65          6           0       17.950170    5.268448   -0.950741
     66          1           0       -2.690803    1.143343    3.623341
     67          1           0       -6.554557    5.651365    0.884008
     68          1           0       -8.747985    0.869038   -3.300942
     69          1           0       -3.662943   -3.338334    2.020673
     70          1           0       -1.772365   -0.842619    2.620433
     71          1           0       -2.889321   -2.712232    4.247478
     72          1           0       -3.098468   -0.940478    4.663424
     73          1           0       -4.573458   -2.090718    4.110179
     74          1           0       -2.117559   -3.419589   -0.176877
     75          1           0       -1.662952   -1.623661    0.272134
     76          1           0       -0.554585   -3.047903    2.064224
     77          1           0       -1.405619   -4.385814    1.795191
     78          1           0       -1.654718    3.567604    4.102794
     79          1           0       -2.611857    4.761314    4.533619
     80          1           0       -2.896042    3.254436    5.279459
     81          1           0       -5.457144    6.502780    2.367263
     82          1           0      -10.176095    2.755550   -3.137136
     83          1           0      -10.015136    4.746425   -3.037017
     84          1           0       -9.700032    4.168472   -5.242483
     85          1           0       -8.419906    4.933058   -4.555978
     86          1           0       -8.327947    3.265529   -5.100383
     87          1           0       -8.116509   -1.081335   -4.928064
     88          1           0       -8.572693   -2.747802   -4.009057
     89          1           0       -9.430379   -1.364801   -3.688656
     90          1           0       -4.029837   -3.888067   -1.372932
     91          1           0        2.584963   -6.032778    1.065236
     92          1           0        2.037483   -5.133039   -0.289063
     93          1           0        3.729238   -4.002307    2.064747
     94          1           0        2.621035   -3.073221   -1.555492
     95          1           0        4.134844   -2.211969   -1.786211
     96          1           0        4.236581   -4.006778   -1.747042
     97          1           0        4.926191   -1.270312    0.539331
     98          1           0        5.226838   -2.528356    1.842519
     99          1           0        6.618341   -3.731161    0.297861
    100          1           0        6.311655   -2.561337   -1.038046
    101          1           0        7.300476   -0.875148    0.457198
    102          1           0        7.692244   -1.753107    1.736505
    103          1           0        9.033206   -2.265097   -1.276282
    104          1           0        8.792631   -4.281359    0.262478
    105          1           0       10.496783   -3.589677   -0.484596
    106          1           0       10.190519   -3.681537    1.480644
    107          1           0        9.456918    0.056661   -0.021885
    108          1           0        9.961816   -0.733126    1.440420
    109          1           0       11.707884   -1.748961   -0.107218
    110          1           0       11.464952   -1.123834   -1.456129
    111          1           0       11.623455    1.336697   -0.076703
    112          1           0       12.487118    0.220099    1.111584
    113          1           0       13.332364    0.604235   -1.732653
    114          1           0       14.628984   -0.768265    0.594561
    115          1           0       13.867632   -1.649330   -0.671342
    116          1           0       15.550784   -0.774213   -0.693792
    117          1           0       13.462496    2.481611    0.156489
    118          1           0       14.875980    1.551783    0.848176
    119          1           0       16.337907    1.463745   -0.977023
    120          1           0       15.194174    2.117822   -2.089965
    121          1           0       15.294829    4.287002   -0.700972
    122          1           0       16.166745    3.628771    0.575275
    123          1           0       18.008904    2.866258   -1.182478
    124          1           0       16.590853    4.759647   -3.309400
    125          1           0       17.988575    4.366483   -3.388511
    126          1           0       16.979739    2.961354   -3.354339
    127          1           0       17.972853    5.208591    0.241746
    128          1           0       18.780345    5.543878   -1.506928
    129          1           0       17.261528    6.009928   -1.081770
    130          1           0       -4.744552   -7.800418    0.369184
    131          1           0       -6.384420   -6.920032    0.703320
    132          1           0       -4.732138   -6.543104    1.486198
    133          8           0       -7.882100    6.895261   -0.346146
    134          1           0       -9.225544    6.442519   -1.943141
 ---------------------------------------------------------------------

 SCF Done:  E(RCAM-B3LYP) =  -3043.40471204     A.U. after   16 cycles

 Excitation energies and oscillator strengths:

 Excited State   1:      Singlet-A      1.9996 eV  620.04 nm  f=0.1874  <S**2>=0.000
     243 -> 245       -0.35779
     243 -> 246       -0.22917
     244 -> 245        0.52380
     244 -> 246       -0.18273
 This state for optimization and/or second-order correction.
 Total Energy, E(TD-HF/TD-KS) =  -3043.33122711
 Copying the excited state density for this state as the 1-particle RhoCI density.

 The electronic state is 1-A.
 Alpha  occ. eigenvalues --  -46.81720 -19.22492 -19.22230 -19.18976 -19.17948
 Alpha  occ. eigenvalues --  -19.16946 -19.16866 -19.15765 -14.39339 -14.37792
 Alpha  occ. eigenvalues --  -14.37210 -14.35542 -10.34479 -10.33956 -10.32967
 Alpha  occ. eigenvalues --  -10.31855 -10.30871 -10.27485 -10.27423 -10.27402
 Alpha  occ. eigenvalues --  -10.27360 -10.27318 -10.27255 -10.27189 -10.27150
 Alpha  occ. eigenvalues --  -10.26723 -10.25758 -10.25581 -10.25389 -10.25257
 Alpha  occ. eigenvalues --  -10.25213 -10.25065 -10.25007 -10.24781 -10.24564
 Alpha  occ. eigenvalues --  -10.24479 -10.24308 -10.24277 -10.24208 -10.23987
 Alpha  occ. eigenvalues --  -10.23965 -10.23964 -10.23956 -10.23321 -10.23112
 Alpha  occ. eigenvalues --  -10.23066 -10.22822 -10.21911 -10.21834 -10.21731
 Alpha  occ. eigenvalues --  -10.21617 -10.21567 -10.21557 -10.21519 -10.21519
 Alpha  occ. eigenvalues --  -10.21510 -10.21491 -10.21131 -10.20972 -10.20925
 Alpha  occ. eigenvalues --  -10.20917 -10.20877 -10.20527 -10.20026 -10.19744
 Alpha  occ. eigenvalues --  -10.18846  -3.10333  -1.85261  -1.84819  -1.84743
 Alpha  occ. eigenvalues --   -1.15951  -1.12235  -1.08766  -1.07409  -1.05130
 Alpha  occ. eigenvalues --   -1.04376  -1.04114  -1.03425  -1.00524  -0.99690
 Alpha  occ. eigenvalues --   -0.98282  -0.87956  -0.87287  -0.86835  -0.85697
 Alpha  occ. eigenvalues --   -0.85221  -0.84594  -0.83968  -0.83773  -0.83503
 Alpha  occ. eigenvalues --   -0.82943  -0.82407  -0.81851  -0.80479  -0.79472
 Alpha  occ. eigenvalues --   -0.78798  -0.78336  -0.77777  -0.77097  -0.76393
 Alpha  occ. eigenvalues --   -0.75271  -0.75013  -0.74338  -0.73221  -0.71907
 Alpha  occ. eigenvalues --   -0.71624  -0.71020  -0.70543  -0.70252  -0.69953
 Alpha  occ. eigenvalues --   -0.69819  -0.68874  -0.68068  -0.67069  -0.66419
 Alpha  occ. eigenvalues --   -0.65743  -0.65556  -0.63793  -0.62740  -0.62179
 Alpha  occ. eigenvalues --   -0.61492  -0.61342  -0.59966  -0.59699  -0.59327
 Alpha  occ. eigenvalues --   -0.58219  -0.57923  -0.57481  -0.57462  -0.57002
 Alpha  occ. eigenvalues --   -0.56401  -0.55756  -0.55387  -0.55083  -0.54541
 Alpha  occ. eigenvalues --   -0.54408  -0.53220  -0.52761  -0.52345  -0.52156
 Alpha  occ. eigenvalues --   -0.51962  -0.51786  -0.51494  -0.51230  -0.50165
 Alpha  occ. eigenvalues --   -0.49919  -0.49687  -0.49496  -0.49051  -0.48817
 Alpha  occ. eigenvalues --   -0.48562  -0.48439  -0.48144  -0.48015  -0.47827
 Alpha  occ. eigenvalues --   -0.47720  -0.47223  -0.47106  -0.47053  -0.46689
 Alpha  occ. eigenvalues --   -0.46397  -0.46303  -0.46190  -0.45970  -0.45876
 Alpha  occ. eigenvalues --   -0.45668  -0.45516  -0.45314  -0.44881  -0.44690
 Alpha  occ. eigenvalues --   -0.44540  -0.44278  -0.44176  -0.44087  -0.43765
 Alpha  occ. eigenvalues --   -0.43672  -0.43561  -0.43439  -0.43088  -0.42741
 Alpha  occ. eigenvalues --   -0.42457  -0.42355  -0.42158  -0.41849  -0.41679
 Alpha  occ. eigenvalues --   -0.41488  -0.41341  -0.41109  -0.40900  -0.40651
 Alpha  occ. eigenvalues --   -0.40611  -0.40392  -0.40211  -0.40202  -0.40156
 Alpha  occ. eigenvalues --   -0.39994  -0.39786  -0.39684  -0.39387  -0.39200
 Alpha  occ. eigenvalues --   -0.39181  -0.39029  -0.38784  -0.38574  -0.38409
 Alpha  occ. eigenvalues --   -0.38331  -0.38027  -0.37954  -0.37537  -0.37162
 Alpha  occ. eigenvalues --   -0.36949  -0.36897  -0.36627  -0.36098  -0.36001
 Alpha  occ. eigenvalues --   -0.35815  -0.35572  -0.35278  -0.35020  -0.34992
 Alpha  occ. eigenvalues --   -0.34295  -0.34042  -0.33938  -0.33038  -0.32744
 Alpha  occ. eigenvalues --   -0.32511  -0.32357  -0.32142  -0.31973  -0.31583
 Alpha  occ. eigenvalues --   -0.31089  -0.30410  -0.30141  -0.30101  -0.29896
 Alpha  occ. eigenvalues --   -0.29620  -0.28835  -0.28424  -0.27992  -0.27450
 Alpha  occ. eigenvalues --   -0.27205  -0.26851  -0.22630  -0.22021
 Alpha virt. eigenvalues --   -0.09473  -0.06644  -0.01837  -0.01212   0.00960
 Alpha virt. eigenvalues --    0.02342   0.03457   0.03671   0.03934   0.04414
 Alpha virt. eigenvalues --    0.05766   0.06405   0.07425   0.07892   0.08342

 Mulliken charges:
               1
     1  Mg   0.830150
     2  C    0.090430
     3  C   -0.207660
     4  C   -0.207911
     5  C   -0.177563
     6  N   -0.591631
     7  C    0.339921
     8  C   -0.177927
     9  C   -0.150802
    10  C    0.343471
    11  C   -0.288967
    12  C   -0.157316
    13  C   -0.234531
    14  C    0.558299
    15  O   -0.473422
    16  O   -0.437369
    17  N   -0.711236
    18  C    0.262414
    19  C    0.082585
    20  C   -0.044295
    21  C    0.319961
    22  C   -0.413621
    23  C    0.259674
    24  O   -0.433948
    25  N   -0.668568
    26  C    0.309200
    27  C   -0.004233
    28  C    0.059633
    29  C    0.270745
    30  C    0.253568
    31  C   -0.226965
    32  C   -0.338909
    33  N   -0.729988
    34  C    0.248828
    35  C    0.046150
    36  C    0.001357
    37  C    0.341607
    38  C   -0.380963
    39  C    0.328618
    40  O   -0.446628
    41  C   -0.377074
    42  C    0.659237
    43  O   -0.482855
    44  O   -0.470701
    45  C   -0.085073
    46  C    0.010819
    47  C   -0.158442
    48  C    0.177449
    49  C   -0.398115
    50  C   -0.234610
    51  C   -0.182941
    52  C   -0.154717
    53  C   -0.055235
    54  C   -0.291622
    55  C   -0.176488
    56  C   -0.175347
    57  C   -0.173701
    58  C   -0.056867
    59  C   -0.318189
    60  C   -0.174931
    61  C   -0.173745
    62  C   -0.142528
    63  C   -0.049968
    64  C   -0.331547
    65  C   -0.307562
    66  H    0.079668
    67  H    0.140192
    68  H    0.070967
    69  H    0.112287
    70  H    0.097873
    71  H    0.103401
    72  H    0.128599
    73  H    0.121064
    74  H    0.104075
    75  H    0.112102
    76  H    0.139154
    77  H    0.135180
    78  H    0.138769
    79  H    0.160946
    80  H    0.127770
    81  H    0.082799
    82  H    0.094033
    83  H    0.118953
    84  H    0.117386
    85  H    0.121541
    86  H    0.112456
    87  H    0.131505
    88  H    0.142581
    89  H    0.142072
    90  H    0.147416
    91  H    0.106595
    92  H    0.126620
    93  H    0.079075
    94  H    0.150129
    95  H    0.105605
    96  H    0.121512
    97  H    0.103904
    98  H    0.100201
    99  H    0.096867
   100  H    0.098096
   101  H    0.105738
   102  H    0.080985
   103  H    0.074258
   104  H    0.057579
   105  H    0.099397
   106  H    0.079028
   107  H    0.087708
   108  H    0.099005
   109  H    0.114957
   110  H    0.060153
   111  H    0.068363
   112  H    0.093232
   113  H    0.072546
   114  H    0.105107
   115  H    0.095057
   116  H    0.093396
   117  H    0.082236
   118  H    0.088472
   119  H    0.098071
   120  H    0.094367
   121  H    0.102246
   122  H    0.063404
   123  H    0.080141
   124  H    0.098666
   125  H    0.103392
   126  H    0.083454
   127  H    0.072058
   128  H    0.112601
   129  H    0.121621
   130  H    0.125279
   131  H    0.150599
   132  H    0.119203
   133  O   -0.396106
   134  H    0.024991
 Sum of Mulliken charges =   0.00000

 Dipole moment (field-independent basis, Debye):
    X=              2.0447    Y=             -3.7027    Z=             -0.1396  Tot=              4.2321
 Quadrupole moment (field-independent basis, Debye-Ang):
   XX=           -386.6137   YY=           -435.0816   ZZ=           -395.0025
   XY=              8.3328   XZ=             20.5699   YZ=            -38.0071

 Normal termination of Gaussian 09 at Fri Oct  4 00:19:24 2019.
