 Gaussian 09, Revision D.01,
 Gaussian 09:  ES64L-G09RevD.01 24-Apr-2013

 ----------------------------------------------------------------------
 # td=(NStates=1) iop(3/107=0140000000,3/108=0140000000) iop(3/107=0140
 000000,3/108=0140000000) CAM-B3LYP/6-31G(d,p)
 ----------------------------------------------------------------------

 --
 TD
 --
 Symbolic Z-matrix:
 Charge =  0 Multiplicity = 1

                         Standard orientation:
 ---------------------------------------------------------------------
 Center     Atomic      Atomic             Coordinates (Angstroms)
 Number     Number       Type             X           Y           Z
 ---------------------------------------------------------------------
      1         12           0       -5.634870    1.243086    0.223393
      2          6           0       -5.001771   -2.030405   -0.390141
      3          6           0       -3.384722    1.223365    2.825189
      4          6           0       -6.350129    4.512766    0.712303
      5          6           0       -8.028670    1.108771   -2.398222
      6          7           0       -4.375201   -0.330650    1.096050
      7          6           0       -4.217323   -1.618639    0.671175
      8          6           0       -3.248220   -2.285547    1.528366
      9          6           0       -2.880782   -1.283026    2.633560
     10          6           0       -3.549164   -0.009835    2.167673
     11          6           0       -3.579013   -1.636499    4.060773
     12          6           0       -1.954448   -2.685074    0.671578
     13          6           0       -0.934877   -3.476430    1.481679
     14          6           0        0.367189   -3.790749    0.670050
     15          8           0        0.503785   -3.510274   -0.481034
     16          8           0        1.153384   -4.794205    1.267667
     17          7           0       -4.935011    2.640530    1.442246
     18          6           0       -4.049813    2.372237    2.455117
     19          6           0       -3.727669    3.602186    3.226557
     20          6           0       -4.578406    4.595032    2.556530
     21          6           0       -5.307807    3.918446    1.476171
     22          6           0       -2.873813    3.789866    4.369250
     23          6           0       -4.790118    5.992680    3.044633
     24          8           0       -4.142044    6.470087    3.905303
     25          7           0       -6.843661    2.617217   -0.748251
     26          6           0       -7.083369    3.904040   -0.350829
     27          6           0       -7.996589    4.511201   -1.180119
     28          6           0       -8.420950    3.581782   -2.143777
     29          6           0       -7.673480    2.387985   -1.852442
     30          6           0       -8.206067    5.984270   -1.278305
     31          6           0       -9.417506    3.764031   -3.314851
     32          6           0       -8.855616    4.074250   -4.753417
     33          7           0       -6.309279   -0.106214   -1.198267
     34          6           0       -7.334219   -0.084005   -2.070744
     35          6           0       -7.537664   -1.408000   -2.566407
     36          6           0       -6.772419   -2.165723   -1.951456
     37          6           0       -5.921375   -1.413197   -1.090533
     38          6           0       -8.632223   -1.753399   -3.571550
     39          6           0       -6.198340   -3.577678   -1.962983
     40          8           0       -6.483497   -4.462264   -2.666047
     41          6           0       -5.031778   -3.493792   -0.861562
     42          6           0       -5.240592   -4.596266    0.137571
     43          8           0       -5.659331   -4.389540    1.279739
     44          8           0       -5.024020   -5.810476   -0.417064
     45          6           0       -5.234854   -7.048526    0.292524
     46          6           0        2.449614   -5.095343    0.659827
     47          6           0        3.499443   -4.112303    0.998291
     48          6           0        4.152977   -3.276268    0.193886
     49          6           0        3.881773   -3.168749   -1.291537
     50          6           0        5.212623   -2.372842    0.668333
     51          6           0        6.584052   -2.787782    0.088179
     52          6           0        7.589621   -1.832648    0.541238
     53          6           0        8.964601   -1.998345   -0.073794
     54          6           0        9.607012   -3.268506    0.146646
     55          6           0        9.963889   -0.904502    0.366791
     56          6           0       11.355541   -0.866082   -0.271080
     57          6           0       12.205313    0.310273    0.262621
     58          6           0       13.514922    0.509352   -0.544562
     59          6           0       14.470498   -0.691162   -0.399051
     60          6           0       14.207229    1.811430   -0.170202
     61          6           0       15.302725    2.177594   -1.174984
     62          6           0       15.956443    3.552166   -0.595828
     63          6           0       17.288948    3.958908   -1.346039
     64          6           0       17.133256    4.073362   -2.887523
     65          6           0       17.833574    5.315264   -0.712334
     66          1           0       -2.669732    1.237606    3.701273
     67          1           0       -6.618431    5.574117    0.804281
     68          1           0       -8.800747    0.839752   -3.194376
     69          1           0       -3.424789   -3.355647    2.010029
     70          1           0       -1.780716   -0.948644    2.857619
     71          1           0       -3.052660   -2.470774    4.492372
     72          1           0       -3.543086   -0.891773    4.643199
     73          1           0       -4.688882   -2.066594    3.682973
     74          1           0       -2.142429   -3.394305   -0.159214
     75          1           0       -1.340962   -1.832181    0.368559
     76          1           0       -0.579681   -2.687289    2.272959
     77          1           0       -1.425802   -4.445138    1.763489
     78          1           0       -1.875285    3.658435    4.039011
     79          1           0       -2.909936    4.788334    5.009017
     80          1           0       -3.083328    3.023752    5.082208
     81          1           0       -5.272380    6.760541    2.485892
     82          1           0       -9.922913    2.739155   -3.386268
     83          1           0      -10.367001    4.597098   -3.052262
     84          1           0       -9.666769    4.014898   -5.446360
     85          1           0       -8.299778    4.920509   -4.625405
     86          1           0       -8.213138    3.187805   -4.874816
     87          1           0       -8.750114   -0.993265   -4.512839
     88          1           0       -8.466851   -2.791190   -3.927325
     89          1           0       -9.652223   -1.844824   -3.034281
     90          1           0       -4.282787   -3.902985   -1.365363
     91          1           0        2.885431   -6.114396    0.950485
     92          1           0        2.115428   -5.224247   -0.402007
     93          1           0        3.462523   -4.099617    2.212087
     94          1           0        2.836918   -3.265214   -1.520783
     95          1           0        4.073574   -2.162655   -1.750152
     96          1           0        4.570417   -3.857549   -1.991169
     97          1           0        5.006284   -1.369894    0.432231
     98          1           0        5.436549   -2.365769    1.794089
     99          1           0        6.767164   -3.809894    0.424432
    100          1           0        6.599695   -2.786390   -1.189944
    101          1           0        7.259543   -0.888176    0.351859
    102          1           0        7.796496   -2.144265    1.750648
    103          1           0        8.805733   -1.784630   -1.169206
    104          1           0        8.875808   -4.095159   -0.073817
    105          1           0       10.371412   -3.567401   -0.592480
    106          1           0        9.962024   -3.631649    1.101810
    107          1           0        9.544005   -0.003472    0.175828
    108          1           0       10.011804   -0.936005    1.510411
    109          1           0       11.733026   -1.614806    0.001030
    110          1           0       11.372070   -0.828815   -1.314689
    111          1           0       11.885015    1.263494    0.011427
    112          1           0       12.352142    0.276893    1.204707
    113          1           0       13.253862    0.722536   -1.667321
    114          1           0       14.887148   -0.596439    0.537261
    115          1           0       14.034556   -1.576727   -0.591979
    116          1           0       15.181646   -0.698954   -1.255669
    117          1           0       13.369215    2.643467   -0.041894
    118          1           0       14.711620    1.721744    0.932820
    119          1           0       16.354444    1.507376   -1.213782
    120          1           0       14.798203    2.233721   -2.263584
    121          1           0       15.122705    4.325293   -0.691455
    122          1           0       16.122692    3.364419    0.440743
    123          1           0       17.928432    3.217516   -1.137877
    124          1           0       16.428897    4.952057   -3.225354
    125          1           0       18.203245    4.252446   -3.196361
    126          1           0       16.836737    3.030880   -3.245205
    127          1           0       18.045708    5.135481    0.418165
    128          1           0       18.726064    5.347098   -1.288810
    129          1           0       17.185700    6.096571   -1.008739
    130          1           0       -5.085666   -7.968978   -0.268667
    131          1           0       -6.295114   -7.011433    0.716780
    132          1           0       -4.540697   -6.965266    1.110966
    133          8           0       -7.799131    6.873424   -0.559834
    134          1           0       -8.859439    6.082565   -2.277671
 ---------------------------------------------------------------------

 SCF Done:  E(RCAM-B3LYP) =  -3043.42307395     A.U. after   16 cycles

 Excitation energies and oscillator strengths:

 Excited State   1:      Singlet-A      2.1123 eV  586.98 nm  f=0.1076  <S**2>=0.000
     243 -> 246        0.33517
     244 -> 245        0.61605
 This state for optimization and/or second-order correction.
 Total Energy, E(TD-HF/TD-KS) =  -3043.34545017
 Copying the excited state density for this state as the 1-particle RhoCI density.

 The electronic state is 1-A.
 Alpha  occ. eigenvalues --  -46.81361 -19.23138 -19.21299 -19.18962 -19.18278
 Alpha  occ. eigenvalues --  -19.17752 -19.17159 -19.15814 -14.39103 -14.36919
 Alpha  occ. eigenvalues --  -14.36225 -14.35924 -10.35761 -10.35713 -10.32471
 Alpha  occ. eigenvalues --  -10.30912 -10.28697 -10.28668 -10.28035 -10.27710
 Alpha  occ. eigenvalues --  -10.27582 -10.26927 -10.26434 -10.26311 -10.25845
 Alpha  occ. eigenvalues --  -10.25475 -10.25458 -10.25329 -10.25253 -10.25076
 Alpha  occ. eigenvalues --  -10.24955 -10.24928 -10.24700 -10.24354 -10.24354
 Alpha  occ. eigenvalues --  -10.24191 -10.23814 -10.23805 -10.23575 -10.23539
 Alpha  occ. eigenvalues --  -10.23218 -10.23213 -10.23198 -10.23012 -10.22612
 Alpha  occ. eigenvalues --  -10.22433 -10.22362 -10.22345 -10.21778 -10.21774
 Alpha  occ. eigenvalues --  -10.21711 -10.21676 -10.21450 -10.21315 -10.21265
 Alpha  occ. eigenvalues --  -10.21224 -10.21104 -10.21093 -10.20738 -10.20584
 Alpha  occ. eigenvalues --  -10.20016 -10.19636 -10.19315 -10.18122 -10.17944
 Alpha  occ. eigenvalues --  -10.17685  -3.09893  -1.84839  -1.84347  -1.84309
 Alpha  occ. eigenvalues --   -1.13277  -1.12611  -1.11227  -1.08202  -1.07087
 Alpha  occ. eigenvalues --   -1.04661  -1.04440  -1.01574  -1.00219  -0.99638
 Alpha  occ. eigenvalues --   -0.98523  -0.89495  -0.87081  -0.85684  -0.85475
 Alpha  occ. eigenvalues --   -0.85391  -0.84572  -0.84426  -0.83471  -0.82691
 Alpha  occ. eigenvalues --   -0.82594  -0.82484  -0.81372  -0.80806  -0.80264
 Alpha  occ. eigenvalues --   -0.78857  -0.78406  -0.77913  -0.77336  -0.76134
 Alpha  occ. eigenvalues --   -0.75227  -0.74795  -0.74372  -0.73702  -0.72171
 Alpha  occ. eigenvalues --   -0.71581  -0.71341  -0.70494  -0.69975  -0.69679
 Alpha  occ. eigenvalues --   -0.69203  -0.68867  -0.66909  -0.66460  -0.65410
 Alpha  occ. eigenvalues --   -0.65333  -0.64710  -0.64024  -0.62486  -0.61824
 Alpha  occ. eigenvalues --   -0.61392  -0.61219  -0.60923  -0.59171  -0.58548
 Alpha  occ. eigenvalues --   -0.58069  -0.57960  -0.57212  -0.57066  -0.57044
 Alpha  occ. eigenvalues --   -0.56885  -0.55982  -0.55770  -0.55267  -0.54464
 Alpha  occ. eigenvalues --   -0.54215  -0.53865  -0.53101  -0.52628  -0.52320
 Alpha  occ. eigenvalues --   -0.52213  -0.51949  -0.51324  -0.51001  -0.50812
 Alpha  occ. eigenvalues --   -0.50350  -0.49997  -0.49783  -0.49503  -0.49200
 Alpha  occ. eigenvalues --   -0.49010  -0.48688  -0.48410  -0.48382  -0.47936
 Alpha  occ. eigenvalues --   -0.47851  -0.47715  -0.47479  -0.47169  -0.46882
 Alpha  occ. eigenvalues --   -0.46673  -0.46367  -0.46299  -0.46047  -0.45881
 Alpha  occ. eigenvalues --   -0.45830  -0.45652  -0.45289  -0.45155  -0.45045
 Alpha  occ. eigenvalues --   -0.44951  -0.44419  -0.44224  -0.43942  -0.43840
 Alpha  occ. eigenvalues --   -0.43748  -0.43350  -0.43215  -0.43139  -0.43007
 Alpha  occ. eigenvalues --   -0.42745  -0.42669  -0.42375  -0.42260  -0.42083
 Alpha  occ. eigenvalues --   -0.41790  -0.41707  -0.41663  -0.41455  -0.41154
 Alpha  occ. eigenvalues --   -0.41094  -0.40868  -0.40486  -0.40194  -0.40147
 Alpha  occ. eigenvalues --   -0.39990  -0.39915  -0.39544  -0.39262  -0.38844
 Alpha  occ. eigenvalues --   -0.38589  -0.38400  -0.38242  -0.38187  -0.37989
 Alpha  occ. eigenvalues --   -0.37872  -0.37753  -0.37683  -0.37530  -0.37304
 Alpha  occ. eigenvalues --   -0.36991  -0.36572  -0.36446  -0.36367  -0.35893
 Alpha  occ. eigenvalues --   -0.35670  -0.35164  -0.34914  -0.34613  -0.34457
 Alpha  occ. eigenvalues --   -0.33997  -0.33988  -0.33812  -0.33377  -0.33188
 Alpha  occ. eigenvalues --   -0.33058  -0.32429  -0.32101  -0.31879  -0.31512
 Alpha  occ. eigenvalues --   -0.31490  -0.31011  -0.30955  -0.30229  -0.29424
 Alpha  occ. eigenvalues --   -0.29293  -0.28345  -0.27811  -0.27517  -0.27359
 Alpha  occ. eigenvalues --   -0.27084  -0.26316  -0.22755  -0.21339
 Alpha virt. eigenvalues --   -0.07602  -0.06712  -0.01500   0.00233   0.01086
 Alpha virt. eigenvalues --    0.02345   0.02989   0.03628   0.03716   0.04559
 Alpha virt. eigenvalues --    0.04845   0.05753   0.07969   0.08235   0.09136

 Mulliken charges:
               1
     1  Mg   0.823719
     2  C    0.105925
     3  C   -0.176737
     4  C   -0.170194
     5  C   -0.155765
     6  N   -0.651759
     7  C    0.382615
     8  C   -0.179525
     9  C   -0.169752
    10  C    0.340627
    11  C   -0.287043
    12  C   -0.178956
    13  C   -0.268271
    14  C    0.584104
    15  O   -0.420222
    16  O   -0.491958
    17  N   -0.748875
    18  C    0.328767
    19  C    0.060223
    20  C   -0.090726
    21  C    0.346617
    22  C   -0.402788
    23  C    0.236307
    24  O   -0.392485
    25  N   -0.686855
    26  C    0.312603
    27  C   -0.037279
    28  C    0.026193
    29  C    0.263425
    30  C    0.273170
    31  C   -0.260704
    32  C   -0.293136
    33  N   -0.727040
    34  C    0.281776
    35  C    0.004049
    36  C    0.063136
    37  C    0.252432
    38  C   -0.389775
    39  C    0.366806
    40  O   -0.393843
    41  C   -0.314331
    42  C    0.596171
    43  O   -0.485291
    44  O   -0.456461
    45  C   -0.083179
    46  C    0.004552
    47  C   -0.143166
    48  C    0.154029
    49  C   -0.380654
    50  C   -0.228279
    51  C   -0.154859
    52  C   -0.129722
    53  C   -0.053696
    54  C   -0.324043
    55  C   -0.179912
    56  C   -0.146343
    57  C   -0.161455
    58  C   -0.080317
    59  C   -0.301157
    60  C   -0.159950
    61  C   -0.163887
    62  C   -0.160654
    63  C   -0.075840
    64  C   -0.301618
    65  C   -0.305313
    66  H    0.094893
    67  H    0.133335
    68  H    0.094204
    69  H    0.123552
    70  H    0.098405
    71  H    0.115114
    72  H    0.119474
    73  H    0.111828
    74  H    0.116364
    75  H    0.120024
    76  H    0.119545
    77  H    0.133682
    78  H    0.134340
    79  H    0.160207
    80  H    0.122232
    81  H    0.078662
    82  H    0.103096
    83  H    0.077123
    84  H    0.123192
    85  H    0.129968
    86  H    0.110271
    87  H    0.104954
    88  H    0.143132
    89  H    0.127501
    90  H    0.153991
    91  H    0.116534
    92  H    0.117182
    93  H    0.079455
    94  H    0.147885
    95  H    0.107576
    96  H    0.103181
    97  H    0.106897
    98  H    0.090867
    99  H    0.108601
   100  H    0.051006
   101  H    0.097447
   102  H    0.049959
   103  H    0.074058
   104  H    0.082700
   105  H    0.105904
   106  H    0.107553
   107  H    0.086653
   108  H    0.067336
   109  H    0.103424
   110  H    0.086272
   111  H    0.086767
   112  H    0.090969
   113  H    0.058560
   114  H    0.106078
   115  H    0.106408
   116  H    0.091594
   117  H    0.077912
   118  H    0.061752
   119  H    0.070356
   120  H    0.080223
   121  H    0.076499
   122  H    0.093877
   123  H    0.095307
   124  H    0.095360
   125  H    0.094845
   126  H    0.103799
   127  H    0.091968
   128  H    0.101038
   129  H    0.112558
   130  H    0.143141
   131  H    0.131201
   132  H    0.129981
   133  O   -0.424023
   134  H    0.040824
 Sum of Mulliken charges =   0.00000

 Dipole moment (field-independent basis, Debye):
    X=              2.4087    Y=             -6.5713    Z=             -0.4556  Tot=              7.0137
 Quadrupole moment (field-independent basis, Debye-Ang):
   XX=           -383.9496   YY=           -434.4492   ZZ=           -393.9578
   XY=             22.9446   XZ=             19.4096   YZ=            -25.0914

 Normal termination of Gaussian 09 at Fri Oct  4 13:02:59 2019.
