 Gaussian 09, Revision D.01,
 Gaussian 09:  ES64L-G09RevD.01 24-Apr-2013

 ----------------------------------------------------------------------
 # td=(NStates=1) iop(3/107=0140000000,3/108=0140000000) iop(3/107=0140
 000000,3/108=0140000000) CAM-B3LYP/6-31G(d,p)
 ----------------------------------------------------------------------

 --
 TD
 --
 Symbolic Z-matrix:
 Charge =  0 Multiplicity = 1

                         Standard orientation:
 ---------------------------------------------------------------------
 Center     Atomic      Atomic             Coordinates (Angstroms)
 Number     Number       Type             X           Y           Z
 ---------------------------------------------------------------------
      1         12           0       -5.762379    1.349296    0.180739
      2          6           0       -4.975610   -2.194624   -0.345837
      3          6           0       -3.351506    1.142183    2.750669
      4          6           0       -6.174266    4.512283    0.677400
      5          6           0       -8.030112    1.181339   -2.465762
      6          7           0       -4.407207   -0.224666    1.052928
      7          6           0       -4.258141   -1.555270    0.729698
      8          6           0       -3.178046   -2.296715    1.460310
      9          6           0       -2.863358   -1.308940    2.558971
     10          6           0       -3.500617    0.003857    2.126721
     11          6           0       -3.297496   -1.796395    4.007718
     12          6           0       -1.884679   -2.744664    0.624479
     13          6           0       -0.986563   -3.621348    1.497312
     14          6           0        0.318277   -3.810151    0.683888
     15          8           0        0.476514   -3.446770   -0.443066
     16          8           0        1.143244   -4.730388    1.310710
     17          7           0       -4.986598    2.654141    1.553884
     18          6           0       -4.037883    2.459659    2.410897
     19          6           0       -3.717125    3.636615    3.110178
     20          6           0       -4.506843    4.672937    2.562282
     21          6           0       -5.243298    3.915665    1.586904
     22          6           0       -2.772799    3.659568    4.277559
     23          6           0       -4.576982    6.063321    2.818729
     24          8           0       -4.092998    6.477425    3.929748
     25          7           0       -6.855712    2.655561   -0.658750
     26          6           0       -6.928228    3.882174   -0.358835
     27          6           0       -7.905145    4.607490   -1.131820
     28          6           0       -8.389156    3.628896   -2.075129
     29          6           0       -7.755727    2.408126   -1.706523
     30          6           0       -8.470392    5.883507   -1.104125
     31          6           0       -9.443650    3.829888   -3.176519
     32          6           0       -8.832505    3.962671   -4.553851
     33          7           0       -6.376598   -0.130796   -1.106307
     34          6           0       -7.300149    0.031907   -2.118312
     35          6           0       -7.535877   -1.379762   -2.765582
     36          6           0       -6.653479   -2.175557   -2.033290
     37          6           0       -6.009719   -1.390293   -1.096590
     38          6           0       -8.563660   -1.613859   -3.869068
     39          6           0       -6.141629   -3.553258   -2.041199
     40          8           0       -6.513268   -4.541245   -2.580882
     41          6           0       -5.060001   -3.558598   -0.915518
     42          6           0       -5.465791   -4.615905    0.073699
     43          8           0       -5.819932   -4.468604    1.200126
     44          8           0       -5.125092   -5.867618   -0.403733
     45          6           0       -5.636839   -6.966116    0.417591
     46          6           0        2.337426   -5.059550    0.627050
     47          6           0        3.424635   -4.083701    0.998871
     48          6           0        3.991296   -3.220379    0.084418
     49          6           0        3.597566   -3.041203   -1.341517
     50          6           0        5.154352   -2.569926    0.705826
     51          6           0        6.526697   -2.726739    0.139556
     52          6           0        7.684528   -1.786438    0.578496
     53          6           0        9.051461   -1.967840   -0.089988
     54          6           0        9.611472   -3.364810    0.261211
     55          6           0        9.883003   -0.773770    0.395266
     56          6           0       11.383623   -0.860246   -0.299710
     57          6           0       12.228095    0.322949    0.223704
     58          6           0       13.636560    0.453973   -0.597388
     59          6           0       14.562674   -0.719831   -0.285888
     60          6           0       14.258810    1.814995   -0.149355
     61          6           0       15.513059    2.115798   -1.018710
     62          6           0       16.053208    3.439248   -0.717224
     63          6           0       17.391661    3.927404   -1.393646
     64          6           0       17.316469    3.854218   -2.908575
     65          6           0       17.754920    5.260953   -0.848292
     66          1           0       -2.506712    1.426532    3.548277
     67          1           0       -6.432931    5.634315    0.645676
     68          1           0       -8.703021    1.132322   -3.409160
     69          1           0       -3.813086   -3.187730    1.872044
     70          1           0       -1.866827   -0.955798    2.584250
     71          1           0       -2.437903   -2.553782    4.422033
     72          1           0       -3.053709   -0.950377    4.687965
     73          1           0       -4.381112   -2.020519    4.144847
     74          1           0       -2.149290   -3.281642   -0.248080
     75          1           0       -1.330374   -1.883792    0.266239
     76          1           0       -0.733356   -3.156747    2.575738
     77          1           0       -1.416542   -4.591510    1.550574
     78          1           0       -1.748120    3.591114    4.024461
     79          1           0       -2.899641    4.558042    4.679731
     80          1           0       -3.049407    2.859388    4.900391
     81          1           0       -5.016147    6.734096    1.966168
     82          1           0      -10.056722    2.885252   -2.980298
     83          1           0      -10.086946    4.755532   -2.781626
     84          1           0       -9.613808    4.065878   -5.339615
     85          1           0       -8.238951    5.150006   -4.823404
     86          1           0       -8.138675    3.019905   -4.693702
     87          1           0       -8.251685   -1.009870   -4.697703
     88          1           0       -8.524478   -2.646401   -4.354421
     89          1           0       -9.487487   -1.197798   -3.371823
     90          1           0       -4.012788   -4.010863   -1.187914
     91          1           0        2.520729   -6.153626    1.006877
     92          1           0        2.019184   -5.120500   -0.417913
     93          1           0        3.871299   -3.961702    2.036214
     94          1           0        2.641681   -3.773048   -1.234731
     95          1           0        3.576592   -1.972049   -1.615085
     96          1           0        4.464015   -3.653465   -1.793264
     97          1           0        5.087771   -1.367429    0.490845
     98          1           0        5.253116   -2.490074    1.925736
     99          1           0        6.724633   -3.782954    0.475272
    100          1           0        6.684738   -2.599513   -1.074057
    101          1           0        7.482328   -0.679783    0.385271
    102          1           0        7.816074   -1.555199    1.666075
    103          1           0        8.892461   -2.068066   -1.146576
    104          1           0        8.897337   -4.124530    0.028844
    105          1           0       10.613925   -3.729390   -0.101452
    106          1           0        9.757627   -3.328051    1.397150
    107          1           0        9.639629    0.138170    0.137159
    108          1           0       10.114266   -0.899135    1.496653
    109          1           0       11.777689   -1.932578   -0.120625
    110          1           0       11.203912   -0.742513   -1.645287
    111          1           0       11.906775    1.179812    0.059601
    112          1           0       12.337052    0.236212    1.200969
    113          1           0       13.401102    0.314636   -1.667112
    114          1           0       14.851937   -0.953538    0.848660
    115          1           0       13.998463   -1.557814   -0.681840
    116          1           0       15.527065   -0.482989   -0.761595
    117          1           0       13.627816    2.717371   -0.103677
    118          1           0       14.749175    1.709383    0.848212
    119          1           0       16.190215    1.260507   -0.754504
    120          1           0       15.425221    2.107836   -2.207379
    121          1           0       15.209943    4.140547   -0.909299
    122          1           0       16.249556    3.732531    0.238349
    123          1           0       18.251928    3.168911   -1.151065
    124          1           0       16.545224    4.772478   -3.243229
    125          1           0       18.295951    4.233681   -3.301587
    126          1           0       17.105100    2.935076   -3.322022
    127          1           0       17.929928    5.308385    0.302505
    128          1           0       18.763439    5.579648   -1.224400
    129          1           0       16.874739    6.131470   -1.234755
    130          1           0       -5.436189   -7.710862   -0.232145
    131          1           0       -6.801021   -6.716800    0.606923
    132          1           0       -5.280594   -7.010875    1.337882
    133          8           0       -7.999635    6.786796   -0.346864
    134          1           0       -9.226543    6.291841   -1.802620
 ---------------------------------------------------------------------

 SCF Done:  E(RCAM-B3LYP) =  -3043.38167092     A.U. after   15 cycles

 Excitation energies and oscillator strengths:

 Excited State   1:      Singlet-A      2.0319 eV  610.19 nm  f=0.1349  <S**2>=0.000
     243 -> 245        0.22696
     243 -> 246        0.24197
     244 -> 245        0.59431
     244 -> 246       -0.16898
 This state for optimization and/or second-order correction.
 Total Energy, E(TD-HF/TD-KS) =  -3043.30700062
 Copying the excited state density for this state as the 1-particle RhoCI density.

 The electronic state is 1-A.
 Alpha  occ. eigenvalues --  -46.81963 -19.21513 -19.21417 -19.18372 -19.17932
 Alpha  occ. eigenvalues --  -19.17694 -19.16642 -19.15566 -14.38490 -14.37695
 Alpha  occ. eigenvalues --  -14.37294 -14.37129 -10.35349 -10.34663 -10.31894
 Alpha  occ. eigenvalues --  -10.30684 -10.29451 -10.28092 -10.28003 -10.27508
 Alpha  occ. eigenvalues --  -10.26997 -10.26864 -10.26434 -10.26430 -10.26319
 Alpha  occ. eigenvalues --  -10.26258 -10.26156 -10.26052 -10.26014 -10.25780
 Alpha  occ. eigenvalues --  -10.25519 -10.25360 -10.24869 -10.24609 -10.24576
 Alpha  occ. eigenvalues --  -10.24295 -10.24219 -10.24061 -10.23763 -10.23752
 Alpha  occ. eigenvalues --  -10.23558 -10.23530 -10.23380 -10.23348 -10.23233
 Alpha  occ. eigenvalues --  -10.23222 -10.23180 -10.22737 -10.22696 -10.22608
 Alpha  occ. eigenvalues --  -10.22569 -10.22466 -10.22109 -10.21829 -10.21798
 Alpha  occ. eigenvalues --  -10.21798 -10.21488 -10.21139 -10.21107 -10.20818
 Alpha  occ. eigenvalues --  -10.20757 -10.20506 -10.20465 -10.19416 -10.19101
 Alpha  occ. eigenvalues --  -10.18220  -3.10732  -1.85650  -1.85220  -1.85147
 Alpha  occ. eigenvalues --   -1.13687  -1.13230  -1.09510  -1.06065  -1.04747
 Alpha  occ. eigenvalues --   -1.04489  -1.03515  -1.03005  -1.02209  -1.00967
 Alpha  occ. eigenvalues --   -0.98133  -0.88512  -0.86409  -0.85746  -0.85237
 Alpha  occ. eigenvalues --   -0.85092  -0.84495  -0.84360  -0.83860  -0.83141
 Alpha  occ. eigenvalues --   -0.83059  -0.82944  -0.81539  -0.80266  -0.79451
 Alpha  occ. eigenvalues --   -0.79065  -0.78314  -0.78041  -0.76919  -0.76195
 Alpha  occ. eigenvalues --   -0.75573  -0.75147  -0.73798  -0.73150  -0.72133
 Alpha  occ. eigenvalues --   -0.71456  -0.71188  -0.70591  -0.69815  -0.69647
 Alpha  occ. eigenvalues --   -0.69142  -0.68796  -0.67660  -0.66886  -0.66212
 Alpha  occ. eigenvalues --   -0.66030  -0.64461  -0.63528  -0.62248  -0.61675
 Alpha  occ. eigenvalues --   -0.61071  -0.60825  -0.59801  -0.59286  -0.58841
 Alpha  occ. eigenvalues --   -0.58481  -0.58095  -0.57607  -0.57341  -0.57170
 Alpha  occ. eigenvalues --   -0.56408  -0.55814  -0.55421  -0.55214  -0.54527
 Alpha  occ. eigenvalues --   -0.54108  -0.53489  -0.53198  -0.52307  -0.51856
 Alpha  occ. eigenvalues --   -0.51388  -0.51346  -0.50978  -0.50790  -0.50324
 Alpha  occ. eigenvalues --   -0.50233  -0.49601  -0.49365  -0.49245  -0.49155
 Alpha  occ. eigenvalues --   -0.49037  -0.48753  -0.48696  -0.48419  -0.48005
 Alpha  occ. eigenvalues --   -0.47890  -0.47845  -0.47633  -0.47111  -0.47023
 Alpha  occ. eigenvalues --   -0.46930  -0.46692  -0.46522  -0.46280  -0.45805
 Alpha  occ. eigenvalues --   -0.45449  -0.45240  -0.45139  -0.44898  -0.44855
 Alpha  occ. eigenvalues --   -0.44688  -0.44489  -0.44425  -0.44300  -0.43914
 Alpha  occ. eigenvalues --   -0.43889  -0.43518  -0.43109  -0.42805  -0.42708
 Alpha  occ. eigenvalues --   -0.42625  -0.42496  -0.42300  -0.42021  -0.41814
 Alpha  occ. eigenvalues --   -0.41547  -0.41270  -0.41120  -0.40862  -0.40737
 Alpha  occ. eigenvalues --   -0.40525  -0.40337  -0.40157  -0.40059  -0.39939
 Alpha  occ. eigenvalues --   -0.39807  -0.39668  -0.39361  -0.39266  -0.39113
 Alpha  occ. eigenvalues --   -0.39036  -0.38703  -0.38507  -0.38243  -0.38085
 Alpha  occ. eigenvalues --   -0.37919  -0.37798  -0.37494  -0.37112  -0.37064
 Alpha  occ. eigenvalues --   -0.36785  -0.36314  -0.36212  -0.35784  -0.35757
 Alpha  occ. eigenvalues --   -0.35286  -0.35253  -0.35235  -0.34640  -0.34266
 Alpha  occ. eigenvalues --   -0.34251  -0.33857  -0.33724  -0.33378  -0.32928
 Alpha  occ. eigenvalues --   -0.32692  -0.32410  -0.32254  -0.32181  -0.31888
 Alpha  occ. eigenvalues --   -0.31428  -0.31185  -0.30973  -0.29542  -0.28939
 Alpha  occ. eigenvalues --   -0.28591  -0.28503  -0.28314  -0.28004  -0.27580
 Alpha  occ. eigenvalues --   -0.26925  -0.26076  -0.22708  -0.21955
 Alpha virt. eigenvalues --   -0.08872  -0.06850  -0.01407  -0.00656   0.00478
 Alpha virt. eigenvalues --    0.02879   0.03058   0.03320   0.03530   0.03808
 Alpha virt. eigenvalues --    0.05124   0.05287   0.06934   0.07795   0.08109

 Mulliken charges:
               1
     1  Mg   0.869115
     2  C    0.082225
     3  C   -0.205682
     4  C   -0.184600
     5  C   -0.173773
     6  N   -0.620711
     7  C    0.305119
     8  C   -0.158475
     9  C   -0.133864
    10  C    0.340572
    11  C   -0.306861
    12  C   -0.173279
    13  C   -0.257334
    14  C    0.591133
    15  O   -0.442712
    16  O   -0.463162
    17  N   -0.673056
    18  C    0.298906
    19  C   -0.022158
    20  C    0.064743
    21  C    0.293802
    22  C   -0.376124
    23  C    0.199228
    24  O   -0.442294
    25  N   -0.757935
    26  C    0.357576
    27  C    0.016669
    28  C    0.010560
    29  C    0.252032
    30  C    0.182439
    31  C   -0.229951
    32  C   -0.276659
    33  N   -0.724672
    34  C    0.263897
    35  C    0.002562
    36  C    0.006040
    37  C    0.319956
    38  C   -0.377806
    39  C    0.379875
    40  O   -0.421361
    41  C   -0.372279
    42  C    0.619895
    43  O   -0.453359
    44  O   -0.472847
    45  C   -0.069959
    46  C   -0.033389
    47  C   -0.115528
    48  C    0.136181
    49  C   -0.336164
    50  C   -0.231592
    51  C   -0.151360
    52  C   -0.175268
    53  C   -0.046216
    54  C   -0.313833
    55  C   -0.174046
    56  C   -0.185242
    57  C   -0.143704
    58  C   -0.065181
    59  C   -0.305419
    60  C   -0.187047
    61  C   -0.172858
    62  C   -0.151011
    63  C   -0.046950
    64  C   -0.286025
    65  C   -0.289205
    66  H    0.085961
    67  H    0.142294
    68  H    0.113662
    69  H    0.130314
    70  H    0.109731
    71  H    0.092447
    72  H    0.109433
    73  H    0.132252
    74  H    0.119541
    75  H    0.128591
    76  H    0.122965
    77  H    0.152507
    78  H    0.125946
    79  H    0.153694
    80  H    0.126899
    81  H    0.101917
    82  H    0.113684
    83  H    0.100443
    84  H    0.122008
    85  H    0.074206
    86  H    0.107058
    87  H    0.140095
    88  H    0.148170
    89  H    0.139093
    90  H    0.158316
    91  H    0.107109
    92  H    0.126548
    93  H    0.088115
    94  H    0.130218
    95  H    0.128998
    96  H    0.118958
    97  H    0.052357
    98  H    0.089072
    99  H    0.093715
   100  H    0.072259
   101  H    0.078767
   102  H    0.080961
   103  H    0.089474
   104  H    0.110401
   105  H    0.096660
   106  H    0.083825
   107  H    0.112351
   108  H    0.090440
   109  H    0.096034
   110  H    0.021135
   111  H    0.096683
   112  H    0.098622
   113  H    0.091358
   114  H    0.077858
   115  H    0.106037
   116  H    0.101428
   117  H    0.086501
   118  H    0.099259
   119  H    0.086080
   120  H    0.072574
   121  H    0.077656
   122  H    0.088631
   123  H    0.070433
   124  H    0.063612
   125  H    0.092308
   126  H    0.116532
   127  H    0.097472
   128  H    0.098603
   129  H    0.064443
   130  H    0.132920
   131  H    0.106181
   132  H    0.140181
   133  O   -0.460616
   134  H    0.085045
 Sum of Mulliken charges =   0.00000

 Dipole moment (field-independent basis, Debye):
    X=              1.2077    Y=             -5.2436    Z=             -2.3644  Tot=              5.8774
 Quadrupole moment (field-independent basis, Debye-Ang):
   XX=           -371.2390   YY=           -447.6342   ZZ=           -398.1040
   XY=             17.5864   XZ=             40.5268   YZ=            -34.3495

 Normal termination of Gaussian 09 at Sat Oct  5 01:16:40 2019.
