 Gaussian 09, Revision D.01,
 Gaussian 09:  ES64L-G09RevD.01 24-Apr-2013

 ----------------------------------------------------------------------
 # td=(NStates=1) iop(3/107=0140000000,3/108=0140000000) iop(3/107=0140
 000000,3/108=0140000000) CAM-B3LYP/6-31G(d,p)
 ----------------------------------------------------------------------

 --
 TD
 --
 Symbolic Z-matrix:
 Charge =  0 Multiplicity = 1

                         Standard orientation:
 ---------------------------------------------------------------------
 Center     Atomic      Atomic             Coordinates (Angstroms)
 Number     Number       Type             X           Y           Z
 ---------------------------------------------------------------------
      1         12           0       -5.655375    1.223842    0.135934
      2          6           0       -5.017897   -2.077431   -0.359078
      3          6           0       -3.416987    1.201360    2.874131
      4          6           0       -6.066736    4.519105    0.568169
      5          6           0       -7.893272    1.271253   -2.447393
      6          7           0       -4.462499   -0.268702    1.106916
      7          6           0       -4.330035   -1.484340    0.606905
      8          6           0       -3.397012   -2.325684    1.527667
      9          6           0       -2.990369   -1.312399    2.717949
     10          6           0       -3.634402    0.018929    2.213049
     11          6           0       -3.469618   -1.645048    4.090709
     12          6           0       -2.031402   -2.761804    0.819719
     13          6           0       -1.043151   -3.580714    1.537043
     14          6           0        0.215207   -3.888924    0.730819
     15          8           0        0.376965   -3.626672   -0.508610
     16          8           0        1.066969   -4.674235    1.374322
     17          7           0       -4.921884    2.621314    1.450125
     18          6           0       -3.971978    2.445361    2.463048
     19          6           0       -3.663798    3.640711    3.091897
     20          6           0       -4.381594    4.668240    2.449832
     21          6           0       -5.119796    3.980334    1.447215
     22          6           0       -2.820252    3.736439    4.335778
     23          6           0       -4.451699    6.182017    2.904285
     24          8           0       -3.969108    6.561893    3.860514
     25          7           0       -6.712461    2.663785   -0.790940
     26          6           0       -6.849340    3.929101   -0.350726
     27          6           0       -7.851101    4.544574   -1.211389
     28          6           0       -8.385864    3.589270   -1.973141
     29          6           0       -7.616203    2.386823   -1.790758
     30          6           0       -8.242505    5.969971   -1.021816
     31          6           0       -9.355918    3.838521   -3.081594
     32          6           0       -8.787599    3.996744   -4.501083
     33          7           0       -6.407945   -0.078927   -1.165575
     34          6           0       -7.317864   -0.042473   -2.166329
     35          6           0       -7.451472   -1.334647   -2.820353
     36          6           0       -6.670587   -2.176462   -2.108450
     37          6           0       -5.932652   -1.352402   -1.195267
     38          6           0       -8.431864   -1.592587   -3.926340
     39          6           0       -6.098277   -3.541134   -2.051771
     40          8           0       -6.601765   -4.530963   -2.603067
     41          6           0       -4.970631   -3.578182   -0.899246
     42          6           0       -5.303977   -4.655702    0.131057
     43          8           0       -5.764744   -4.362560    1.205754
     44          8           0       -4.988061   -5.886572   -0.375343
     45          6           0       -5.356592   -6.958336    0.509038
     46          6           0        2.290038   -4.936428    0.564369
     47          6           0        3.462214   -4.135696    0.945802
     48          6           0        4.045510   -3.324709    0.116443
     49          6           0        3.804201   -3.117334   -1.314961
     50          6           0        5.180618   -2.453185    0.747202
     51          6           0        6.528629   -2.787779    0.052361
     52          6           0        7.575281   -1.908049    0.594110
     53          6           0        9.011703   -2.047724   -0.156702
     54          6           0        9.464444   -3.467310    0.226536
     55          6           0        9.984535   -1.032058    0.465714
     56          6           0       11.272663   -0.886740   -0.290740
     57          6           0       12.137285    0.278783    0.216373
     58          6           0       13.430096    0.448837   -0.558794
     59          6           0       14.354945   -0.739579   -0.336126
     60          6           0       14.016703    1.807011   -0.180344
     61          6           0       15.254986    2.283107   -1.075987
     62          6           0       15.915875    3.644677   -0.759789
     63          6           0       17.248893    3.940721   -1.331122
     64          6           0       17.196378    4.100310   -2.863892
     65          6           0       18.010423    5.182605   -0.672694
     66          1           0       -2.571988    1.292546    3.574787
     67          1           0       -6.227289    5.705567    0.602418
     68          1           0       -8.800807    1.111597   -3.019124
     69          1           0       -3.815246   -3.355335    1.889195
     70          1           0       -1.855506   -1.145281    2.816589
     71          1           0       -2.702862   -2.495061    4.432288
     72          1           0       -3.384263   -0.906144    4.804014
     73          1           0       -4.510304   -1.814187    4.007734
     74          1           0       -2.152926   -3.341226   -0.176359
     75          1           0       -1.678969   -1.838043    0.618921
     76          1           0       -0.787501   -3.381875    2.523971
     77          1           0       -1.315244   -4.760918    1.676506
     78          1           0       -1.800982    3.222954    4.229340
     79          1           0       -2.566650    4.823961    4.598703
     80          1           0       -3.488945    3.457781    5.271893
     81          1           0       -5.307311    6.620889    2.321761
     82          1           0      -10.091035    3.054730   -3.406064
     83          1           0       -9.831942    4.653883   -2.814048
     84          1           0       -9.652882    4.141997   -5.158033
     85          1           0       -8.147911    4.892499   -4.566278
     86          1           0       -8.183587    3.137190   -4.926387
     87          1           0       -7.947232   -1.096182   -4.760450
     88          1           0       -8.371834   -2.662032   -4.165173
     89          1           0       -9.318849   -1.175497   -3.728710
     90          1           0       -4.013097   -3.953473   -1.362638
     91          1           0        2.376127   -6.167548    0.511206
     92          1           0        2.160537   -4.972247   -0.588659
     93          1           0        3.663504   -4.270054    2.087088
     94          1           0        2.639789   -3.129053   -1.448832
     95          1           0        4.165379   -2.022027   -1.764621
     96          1           0        4.244407   -3.984689   -1.976694
     97          1           0        4.908955   -1.505092    0.432674
     98          1           0        5.276954   -2.702040    1.695815
     99          1           0        6.653232   -3.702118    0.401290
    100          1           0        6.372106   -2.729287   -1.037393
    101          1           0        7.244922   -0.838818    0.779851
    102          1           0        7.644642   -2.187505    1.644628
    103          1           0        8.918808   -2.167397   -1.244144
    104          1           0        8.668639   -4.238851    0.010908
    105          1           0       10.378481   -3.541146   -0.621376
    106          1           0       10.052247   -3.590995    1.255720
    107          1           0        9.333970   -0.077776    0.469105
    108          1           0       10.071790   -1.503969    1.459057
    109          1           0       11.732473   -2.098459   -0.192129
    110          1           0       11.145021   -0.636344   -1.332019
    111          1           0       11.507404    1.168858   -0.031025
    112          1           0       12.320662    0.528216    1.334899
    113          1           0       13.255828    0.299040   -1.626768
    114          1           0       14.495514   -1.022102    0.849449
    115          1           0       13.819067   -1.582512   -0.765829
    116          1           0       15.240526   -0.711008   -0.868843
    117          1           0       13.261367    2.645449   -0.136841
    118          1           0       14.376963    1.609444    0.783908
    119          1           0       15.961164    1.524012   -1.309452
    120          1           0       14.961170    2.459589   -2.092772
    121          1           0       15.237656    4.302355   -1.100029
    122          1           0       16.058413    3.755324    0.307068
    123          1           0       17.935520    3.066322   -1.014516
    124          1           0       16.737506    5.116139   -3.156202
    125          1           0       18.106628    4.249357   -3.363537
    126          1           0       16.605539    3.291816   -3.472528
    127          1           0       18.236950    4.604308    0.304282
    128          1           0       18.987614    5.370263   -1.205138
    129          1           0       17.245314    5.898063   -0.798631
    130          1           0       -4.910357   -7.764641    0.046701
    131          1           0       -6.339303   -7.052290    0.685598
    132          1           0       -4.887454   -6.862859    1.344743
    133          8           0       -7.792887    6.878501   -0.392531
    134          1           0       -9.030512    6.098731   -1.872077
 ---------------------------------------------------------------------

 SCF Done:  E(RCAM-B3LYP) =  -3043.45042263     A.U. after   16 cycles

 Excitation energies and oscillator strengths:

 Excited State   1:      Singlet-A      2.0326 eV  609.97 nm  f=0.2548  <S**2>=0.000
     243 -> 246        0.23072
     244 -> 245        0.66291
 This state for optimization and/or second-order correction.
 Total Energy, E(TD-HF/TD-KS) =  -3043.37572460
 Copying the excited state density for this state as the 1-particle RhoCI density.

 The electronic state is 1-A.
 Alpha  occ. eigenvalues --  -46.80485 -19.23262 -19.23245 -19.18887 -19.18767
 Alpha  occ. eigenvalues --  -19.18039 -19.17297 -19.15824 -14.38767 -14.36526
 Alpha  occ. eigenvalues --  -14.36294 -14.36086 -10.35577 -10.35098 -10.32103
 Alpha  occ. eigenvalues --  -10.31378 -10.31373 -10.28294 -10.27335 -10.26647
 Alpha  occ. eigenvalues --  -10.26178 -10.26087 -10.25811 -10.25724 -10.25614
 Alpha  occ. eigenvalues --  -10.25399 -10.25382 -10.24717 -10.24627 -10.24507
 Alpha  occ. eigenvalues --  -10.24358 -10.24194 -10.24135 -10.24033 -10.23867
 Alpha  occ. eigenvalues --  -10.23817 -10.23348 -10.23206 -10.23171 -10.22986
 Alpha  occ. eigenvalues --  -10.22847 -10.22736 -10.22628 -10.22486 -10.22484
 Alpha  occ. eigenvalues --  -10.22422 -10.22286 -10.22194 -10.22120 -10.21951
 Alpha  occ. eigenvalues --  -10.21787 -10.21677 -10.21555 -10.21406 -10.21326
 Alpha  occ. eigenvalues --  -10.21283 -10.21047 -10.21002 -10.20825 -10.20687
 Alpha  occ. eigenvalues --  -10.20489 -10.20035 -10.19911 -10.19781 -10.19507
 Alpha  occ. eigenvalues --  -10.18931  -3.09221  -1.84158  -1.83697  -1.83631
 Alpha  occ. eigenvalues --   -1.13630  -1.13087  -1.12678  -1.09175  -1.06214
 Alpha  occ. eigenvalues --   -1.05805  -1.01170  -1.01107  -1.00170  -0.99251
 Alpha  occ. eigenvalues --   -0.98397  -0.87708  -0.87124  -0.86267  -0.85660
 Alpha  occ. eigenvalues --   -0.85125  -0.84662  -0.84424  -0.84392  -0.83666
 Alpha  occ. eigenvalues --   -0.83596  -0.82274  -0.81546  -0.80954  -0.80091
 Alpha  occ. eigenvalues --   -0.79267  -0.78507  -0.78002  -0.77728  -0.76422
 Alpha  occ. eigenvalues --   -0.75343  -0.74674  -0.74141  -0.73725  -0.72010
 Alpha  occ. eigenvalues --   -0.71119  -0.70863  -0.70371  -0.69975  -0.69479
 Alpha  occ. eigenvalues --   -0.69239  -0.68529  -0.67050  -0.66704  -0.65868
 Alpha  occ. eigenvalues --   -0.65313  -0.64799  -0.64657  -0.62821  -0.61894
 Alpha  occ. eigenvalues --   -0.61566  -0.60693  -0.60404  -0.59581  -0.58711
 Alpha  occ. eigenvalues --   -0.58462  -0.58157  -0.58072  -0.57661  -0.56657
 Alpha  occ. eigenvalues --   -0.56243  -0.55570  -0.55371  -0.54868  -0.54572
 Alpha  occ. eigenvalues --   -0.53693  -0.53359  -0.53198  -0.53078  -0.52739
 Alpha  occ. eigenvalues --   -0.51978  -0.51394  -0.51035  -0.50828  -0.50699
 Alpha  occ. eigenvalues --   -0.50468  -0.50377  -0.50142  -0.49456  -0.49178
 Alpha  occ. eigenvalues --   -0.49019  -0.48942  -0.48850  -0.48308  -0.48083
 Alpha  occ. eigenvalues --   -0.47755  -0.47695  -0.47647  -0.47346  -0.47158
 Alpha  occ. eigenvalues --   -0.46958  -0.46812  -0.46601  -0.46331  -0.46297
 Alpha  occ. eigenvalues --   -0.45766  -0.45407  -0.45245  -0.45168  -0.44943
 Alpha  occ. eigenvalues --   -0.44767  -0.44684  -0.44418  -0.44074  -0.43757
 Alpha  occ. eigenvalues --   -0.43659  -0.43390  -0.43297  -0.43198  -0.43022
 Alpha  occ. eigenvalues --   -0.42712  -0.42667  -0.42644  -0.42294  -0.42215
 Alpha  occ. eigenvalues --   -0.41804  -0.41645  -0.41456  -0.41194  -0.40811
 Alpha  occ. eigenvalues --   -0.40580  -0.40492  -0.40438  -0.40256  -0.40119
 Alpha  occ. eigenvalues --   -0.39893  -0.39693  -0.39550  -0.39429  -0.38972
 Alpha  occ. eigenvalues --   -0.38795  -0.38605  -0.38426  -0.38317  -0.38201
 Alpha  occ. eigenvalues --   -0.37859  -0.37562  -0.37506  -0.37281  -0.36827
 Alpha  occ. eigenvalues --   -0.36489  -0.35844  -0.35801  -0.35539  -0.35438
 Alpha  occ. eigenvalues --   -0.35362  -0.35215  -0.35132  -0.34958  -0.34820
 Alpha  occ. eigenvalues --   -0.33961  -0.33949  -0.33618  -0.33444  -0.33058
 Alpha  occ. eigenvalues --   -0.32994  -0.32390  -0.31737  -0.31414  -0.31322
 Alpha  occ. eigenvalues --   -0.31260  -0.30748  -0.30215  -0.30031  -0.29087
 Alpha  occ. eigenvalues --   -0.29012  -0.28695  -0.28334  -0.27958  -0.27704
 Alpha  occ. eigenvalues --   -0.27673  -0.27189  -0.23012  -0.21563
 Alpha virt. eigenvalues --   -0.08859  -0.05811  -0.01267  -0.00111   0.00623
 Alpha virt. eigenvalues --    0.02969   0.03271   0.04049   0.04202   0.04594
 Alpha virt. eigenvalues --    0.05042   0.05708   0.08503   0.08749   0.09128

 Mulliken charges:
               1
     1  Mg   0.807799
     2  C    0.104510
     3  C   -0.170428
     4  C   -0.221284
     5  C   -0.178617
     6  N   -0.654960
     7  C    0.337586
     8  C   -0.189315
     9  C   -0.146776
    10  C    0.302522
    11  C   -0.288116
    12  C   -0.156264
    13  C   -0.258861
    14  C    0.604779
    15  O   -0.511922
    16  O   -0.449654
    17  N   -0.701508
    18  C    0.316862
    19  C    0.027259
    20  C   -0.060762
    21  C    0.310710
    22  C   -0.394059
    23  C    0.277716
    24  O   -0.340045
    25  N   -0.732476
    26  C    0.340559
    27  C   -0.023708
    28  C   -0.001756
    29  C    0.363288
    30  C    0.280077
    31  C   -0.230715
    32  C   -0.316306
    33  N   -0.698832
    34  C    0.254272
    35  C   -0.025480
    36  C    0.048190
    37  C    0.254061
    38  C   -0.367624
    39  C    0.361669
    40  O   -0.456074
    41  C   -0.312343
    42  C    0.640132
    43  O   -0.455791
    44  O   -0.458574
    45  C   -0.079471
    46  C   -0.024064
    47  C   -0.119246
    48  C    0.156213
    49  C   -0.392227
    50  C   -0.214204
    51  C   -0.180251
    52  C   -0.173262
    53  C   -0.064987
    54  C   -0.297700
    55  C   -0.150476
    56  C   -0.157727
    57  C   -0.170664
    58  C   -0.058455
    59  C   -0.300624
    60  C   -0.165464
    61  C   -0.205031
    62  C   -0.151946
    63  C   -0.077362
    64  C   -0.314390
    65  C   -0.300384
    66  H    0.094606
    67  H    0.131014
    68  H    0.093297
    69  H    0.117666
    70  H    0.091719
    71  H    0.084719
    72  H    0.120909
    73  H    0.129120
    74  H    0.106278
    75  H    0.125247
    76  H    0.133918
    77  H    0.116777
    78  H    0.111502
    79  H    0.144148
    80  H    0.122939
    81  H    0.075159
    82  H    0.106698
    83  H    0.114389
    84  H    0.111055
    85  H    0.110889
    86  H    0.111036
    87  H    0.132641
    88  H    0.147656
    89  H    0.133620
    90  H    0.158822
    91  H    0.079071
    92  H    0.138451
    93  H    0.084276
    94  H    0.154657
    95  H    0.092836
    96  H    0.119851
    97  H    0.107895
    98  H    0.095873
    99  H    0.112244
   100  H    0.092557
   101  H    0.070725
   102  H    0.085723
   103  H    0.090209
   104  H    0.106133
   105  H    0.061579
   106  H    0.090794
   107  H    0.077530
   108  H    0.099483
   109  H    0.056926
   110  H    0.104748
   111  H    0.089417
   112  H    0.082117
   113  H    0.078112
   114  H    0.068068
   115  H    0.105235
   116  H    0.110042
   117  H    0.082563
   118  H    0.103002
   119  H    0.090825
   120  H    0.091655
   121  H    0.098936
   122  H    0.079642
   123  H    0.068870
   124  H    0.080093
   125  H    0.107362
   126  H    0.087074
   127  H    0.100903
   128  H    0.103795
   129  H    0.116910
   130  H    0.126509
   131  H    0.141141
   132  H    0.130681
   133  O   -0.404839
   134  H    0.026479
 Sum of Mulliken charges =   0.00000

 Dipole moment (field-independent basis, Debye):
    X=              1.1739    Y=             -3.4388    Z=             -0.8494  Tot=              3.7316
 Quadrupole moment (field-independent basis, Debye-Ang):
   XX=           -389.2099   YY=           -429.2679   ZZ=           -391.7872
   XY=              6.3443   XZ=             13.4552   YZ=            -28.6792

 Normal termination of Gaussian 09 at Mon Oct  7 23:32:46 2019.
