 Gaussian 09, Revision D.01,
 Gaussian 09:  ES64L-G09RevD.01 24-Apr-2013

 ----------------------------------------------------------------------
 # td=(NStates=1) iop(3/107=0140000000,3/108=0140000000) iop(3/107=0140
 000000,3/108=0140000000) CAM-B3LYP/6-31G(d,p)
 ----------------------------------------------------------------------

 --
 TD
 --
 Symbolic Z-matrix:
 Charge =  0 Multiplicity = 1

                         Standard orientation:
 ---------------------------------------------------------------------
 Center     Atomic      Atomic             Coordinates (Angstroms)
 Number     Number       Type             X           Y           Z
 ---------------------------------------------------------------------
      1         12           0       -5.604450    1.226913    0.221472
      2          6           0       -5.115927   -2.176777   -0.253879
      3          6           0       -3.336143    1.299512    2.761882
      4          6           0       -6.236733    4.642830    0.561998
      5          6           0       -7.881632    1.187369   -2.367701
      6          7           0       -4.430579   -0.202558    1.050501
      7          6           0       -4.329728   -1.582685    0.668207
      8          6           0       -3.193134   -2.279171    1.487334
      9          6           0       -2.847796   -1.316596    2.601076
     10          6           0       -3.515438    0.009747    2.231445
     11          6           0       -3.349063   -1.775261    4.051010
     12          6           0       -1.984750   -2.660440    0.640727
     13          6           0       -1.045369   -3.548841    1.404867
     14          6           0        0.158876   -3.999817    0.571316
     15          8           0        0.385998   -3.569449   -0.587484
     16          8           0        1.029007   -4.687023    1.292921
     17          7           0       -4.816202    2.745865    1.486299
     18          6           0       -3.936274    2.483726    2.364666
     19          6           0       -3.590073    3.784940    2.959991
     20          6           0       -4.406684    4.775960    2.426891
     21          6           0       -5.247904    4.062987    1.438991
     22          6           0       -2.723040    3.909517    4.178907
     23          6           0       -4.518888    6.087850    2.933959
     24          8           0       -3.925463    6.770042    3.730306
     25          7           0       -6.845197    2.638159   -0.711411
     26          6           0       -6.899965    3.979261   -0.376461
     27          6           0       -7.927127    4.552024   -1.292671
     28          6           0       -8.486989    3.631151   -2.116498
     29          6           0       -7.658697    2.355951   -1.776351
     30          6           0       -8.336351    5.953820   -1.357729
     31          6           0       -9.530878    3.640550   -3.055898
     32          6           0       -8.865748    3.967009   -4.496785
     33          7           0       -6.398873   -0.115167   -1.060377
     34          6           0       -7.245209   -0.017149   -2.003081
     35          6           0       -7.444855   -1.360531   -2.748794
     36          6           0       -6.593184   -2.196989   -2.012235
     37          6           0       -5.982919   -1.446583   -1.004993
     38          6           0       -8.474010   -1.695478   -3.644805
     39          6           0       -6.205519   -3.594751   -1.878777
     40          8           0       -6.572461   -4.579700   -2.540958
     41          6           0       -5.009611   -3.616611   -0.792592
     42          6           0       -5.352223   -4.695903    0.265460
     43          8           0       -5.797907   -4.482650    1.403842
     44          8           0       -4.951261   -5.887854   -0.173766
     45          6           0       -5.314845   -6.964455    0.733930
     46          6           0        2.283621   -5.107530    0.615689
     47          6           0        3.320507   -4.121281    1.027109
     48          6           0        4.017781   -3.260331    0.144699
     49          6           0        3.745907   -3.303386   -1.390226
     50          6           0        5.139728   -2.483618    0.680160
     51          6           0        6.487183   -2.751291    0.022466
     52          6           0        7.693601   -1.906430    0.481946
     53          6           0        8.912710   -1.952873   -0.275579
     54          6           0        9.583090   -3.394818   -0.214004
     55          6           0        9.848077   -0.941651    0.274047
     56          6           0       11.304259   -0.907784   -0.343042
     57          6           0       12.133239    0.401966    0.050060
     58          6           0       13.497097    0.467657   -0.671476
     59          6           0       14.385180   -0.671306   -0.382684
     60          6           0       14.200231    1.802573   -0.131940
     61          6           0       15.386850    2.178932   -0.962094
     62          6           0       16.195044    3.459578   -0.559299
     63          6           0       17.326009    3.912080   -1.127916
     64          6           0       17.146606    4.039375   -2.658489
     65          6           0       17.868733    5.224912   -0.543352
     66          1           0       -2.589417    1.288053    3.696737
     67          1           0       -6.246095    5.655845    0.683359
     68          1           0       -8.737117    1.050462   -3.049399
     69          1           0       -3.532341   -3.148263    2.232131
     70          1           0       -1.786638   -1.263605    2.704999
     71          1           0       -2.686457   -2.703183    4.293472
     72          1           0       -3.138844   -0.958284    4.737106
     73          1           0       -4.226431   -1.846425    4.030114
     74          1           0       -2.388058   -3.211781   -0.168083
     75          1           0       -1.432114   -1.846149    0.203724
     76          1           0       -0.595200   -3.009517    2.299660
     77          1           0       -1.833611   -4.328355    1.791271
     78          1           0       -1.598911    3.756592    3.901495
     79          1           0       -2.900849    4.820417    4.699448
     80          1           0       -3.121287    3.049799    4.917520
     81          1           0       -5.221113    6.937026    2.380287
     82          1           0      -10.287608    2.743736   -2.974039
     83          1           0      -10.154383    4.592801   -3.061361
     84          1           0       -9.676725    3.746669   -5.289075
     85          1           0       -8.486902    5.160201   -4.692575
     86          1           0       -8.205951    3.105617   -4.680780
     87          1           0       -8.348701   -0.906154   -4.620370
     88          1           0       -8.260667   -2.708618   -3.952960
     89          1           0       -9.644953   -1.709913   -3.279309
     90          1           0       -4.205543   -3.681564   -1.388783
     91          1           0        2.318703   -6.078693    1.221067
     92          1           0        2.187786   -5.064641   -0.494102
     93          1           0        3.625231   -4.165910    2.126335
     94          1           0        2.603134   -3.775537   -1.567852
     95          1           0        3.888579   -2.297564   -1.583101
     96          1           0        4.541360   -3.767422   -2.220420
     97          1           0        4.888731   -1.362806    0.510949
     98          1           0        5.313496   -2.535521    1.693291
     99          1           0        6.637549   -4.057923    0.175755
    100          1           0        6.388936   -2.742241   -1.196721
    101          1           0        7.416019   -0.920523    0.695252
    102          1           0        7.837436   -2.321826    1.455311
    103          1           0        8.684463   -1.561514   -1.252685
    104          1           0        8.888578   -4.359830   -0.476730
    105          1           0       10.518281   -3.482007   -0.998983
    106          1           0        9.986193   -3.609639    0.730941
    107          1           0        9.300649   -0.056251   -0.021570
    108          1           0        9.990452   -1.301130    1.380090
    109          1           0       11.722099   -1.855353   -0.156010
    110          1           0       11.158480   -0.794096   -1.477195
    111          1           0       11.459764    1.187750   -0.320570
    112          1           0       12.250827    0.456193    1.100536
    113          1           0       13.325814    0.592304   -1.846189
    114          1           0       14.455933   -0.845582    0.740299
    115          1           0       13.828004   -1.664730   -0.869634
    116          1           0       15.474929   -0.643270   -0.747922
    117          1           0       13.439236    2.555113   -0.113337
    118          1           0       14.423682    1.656315    0.948222
    119          1           0       16.363175    1.507380   -0.997708
    120          1           0       15.052424    2.160316   -2.023788
    121          1           0       15.441798    4.269431   -0.565999
    122          1           0       16.259192    3.427348    0.490758
    123          1           0       18.077773    3.255215   -0.774391
    124          1           0       16.408872    4.837923   -2.828408
    125          1           0       18.136485    4.414659   -3.296191
    126          1           0       16.700162    3.136967   -3.192398
    127          1           0       18.271069    5.206313    0.393266
    128          1           0       18.727826    5.404879   -0.991114
    129          1           0       17.116346    5.919392   -0.837976
    130          1           0       -4.880035   -7.911910    0.196974
    131          1           0       -6.312064   -6.904794    0.989612
    132          1           0       -4.628314   -6.978974    1.572916
    133          8           0       -7.969904    6.873083   -0.591812
    134          1           0       -9.163614    6.322519   -2.099212
 ---------------------------------------------------------------------

 SCF Done:  E(RCAM-B3LYP) =  -3043.35696363     A.U. after   16 cycles

 Excitation energies and oscillator strengths:

 Excited State   1:      Singlet-A      1.8255 eV  679.17 nm  f=0.3055  <S**2>=0.000
     243 -> 246        0.16730
     244 -> 245        0.68434
 This state for optimization and/or second-order correction.
 Total Energy, E(TD-HF/TD-KS) =  -3043.28987670
 Copying the excited state density for this state as the 1-particle RhoCI density.

 The electronic state is 1-A.
 Alpha  occ. eigenvalues --  -46.81449 -19.23783 -19.22758 -19.17876 -19.17707
 Alpha  occ. eigenvalues --  -19.16895 -19.16594 -19.15669 -14.39541 -14.37390
 Alpha  occ. eigenvalues --  -14.37120 -14.36900 -10.36208 -10.35401 -10.32205
 Alpha  occ. eigenvalues --  -10.30522 -10.29559 -10.28671 -10.28552 -10.27936
 Alpha  occ. eigenvalues --  -10.27750 -10.27081 -10.26582 -10.26542 -10.26394
 Alpha  occ. eigenvalues --  -10.25942 -10.25708 -10.25413 -10.25228 -10.25209
 Alpha  occ. eigenvalues --  -10.25201 -10.24957 -10.24931 -10.24923 -10.24723
 Alpha  occ. eigenvalues --  -10.24604 -10.24532 -10.24520 -10.24083 -10.23994
 Alpha  occ. eigenvalues --  -10.23786 -10.23621 -10.23413 -10.23274 -10.22938
 Alpha  occ. eigenvalues --  -10.22763 -10.22623 -10.22613 -10.22582 -10.22534
 Alpha  occ. eigenvalues --  -10.22417 -10.22261 -10.22088 -10.21873 -10.21694
 Alpha  occ. eigenvalues --  -10.21506 -10.21424 -10.21373 -10.21263 -10.21214
 Alpha  occ. eigenvalues --  -10.21147 -10.20802 -10.20332 -10.20033 -10.18551
 Alpha  occ. eigenvalues --  -10.17877  -3.10048  -1.84994  -1.84496  -1.84475
 Alpha  occ. eigenvalues --   -1.14338  -1.13250  -1.06310  -1.06183  -1.04504
 Alpha  occ. eigenvalues --   -1.04323  -1.03006  -1.02043  -1.01315  -0.98873
 Alpha  occ. eigenvalues --   -0.95767  -0.90048  -0.87329  -0.86901  -0.86452
 Alpha  occ. eigenvalues --   -0.86276  -0.85393  -0.85028  -0.84498  -0.84134
 Alpha  occ. eigenvalues --   -0.83452  -0.82984  -0.82109  -0.80773  -0.80092
 Alpha  occ. eigenvalues --   -0.78933  -0.78542  -0.78161  -0.77501  -0.76780
 Alpha  occ. eigenvalues --   -0.75043  -0.74747  -0.74309  -0.73957  -0.72190
 Alpha  occ. eigenvalues --   -0.71514  -0.71426  -0.70143  -0.70138  -0.69901
 Alpha  occ. eigenvalues --   -0.69288  -0.68771  -0.67457  -0.66592  -0.66111
 Alpha  occ. eigenvalues --   -0.66024  -0.65272  -0.64564  -0.62885  -0.62562
 Alpha  occ. eigenvalues --   -0.62020  -0.61035  -0.60519  -0.59837  -0.58999
 Alpha  occ. eigenvalues --   -0.58712  -0.58429  -0.57656  -0.57544  -0.57352
 Alpha  occ. eigenvalues --   -0.56648  -0.56099  -0.55824  -0.55178  -0.54506
 Alpha  occ. eigenvalues --   -0.54267  -0.53940  -0.52991  -0.52463  -0.52361
 Alpha  occ. eigenvalues --   -0.52178  -0.51979  -0.51815  -0.51729  -0.50993
 Alpha  occ. eigenvalues --   -0.50678  -0.50371  -0.50116  -0.49852  -0.49456
 Alpha  occ. eigenvalues --   -0.49205  -0.48917  -0.48538  -0.47905  -0.47881
 Alpha  occ. eigenvalues --   -0.47609  -0.47475  -0.47437  -0.47144  -0.46947
 Alpha  occ. eigenvalues --   -0.46621  -0.46416  -0.46118  -0.45949  -0.45896
 Alpha  occ. eigenvalues --   -0.45827  -0.45467  -0.45368  -0.45304  -0.44679
 Alpha  occ. eigenvalues --   -0.44569  -0.44047  -0.43943  -0.43703  -0.43574
 Alpha  occ. eigenvalues --   -0.43530  -0.43308  -0.43010  -0.42996  -0.42833
 Alpha  occ. eigenvalues --   -0.42767  -0.42313  -0.42064  -0.41886  -0.41777
 Alpha  occ. eigenvalues --   -0.41475  -0.41303  -0.41220  -0.41159  -0.40993
 Alpha  occ. eigenvalues --   -0.40823  -0.40680  -0.40630  -0.40476  -0.40208
 Alpha  occ. eigenvalues --   -0.39837  -0.39393  -0.39260  -0.39187  -0.39011
 Alpha  occ. eigenvalues --   -0.38932  -0.38775  -0.38494  -0.38394  -0.38184
 Alpha  occ. eigenvalues --   -0.38041  -0.37874  -0.37700  -0.37361  -0.37245
 Alpha  occ. eigenvalues --   -0.37058  -0.37035  -0.36821  -0.36578  -0.36154
 Alpha  occ. eigenvalues --   -0.35875  -0.35642  -0.35623  -0.34976  -0.34662
 Alpha  occ. eigenvalues --   -0.34580  -0.33901  -0.33703  -0.33499  -0.33380
 Alpha  occ. eigenvalues --   -0.32880  -0.32623  -0.32361  -0.31823  -0.31514
 Alpha  occ. eigenvalues --   -0.31390  -0.31126  -0.30909  -0.30407  -0.29756
 Alpha  occ. eigenvalues --   -0.28575  -0.28308  -0.28250  -0.27544  -0.27178
 Alpha  occ. eigenvalues --   -0.26721  -0.25116  -0.23684  -0.20865
 Alpha virt. eigenvalues --   -0.09249  -0.05671  -0.02227  -0.00686  -0.00200
 Alpha virt. eigenvalues --    0.01101   0.02285   0.02749   0.03586   0.04102
 Alpha virt. eigenvalues --    0.04310   0.06102   0.07167   0.07816   0.08563

 Mulliken charges:
               1
     1  Mg   0.819185
     2  C    0.075198
     3  C   -0.195556
     4  C   -0.119136
     5  C   -0.179045
     6  N   -0.652121
     7  C    0.279323
     8  C   -0.152605
     9  C   -0.153505
    10  C    0.302028
    11  C   -0.286392
    12  C   -0.160228
    13  C   -0.267625
    14  C    0.602869
    15  O   -0.496558
    16  O   -0.448988
    17  N   -0.719106
    18  C    0.398547
    19  C    0.006695
    20  C    0.014974
    21  C    0.254482
    22  C   -0.371943
    23  C    0.199257
    24  O   -0.416979
    25  N   -0.717079
    26  C    0.367461
    27  C   -0.039953
    28  C    0.124394
    29  C    0.317356
    30  C    0.217456
    31  C   -0.310552
    32  C   -0.315919
    33  N   -0.712506
    34  C    0.297807
    35  C    0.022945
    36  C    0.054308
    37  C    0.291520
    38  C   -0.386920
    39  C    0.336115
    40  O   -0.467152
    41  C   -0.304208
    42  C    0.634043
    43  O   -0.486897
    44  O   -0.430838
    45  C   -0.089139
    46  C   -0.013560
    47  C   -0.113962
    48  C    0.134746
    49  C   -0.360759
    50  C   -0.220818
    51  C   -0.154659
    52  C   -0.150247
    53  C   -0.050263
    54  C   -0.313819
    55  C   -0.164563
    56  C   -0.194381
    57  C   -0.168289
    58  C   -0.048425
    59  C   -0.282281
    60  C   -0.175457
    61  C   -0.166887
    62  C   -0.141471
    63  C   -0.065235
    64  C   -0.306529
    65  C   -0.303169
    66  H    0.096589
    67  H    0.123770
    68  H    0.089885
    69  H    0.113209
    70  H    0.109707
    71  H    0.098838
    72  H    0.105669
    73  H    0.132229
    74  H    0.117456
    75  H    0.129412
    76  H    0.128726
    77  H    0.118190
    78  H    0.116401
    79  H    0.155074
    80  H    0.097992
    81  H    0.031106
    82  H    0.121087
    83  H    0.124213
    84  H    0.103917
    85  H    0.115234
    86  H    0.126056
    87  H    0.092521
    88  H    0.155509
    89  H    0.122175
    90  H    0.176938
    91  H    0.124856
    92  H    0.132572
    93  H    0.082797
    94  H    0.130201
    95  H    0.128924
    96  H    0.101029
    97  H    0.087960
    98  H    0.111843
    99  H    0.045678
   100  H    0.065253
   101  H    0.093477
   102  H    0.097368
   103  H    0.086123
   104  H    0.084046
   105  H    0.082133
   106  H    0.114730
   107  H    0.087681
   108  H    0.073049
   109  H    0.105404
   110  H    0.074242
   111  H    0.094671
   112  H    0.097881
   113  H    0.066709
   114  H    0.092743
   115  H    0.071105
   116  H    0.105928
   117  H    0.096899
   118  H    0.084545
   119  H    0.069288
   120  H    0.087218
   121  H    0.059198
   122  H    0.086695
   123  H    0.080078
   124  H    0.103029
   125  H    0.071166
   126  H    0.102573
   127  H    0.102515
   128  H    0.109032
   129  H    0.101625
   130  H    0.117237
   131  H    0.153510
   132  H    0.130231
   133  O   -0.431207
   134  H    0.061081
 Sum of Mulliken charges =   0.00000

 Dipole moment (field-independent basis, Debye):
    X=              2.3867    Y=             -6.3246    Z=             -0.8226  Tot=              6.8098
 Quadrupole moment (field-independent basis, Debye-Ang):
   XX=           -368.1408   YY=           -451.7015   ZZ=           -395.6422
   XY=             20.4329   XZ=             34.5126   YZ=            -41.7746

 Normal termination of Gaussian 09 at Fri Oct  4 23:50:24 2019.
