 Gaussian 09, Revision D.01,
 Gaussian 09:  ES64L-G09RevD.01 24-Apr-2013

 ----------------------------------------------------------------------
 # td=(NStates=1) iop(3/107=0140000000,3/108=0140000000) iop(3/107=0140
 000000,3/108=0140000000) CAM-B3LYP/6-31G(d,p)
 ----------------------------------------------------------------------

 --
 TD
 --
 Symbolic Z-matrix:
 Charge =  0 Multiplicity = 1

                         Standard orientation:
 ---------------------------------------------------------------------
 Center     Atomic      Atomic             Coordinates (Angstroms)
 Number     Number       Type             X           Y           Z
 ---------------------------------------------------------------------
      1         12           0       -5.587149    1.238638    0.107096
      2          6           0       -5.103078   -2.236210   -0.339621
      3          6           0       -3.280704    1.122707    2.764739
      4          6           0       -6.271137    4.553202    0.814654
      5          6           0       -7.959468    1.200551   -2.336285
      6          7           0       -4.407220   -0.261534    1.016857
      7          6           0       -4.236388   -1.621845    0.586740
      8          6           0       -3.243542   -2.357594    1.464087
      9          6           0       -3.007219   -1.367337    2.564224
     10          6           0       -3.648204   -0.068484    2.133152
     11          6           0       -3.490722   -1.917218    3.876795
     12          6           0       -2.049342   -2.678619    0.632899
     13          6           0       -1.040118   -3.538071    1.350265
     14          6           0        0.216045   -3.876950    0.463468
     15          8           0        0.461661   -3.371731   -0.575009
     16          8           0        1.071313   -4.618874    1.163320
     17          7           0       -4.809786    2.629631    1.423066
     18          6           0       -3.832807    2.381344    2.429713
     19          6           0       -3.624968    3.571082    3.147810
     20          6           0       -4.497628    4.567050    2.656052
     21          6           0       -5.213310    3.922042    1.530709
     22          6           0       -2.622822    3.916246    4.167225
     23          6           0       -4.493561    6.008763    2.926903
     24          8           0       -3.755324    6.579707    3.789305
     25          7           0       -6.873412    2.686033   -0.624087
     26          6           0       -6.981819    3.993280   -0.281182
     27          6           0       -7.894258    4.668862   -1.163051
     28          6           0       -8.437884    3.627252   -2.046520
     29          6           0       -7.735916    2.368447   -1.617954
     30          6           0       -8.269873    6.064792   -1.293301
     31          6           0       -9.468962    3.786499   -3.108464
     32          6           0       -8.920698    4.064683   -4.488103
     33          7           0       -6.433951   -0.163386   -1.066644
     34          6           0       -7.446113    0.015449   -2.053392
     35          6           0       -7.570940   -1.310553   -2.707054
     36          6           0       -6.725811   -2.193058   -2.058038
     37          6           0       -5.991246   -1.430847   -1.100008
     38          6           0       -8.578227   -1.574776   -3.854051
     39          6           0       -6.361809   -3.579444   -1.940954
     40          8           0       -6.738682   -4.571830   -2.571214
     41          6           0       -5.164959   -3.565496   -0.896481
     42          6           0       -5.566329   -4.632355    0.192589
     43          8           0       -5.917741   -4.405781    1.302465
     44          8           0       -5.199463   -5.878971   -0.290675
     45          6           0       -5.532793   -6.932298    0.545500
     46          6           0        2.330131   -4.947715    0.511971
     47          6           0        3.387064   -4.040461    0.923903
     48          6           0        4.005530   -3.132438    0.182395
     49          6           0        3.688423   -2.738208   -1.219651
     50          6           0        5.212999   -2.336787    0.833527
     51          6           0        6.452549   -2.655232    0.119243
     52          6           0        7.623838   -1.735195    0.541065
     53          6           0        8.943610   -2.000524   -0.069876
     54          6           0        9.580616   -3.363104    0.183359
     55          6           0        9.922391   -0.951482    0.399095
     56          6           0       11.293782   -0.788953   -0.320454
     57          6           0       12.217516    0.285219    0.131548
     58          6           0       13.568042    0.386967   -0.596454
     59          6           0       14.421315   -0.843519   -0.383576
     60          6           0       14.341562    1.597720   -0.162697
     61          6           0       15.631895    1.975940   -0.982016
     62          6           0       16.160595    3.428090   -0.667540
     63          6           0       17.468337    3.787802   -1.413421
     64          6           0       17.180089    3.988331   -2.943098
     65          6           0       18.242917    4.951717   -0.742239
     66          1           0       -2.465787    1.096615    3.610083
     67          1           0       -6.434346    5.630690    1.123251
     68          1           0       -8.512562    1.440320   -3.274327
     69          1           0       -3.513098   -3.337991    1.938125
     70          1           0       -1.925503   -1.505682    2.931723
     71          1           0       -3.032974   -2.802809    4.340110
     72          1           0       -3.302588   -1.181558    4.572858
     73          1           0       -4.605538   -2.066740    3.848297
     74          1           0       -2.233719   -3.119260   -0.331003
     75          1           0       -1.546562   -1.768577    0.489533
     76          1           0       -0.661482   -3.119876    2.282672
     77          1           0       -1.429275   -4.468362    1.794255
     78          1           0       -1.573676    3.324524    4.092180
     79          1           0       -2.280926    5.136707    4.387997
     80          1           0       -2.793196    3.354969    5.128428
     81          1           0       -5.167085    6.608185    2.115542
     82          1           0      -10.000495    3.011865   -3.101267
     83          1           0      -10.094173    4.788999   -2.769202
     84          1           0       -9.596044    4.149425   -5.285334
     85          1           0       -8.386833    5.089165   -4.270118
     86          1           0       -8.032767    3.325817   -4.714878
     87          1           0       -8.517529   -1.019330   -4.790309
     88          1           0       -8.645662   -2.700983   -4.004951
     89          1           0       -9.606641   -1.369419   -3.495675
     90          1           0       -4.289715   -4.001127   -1.478342
     91          1           0        2.678460   -6.069969    0.831428
     92          1           0        2.241952   -5.171102   -0.564098
     93          1           0        3.473983   -4.130434    2.162447
     94          1           0        2.716693   -2.990788   -1.556372
     95          1           0        4.036407   -1.768599   -1.607246
     96          1           0        4.391879   -3.270658   -1.881499
     97          1           0        5.096948   -1.166552    0.735486
     98          1           0        5.187500   -2.502099    1.940264
     99          1           0        6.509812   -3.729056    0.161910
    100          1           0        6.447111   -2.598780   -0.879615
    101          1           0        7.331436   -0.636755    0.347735
    102          1           0        7.636044   -1.779247    1.691636
    103          1           0        8.641080   -1.686606   -1.089203
    104          1           0        9.089943   -4.148386   -0.545803
    105          1           0       10.721333   -3.416001   -0.074426
    106          1           0        9.296173   -3.803951    1.286714
    107          1           0        9.764753    0.213737    0.601993
    108          1           0       10.212912   -1.231433    1.492272
    109          1           0       11.728509   -1.771120   -0.421077
    110          1           0       11.094640   -0.896547   -1.396626
    111          1           0       11.712213    1.213254    0.086223
    112          1           0       12.419590   -0.002033    1.174632
    113          1           0       13.492301    0.313421   -1.623859
    114          1           0       14.437580   -1.073358    0.798601
    115          1           0       13.993107   -1.777844   -0.765464
    116          1           0       15.440158   -0.578711   -0.766442
    117          1           0       13.703780    2.626733   -0.172766
    118          1           0       14.691956    1.703650    0.920678
    119          1           0       16.460006    1.247389   -0.569825
    120          1           0       15.485330    1.777905   -2.020666
    121          1           0       15.362564    4.265519   -0.839001
    122          1           0       16.456902    3.579900    0.463769
    123          1           0       18.043768    2.885585   -1.087774
    124          1           0       16.389649    4.956792   -2.996856
    125          1           0       18.078092    4.195649   -3.547732
    126          1           0       16.922190    3.141326   -3.372452
    127          1           0       18.543244    4.653649    0.200446
    128          1           0       19.190379    5.113536   -1.232820
    129          1           0       17.385003    5.988844   -0.569206
    130          1           0       -5.301957   -7.708979   -0.135362
    131          1           0       -6.607723   -6.721550    0.896047
    132          1           0       -4.916138   -6.945779    1.493732
    133          8           0       -7.838484    6.869490   -0.427544
    134          1           0       -8.740800    6.373360   -2.093025
 ---------------------------------------------------------------------

 SCF Done:  E(RCAM-B3LYP) =  -3043.47091698     A.U. after   16 cycles

 Excitation energies and oscillator strengths:

 Excited State   1:      Singlet-A      1.9804 eV  626.04 nm  f=0.1684  <S**2>=0.000
     243 -> 246        0.25570
     244 -> 245        0.64507
 This state for optimization and/or second-order correction.
 Total Energy, E(TD-HF/TD-KS) =  -3043.39813678
 Copying the excited state density for this state as the 1-particle RhoCI density.

 The electronic state is 1-A.
 Alpha  occ. eigenvalues --  -46.81541 -19.22651 -19.22097 -19.18807 -19.17570
 Alpha  occ. eigenvalues --  -19.17417 -19.17003 -19.16480 -14.39944 -14.37435
 Alpha  occ. eigenvalues --  -14.37280 -14.37240 -10.35538 -10.35025 -10.31845
 Alpha  occ. eigenvalues --  -10.31251 -10.29366 -10.28694 -10.28582 -10.28408
 Alpha  occ. eigenvalues --  -10.27240 -10.27005 -10.26969 -10.26800 -10.26714
 Alpha  occ. eigenvalues --  -10.26658 -10.26506 -10.26504 -10.25569 -10.25297
 Alpha  occ. eigenvalues --  -10.24893 -10.24648 -10.24622 -10.24598 -10.24441
 Alpha  occ. eigenvalues --  -10.23902 -10.23687 -10.23671 -10.23633 -10.23629
 Alpha  occ. eigenvalues --  -10.23624 -10.23612 -10.23547 -10.23427 -10.23293
 Alpha  occ. eigenvalues --  -10.23239 -10.22674 -10.22448 -10.22411 -10.22351
 Alpha  occ. eigenvalues --  -10.22290 -10.22133 -10.22057 -10.21967 -10.21851
 Alpha  occ. eigenvalues --  -10.21815 -10.21784 -10.21628 -10.21314 -10.20964
 Alpha  occ. eigenvalues --  -10.20934 -10.20852 -10.20800 -10.20356 -10.19895
 Alpha  occ. eigenvalues --  -10.19802  -3.10120  -1.85064  -1.84590  -1.84524
 Alpha  occ. eigenvalues --   -1.14693  -1.14373  -1.07035  -1.06380  -1.06192
 Alpha  occ. eigenvalues --   -1.04447  -1.03577  -1.00580  -0.99724  -0.99325
 Alpha  occ. eigenvalues --   -0.98331  -0.89893  -0.87300  -0.86782  -0.86133
 Alpha  occ. eigenvalues --   -0.85738  -0.84773  -0.84666  -0.84288  -0.83379
 Alpha  occ. eigenvalues --   -0.82935  -0.82550  -0.82148  -0.81039  -0.79977
 Alpha  occ. eigenvalues --   -0.79179  -0.78669  -0.77849  -0.77404  -0.76793
 Alpha  occ. eigenvalues --   -0.75426  -0.74766  -0.74512  -0.72936  -0.71977
 Alpha  occ. eigenvalues --   -0.71424  -0.71377  -0.69904  -0.69871  -0.69727
 Alpha  occ. eigenvalues --   -0.69417  -0.68883  -0.68094  -0.67142  -0.66958
 Alpha  occ. eigenvalues --   -0.65961  -0.64762  -0.64417  -0.62928  -0.62675
 Alpha  occ. eigenvalues --   -0.61205  -0.61094  -0.60962  -0.59802  -0.59477
 Alpha  occ. eigenvalues --   -0.59234  -0.58602  -0.58481  -0.57845  -0.57088
 Alpha  occ. eigenvalues --   -0.56362  -0.56277  -0.56103  -0.55593  -0.55113
 Alpha  occ. eigenvalues --   -0.54433  -0.53937  -0.53361  -0.52863  -0.52642
 Alpha  occ. eigenvalues --   -0.51883  -0.51589  -0.51436  -0.51132  -0.50971
 Alpha  occ. eigenvalues --   -0.50343  -0.50229  -0.49801  -0.49528  -0.49332
 Alpha  occ. eigenvalues --   -0.49104  -0.49037  -0.48803  -0.48589  -0.48292
 Alpha  occ. eigenvalues --   -0.47805  -0.47613  -0.47196  -0.47023  -0.46691
 Alpha  occ. eigenvalues --   -0.46632  -0.46500  -0.46421  -0.46135  -0.45973
 Alpha  occ. eigenvalues --   -0.45530  -0.45219  -0.45176  -0.45077  -0.44797
 Alpha  occ. eigenvalues --   -0.44459  -0.44294  -0.44057  -0.43802  -0.43722
 Alpha  occ. eigenvalues --   -0.43659  -0.43476  -0.43404  -0.43118  -0.42891
 Alpha  occ. eigenvalues --   -0.42728  -0.42599  -0.41903  -0.41867  -0.41662
 Alpha  occ. eigenvalues --   -0.41511  -0.41118  -0.40960  -0.40793  -0.40617
 Alpha  occ. eigenvalues --   -0.40479  -0.40385  -0.40151  -0.40005  -0.39946
 Alpha  occ. eigenvalues --   -0.39595  -0.39486  -0.39312  -0.39110  -0.38954
 Alpha  occ. eigenvalues --   -0.38903  -0.38814  -0.38720  -0.38294  -0.38117
 Alpha  occ. eigenvalues --   -0.37903  -0.37863  -0.37606  -0.37543  -0.37211
 Alpha  occ. eigenvalues --   -0.36982  -0.36731  -0.36443  -0.36044  -0.35925
 Alpha  occ. eigenvalues --   -0.35384  -0.35153  -0.34929  -0.34702  -0.34603
 Alpha  occ. eigenvalues --   -0.34080  -0.34029  -0.33715  -0.33233  -0.33025
 Alpha  occ. eigenvalues --   -0.32957  -0.32624  -0.32099  -0.32076  -0.31879
 Alpha  occ. eigenvalues --   -0.31569  -0.31557  -0.31098  -0.30823  -0.29904
 Alpha  occ. eigenvalues --   -0.28945  -0.28212  -0.27875  -0.27802  -0.27397
 Alpha  occ. eigenvalues --   -0.27350  -0.27114  -0.23677  -0.22016
 Alpha virt. eigenvalues --   -0.09154  -0.07352  -0.02538  -0.01541  -0.00183
 Alpha virt. eigenvalues --    0.02628   0.02975   0.03337   0.03589   0.04040
 Alpha virt. eigenvalues --    0.04905   0.05615   0.07059   0.08143   0.08804

 Mulliken charges:
               1
     1  Mg   0.830240
     2  C    0.160242
     3  C   -0.177370
     4  C   -0.156892
     5  C   -0.158467
     6  N   -0.642637
     7  C    0.254570
     8  C   -0.135998
     9  C   -0.166398
    10  C    0.376204
    11  C   -0.325407
    12  C   -0.153388
    13  C   -0.295369
    14  C    0.594944
    15  O   -0.441317
    16  O   -0.448606
    17  N   -0.712561
    18  C    0.312800
    19  C    0.074708
    20  C   -0.021146
    21  C    0.311076
    22  C   -0.403255
    23  C    0.237391
    24  O   -0.444427
    25  N   -0.705318
    26  C    0.305033
    27  C   -0.030291
    28  C   -0.009630
    29  C    0.315147
    30  C    0.256568
    31  C   -0.223680
    32  C   -0.298711
    33  N   -0.752635
    34  C    0.301126
    35  C   -0.006513
    36  C    0.067777
    37  C    0.291364
    38  C   -0.396574
    39  C    0.354624
    40  O   -0.464493
    41  C   -0.375530
    42  C    0.616178
    43  O   -0.435860
    44  O   -0.444823
    45  C   -0.079951
    46  C   -0.011466
    47  C   -0.135129
    48  C    0.148483
    49  C   -0.389896
    50  C   -0.215576
    51  C   -0.164350
    52  C   -0.181439
    53  C   -0.034726
    54  C   -0.306150
    55  C   -0.167934
    56  C   -0.190467
    57  C   -0.159864
    58  C   -0.049711
    59  C   -0.305109
    60  C   -0.166178
    61  C   -0.183526
    62  C   -0.165519
    63  C   -0.056370
    64  C   -0.289166
    65  C   -0.284058
    66  H    0.103217
    67  H    0.137411
    68  H    0.104326
    69  H    0.120519
    70  H    0.102592
    71  H    0.112552
    72  H    0.112455
    73  H    0.116728
    74  H    0.118382
    75  H    0.125809
    76  H    0.133631
    77  H    0.120633
    78  H    0.085141
    79  H    0.165665
    80  H    0.124327
    81  H    0.079664
    82  H    0.117193
    83  H    0.090322
    84  H    0.127656
    85  H    0.097728
    86  H    0.099829
    87  H    0.133049
    88  H    0.144492
    89  H    0.129400
    90  H    0.167475
    91  H    0.093182
    92  H    0.126735
    93  H    0.074902
    94  H    0.152450
    95  H    0.121286
    96  H    0.112562
    97  H    0.075830
    98  H    0.097083
    99  H    0.096642
   100  H    0.099791
   101  H    0.089856
   102  H    0.073817
   103  H    0.091648
   104  H    0.090744
   105  H    0.110070
   106  H    0.098836
   107  H    0.070580
   108  H    0.072097
   109  H    0.077108
   110  H    0.074567
   111  H    0.097081
   112  H    0.095603
   113  H    0.098533
   114  H    0.071764
   115  H    0.103236
   116  H    0.099304
   117  H    0.062921
   118  H    0.089055
   119  H    0.083634
   120  H    0.103841
   121  H    0.074733
   122  H    0.073056
   123  H    0.082349
   124  H    0.080660
   125  H    0.094118
   126  H    0.116559
   127  H    0.112308
   128  H    0.106905
   129  H    0.045921
   130  H    0.131846
   131  H    0.120523
   132  H    0.109096
   133  O   -0.447260
   134  H    0.079633
 Sum of Mulliken charges =   0.00000

 Dipole moment (field-independent basis, Debye):
    X=              1.8235    Y=             -5.6264    Z=             -2.9333  Tot=              6.6019
 Quadrupole moment (field-independent basis, Debye-Ang):
   XX=           -368.3429   YY=           -449.0541   ZZ=           -391.7804
   XY=             -2.7167   XZ=             24.3850   YZ=            -35.8520

 Normal termination of Gaussian 09 at Thu Oct  3 22:02:33 2019.
