 Gaussian 09, Revision D.01,
 Gaussian 09:  ES64L-G09RevD.01 24-Apr-2013

 ----------------------------------------------------------------------
 # td=(NStates=1) iop(3/107=0140000000,3/108=0140000000) iop(3/107=0140
 000000,3/108=0140000000) CAM-B3LYP/6-31G(d,p)
 ----------------------------------------------------------------------

 --
 TD
 --
 Symbolic Z-matrix:
 Charge =  0 Multiplicity = 1

                         Standard orientation:
 ---------------------------------------------------------------------
 Center     Atomic      Atomic             Coordinates (Angstroms)
 Number     Number       Type             X           Y           Z
 ---------------------------------------------------------------------
      1         12           0       -5.672949    1.219882    0.178578
      2          6           0       -5.068037   -2.218895   -0.386656
      3          6           0       -3.358987    1.117535    2.797429
      4          6           0       -6.222951    4.489839    0.728425
      5          6           0       -8.007575    1.102040   -2.381658
      6          7           0       -4.408523   -0.325984    0.989439
      7          6           0       -4.293288   -1.675571    0.735482
      8          6           0       -3.353141   -2.405991    1.601282
      9          6           0       -2.893925   -1.330633    2.707471
     10          6           0       -3.622279   -0.107585    2.158844
     11          6           0       -3.365028   -1.807611    3.979323
     12          6           0       -2.074792   -2.623085    0.670939
     13          6           0       -1.050317   -3.543663    1.389088
     14          6           0        0.226188   -3.824948    0.660873
     15          8           0        0.434657   -3.457890   -0.531265
     16          8           0        1.062540   -4.593082    1.244511
     17          7           0       -4.993251    2.574460    1.611920
     18          6           0       -4.053504    2.418244    2.560116
     19          6           0       -3.718022    3.608261    3.214384
     20          6           0       -4.564799    4.602684    2.675885
     21          6           0       -5.345628    3.973490    1.650978
     22          6           0       -2.674793    3.786536    4.315460
     23          6           0       -4.728428    6.008879    2.973408
     24          8           0       -4.116631    6.514255    3.834014
     25          7           0       -6.889148    2.634348   -0.765166
     26          6           0       -6.940091    3.876134   -0.354900
     27          6           0       -7.888323    4.638389   -1.282476
     28          6           0       -8.440178    3.599757   -2.032277
     29          6           0       -7.758528    2.375836   -1.696479
     30          6           0       -8.287270    6.097721   -1.335045
     31          6           0       -9.407600    3.894381   -3.114034
     32          6           0       -8.850151    4.050211   -4.622085
     33          7           0       -6.259062   -0.151404   -1.201379
     34          6           0       -7.276304   -0.074681   -2.114012
     35          6           0       -7.526658   -1.266280   -2.808818
     36          6           0       -6.781334   -2.188367   -2.083475
     37          6           0       -5.945485   -1.469609   -1.140891
     38          6           0       -8.551275   -1.612235   -3.878244
     39          6           0       -6.263788   -3.584142   -1.998876
     40          8           0       -6.606801   -4.571395   -2.590945
     41          6           0       -5.022061   -3.514489   -0.936281
     42          6           0       -5.193740   -4.584346    0.126484
     43          8           0       -5.712184   -4.424499    1.227573
     44          8           0       -4.927283   -5.814095   -0.326648
     45          6           0       -5.307204   -6.904414    0.556704
     46          6           0        2.311252   -5.053477    0.568001
     47          6           0        3.470087   -4.085623    0.889339
     48          6           0        4.097890   -3.175088    0.110495
     49          6           0        3.666349   -3.085583   -1.387103
     50          6           0        5.110779   -2.389322    0.608177
     51          6           0        6.509840   -2.614368   -0.124029
     52          6           0        7.597759   -1.752715    0.478172
     53          6           0        8.977807   -1.969997   -0.066676
     54          6           0        9.600523   -3.388878    0.049802
     55          6           0        9.935812   -0.951279    0.498156
     56          6           0       11.375264   -0.807033   -0.177522
     57          6           0       12.260041    0.406359    0.331628
     58          6           0       13.601357    0.442153   -0.355037
     59          6           0       14.460276   -0.725709   -0.015687
     60          6           0       14.285612    1.783223    0.017362
     61          6           0       15.493701    2.041169   -0.977913
     62          6           0       16.157057    3.472579   -0.661506
     63          6           0       17.419179    3.885423   -1.578268
     64          6           0       17.147767    4.038265   -2.999372
     65          6           0       18.015895    5.183720   -0.932393
     66          1           0       -2.850905    1.067284    3.652301
     67          1           0       -6.370883    5.562896    0.815275
     68          1           0       -8.572484    1.059307   -3.135929
     69          1           0       -3.658700   -3.338029    1.749274
     70          1           0       -1.895712   -1.326601    2.626689
     71          1           0       -2.872410   -2.710854    4.487809
     72          1           0       -3.459905   -1.133939    4.695771
     73          1           0       -4.482204   -2.002727    3.849360
     74          1           0       -2.316929   -2.946663   -0.201231
     75          1           0       -1.563962   -1.748302    0.529815
     76          1           0       -0.866628   -3.222381    2.613101
     77          1           0       -1.613093   -4.562823    1.513175
     78          1           0       -1.637339    3.643161    4.011321
     79          1           0       -2.872765    4.889397    4.857314
     80          1           0       -3.019815    3.101143    5.213273
     81          1           0       -5.515449    6.541484    2.352492
     82          1           0      -10.109212    3.127630   -3.120701
     83          1           0       -9.758037    4.854261   -2.929557
     84          1           0       -9.551303    3.715803   -5.405014
     85          1           0       -8.430226    5.080773   -4.591119
     86          1           0       -7.977837    3.258034   -4.502539
     87          1           0       -8.336429   -0.841264   -4.569834
     88          1           0       -8.398004   -2.665536   -4.471056
     89          1           0       -9.610122   -1.506562   -3.514850
     90          1           0       -3.896339   -3.871566   -1.550029
     91          1           0        2.442493   -5.811439    1.063943
     92          1           0        2.007713   -5.405895   -0.447885
     93          1           0        3.727815   -4.274217    1.937844
     94          1           0        2.666802   -3.394030   -1.709691
     95          1           0        3.710550   -2.016180   -1.467885
     96          1           0        4.279576   -3.621267   -2.121671
     97          1           0        4.642234   -1.368638    0.316518
     98          1           0        5.299368   -2.279029    1.706763
     99          1           0        6.715862   -3.715987   -0.119727
    100          1           0        6.081850   -2.423955   -1.203203
    101          1           0        7.164978   -0.783684    0.279515
    102          1           0        7.853562   -1.998536    1.588858
    103          1           0        8.977030   -2.013887   -1.236767
    104          1           0        8.849637   -4.062056   -0.414471
    105          1           0       10.486305   -3.556913   -0.340642
    106          1           0        9.683418   -3.786159    1.141738
    107          1           0        9.378274    0.010140    0.535572
    108          1           0        9.974274   -1.033155    1.549731
    109          1           0       11.964366   -1.627827   -0.093453
    110          1           0       11.317566   -0.726250   -1.259867
    111          1           0       11.863101    1.401910    0.037776
    112          1           0       12.425225    0.331420    1.382625
    113          1           0       13.350191    0.462415   -1.415132
    114          1           0       14.823808   -0.830912    1.027494
    115          1           0       14.162562   -1.726961   -0.385754
    116          1           0       15.310639   -0.705702   -0.676924
    117          1           0       13.817239    2.713404   -0.055168
    118          1           0       14.572143    1.587943    1.073738
    119          1           0       16.132961    1.012789   -1.159156
    120          1           0       15.048705    2.121932   -2.057183
    121          1           0       15.463325    4.305345   -0.874390
    122          1           0       16.525180    3.527611    0.458011
    123          1           0       18.184646    3.018519   -1.423043
    124          1           0       16.563588    4.868697   -3.330777
    125          1           0       18.238075    4.029304   -3.543346
    126          1           0       16.679890    3.183778   -3.462044
    127          1           0       17.949300    5.181438    0.290885
    128          1           0       19.012038    5.439362   -1.041098
    129          1           0       17.414116    6.070764   -1.228671
    130          1           0       -4.919266   -7.718991    0.024581
    131          1           0       -6.367488   -7.014413    0.704881
    132          1           0       -4.643051   -6.898805    1.527054
    133          8           0       -7.833630    6.891388   -0.448748
    134          1           0       -8.983690    6.444943   -2.081236
 ---------------------------------------------------------------------

 SCF Done:  E(RCAM-B3LYP) =  -3043.43683327     A.U. after   16 cycles

 Excitation energies and oscillator strengths:

 Excited State   1:      Singlet-A      2.0074 eV  617.62 nm  f=0.1865  <S**2>=0.000
     243 -> 246        0.25324
     244 -> 245        0.64588
 This state for optimization and/or second-order correction.
 Total Energy, E(TD-HF/TD-KS) =  -3043.36306105
 Copying the excited state density for this state as the 1-particle RhoCI density.

 The electronic state is 1-A.
 Alpha  occ. eigenvalues --  -46.82372 -19.22589 -19.21977 -19.17826 -19.17358
 Alpha  occ. eigenvalues --  -19.16703 -19.16701 -19.14665 -14.39377 -14.37318
 Alpha  occ. eigenvalues --  -14.36692 -14.36236 -10.34627 -10.34163 -10.32209
 Alpha  occ. eigenvalues --  -10.31427 -10.29536 -10.28543 -10.27565 -10.27448
 Alpha  occ. eigenvalues --  -10.26761 -10.26635 -10.26285 -10.26276 -10.26114
 Alpha  occ. eigenvalues --  -10.26105 -10.26011 -10.25641 -10.25610 -10.25255
 Alpha  occ. eigenvalues --  -10.24285 -10.23954 -10.23856 -10.23428 -10.23407
 Alpha  occ. eigenvalues --  -10.23384 -10.23378 -10.23351 -10.23262 -10.23257
 Alpha  occ. eigenvalues --  -10.23070 -10.22973 -10.22899 -10.22855 -10.22644
 Alpha  occ. eigenvalues --  -10.22529 -10.22423 -10.22338 -10.22303 -10.22209
 Alpha  occ. eigenvalues --  -10.22144 -10.22076 -10.21836 -10.21616 -10.21285
 Alpha  occ. eigenvalues --  -10.21013 -10.20932 -10.20893 -10.20699 -10.20565
 Alpha  occ. eigenvalues --  -10.20506 -10.20419 -10.20259 -10.20038 -10.19904
 Alpha  occ. eigenvalues --  -10.19809  -3.10741  -1.85697  -1.85216  -1.85132
 Alpha  occ. eigenvalues --   -1.13858  -1.13546  -1.09222  -1.08157  -1.04058
 Alpha  occ. eigenvalues --   -1.03815  -1.02333  -1.00853  -1.00515  -0.98843
 Alpha  occ. eigenvalues --   -0.98137  -0.89190  -0.87306  -0.86423  -0.85514
 Alpha  occ. eigenvalues --   -0.85249  -0.84616  -0.84294  -0.83848  -0.83436
 Alpha  occ. eigenvalues --   -0.82743  -0.82163  -0.81826  -0.80902  -0.79105
 Alpha  occ. eigenvalues --   -0.78554  -0.77831  -0.77286  -0.76842  -0.76559
 Alpha  occ. eigenvalues --   -0.74882  -0.74594  -0.74467  -0.72731  -0.72258
 Alpha  occ. eigenvalues --   -0.71527  -0.71433  -0.71011  -0.70390  -0.69727
 Alpha  occ. eigenvalues --   -0.69292  -0.68672  -0.67925  -0.67300  -0.66509
 Alpha  occ. eigenvalues --   -0.66388  -0.65744  -0.64077  -0.63242  -0.62636
 Alpha  occ. eigenvalues --   -0.62109  -0.61211  -0.60618  -0.59103  -0.58824
 Alpha  occ. eigenvalues --   -0.58649  -0.58398  -0.57486  -0.57285  -0.57139
 Alpha  occ. eigenvalues --   -0.56480  -0.56122  -0.55646  -0.55051  -0.54819
 Alpha  occ. eigenvalues --   -0.53660  -0.53004  -0.52625  -0.52477  -0.52341
 Alpha  occ. eigenvalues --   -0.52063  -0.51926  -0.51401  -0.51194  -0.50951
 Alpha  occ. eigenvalues --   -0.50726  -0.50573  -0.49849  -0.49163  -0.48848
 Alpha  occ. eigenvalues --   -0.48836  -0.48515  -0.48374  -0.48287  -0.47828
 Alpha  occ. eigenvalues --   -0.47619  -0.47460  -0.47297  -0.47153  -0.47065
 Alpha  occ. eigenvalues --   -0.46670  -0.46635  -0.46261  -0.45906  -0.45810
 Alpha  occ. eigenvalues --   -0.45507  -0.45339  -0.45047  -0.44741  -0.44562
 Alpha  occ. eigenvalues --   -0.44408  -0.44318  -0.44170  -0.43783  -0.43619
 Alpha  occ. eigenvalues --   -0.43503  -0.43470  -0.43181  -0.43083  -0.42766
 Alpha  occ. eigenvalues --   -0.42510  -0.42373  -0.42109  -0.41912  -0.41840
 Alpha  occ. eigenvalues --   -0.41483  -0.41409  -0.41336  -0.41170  -0.40985
 Alpha  occ. eigenvalues --   -0.40755  -0.40540  -0.40406  -0.40311  -0.40185
 Alpha  occ. eigenvalues --   -0.40040  -0.39737  -0.39664  -0.39608  -0.39444
 Alpha  occ. eigenvalues --   -0.39127  -0.38414  -0.38349  -0.38146  -0.38085
 Alpha  occ. eigenvalues --   -0.37844  -0.37668  -0.37545  -0.37306  -0.36823
 Alpha  occ. eigenvalues --   -0.36637  -0.36389  -0.36217  -0.36015  -0.35699
 Alpha  occ. eigenvalues --   -0.35433  -0.35317  -0.34881  -0.34790  -0.34364
 Alpha  occ. eigenvalues --   -0.34346  -0.34013  -0.33985  -0.33713  -0.33351
 Alpha  occ. eigenvalues --   -0.32895  -0.32724  -0.32168  -0.31820  -0.31440
 Alpha  occ. eigenvalues --   -0.31305  -0.30227  -0.29458  -0.29356  -0.28703
 Alpha  occ. eigenvalues --   -0.28592  -0.28368  -0.27992  -0.27860  -0.27392
 Alpha  occ. eigenvalues --   -0.27266  -0.26809  -0.22885  -0.21290
 Alpha virt. eigenvalues --   -0.08428  -0.06467  -0.01694  -0.00985   0.00666
 Alpha virt. eigenvalues --    0.02549   0.02909   0.03461   0.03852   0.04097
 Alpha virt. eigenvalues --    0.04803   0.05047   0.08305   0.08449   0.09333

 Mulliken charges:
               1
     1  Mg   0.827613
     2  C    0.150591
     3  C   -0.153971
     4  C   -0.169216
     5  C   -0.106327
     6  N   -0.621239
     7  C    0.350216
     8  C   -0.146589
     9  C   -0.107595
    10  C    0.287781
    11  C   -0.301193
    12  C   -0.169255
    13  C   -0.269024
    14  C    0.596613
    15  O   -0.521072
    16  O   -0.446226
    17  N   -0.699754
    18  C    0.310940
    19  C    0.036234
    20  C    0.001070
    21  C    0.278719
    22  C   -0.393158
    23  C    0.242440
    24  O   -0.391494
    25  N   -0.684484
    26  C    0.275956
    27  C   -0.022464
    28  C   -0.014269
    29  C    0.312787
    30  C    0.239638
    31  C   -0.251760
    32  C   -0.307124
    33  N   -0.740927
    34  C    0.290567
    35  C    0.029615
    36  C    0.000318
    37  C    0.253596
    38  C   -0.366872
    39  C    0.375661
    40  O   -0.432806
    41  C   -0.371332
    42  C    0.613849
    43  O   -0.484405
    44  O   -0.444359
    45  C   -0.083353
    46  C    0.053953
    47  C   -0.168710
    48  C    0.164497
    49  C   -0.374997
    50  C   -0.248835
    51  C   -0.189452
    52  C   -0.150553
    53  C   -0.057989
    54  C   -0.310064
    55  C   -0.168635
    56  C   -0.190638
    57  C   -0.161542
    58  C   -0.069206
    59  C   -0.318273
    60  C   -0.154286
    61  C   -0.186783
    62  C   -0.169009
    63  C   -0.044186
    64  C   -0.299819
    65  C   -0.308992
    66  H    0.072696
    67  H    0.128353
    68  H    0.047475
    69  H    0.112964
    70  H    0.118872
    71  H    0.104123
    72  H    0.115039
    73  H    0.112943
    74  H    0.118610
    75  H    0.130376
    76  H    0.098056
    77  H    0.123711
    78  H    0.134431
    79  H    0.142703
    80  H    0.108563
    81  H    0.074296
    82  H    0.111203
    83  H    0.105773
    84  H    0.121344
    85  H    0.113852
    86  H    0.096509
    87  H    0.132246
    88  H    0.135855
    89  H    0.137098
    90  H    0.120170
    91  H    0.108195
    92  H    0.124219
    93  H    0.078603
    94  H    0.156327
    95  H    0.107250
    96  H    0.117919
    97  H    0.091481
    98  H    0.105078
    99  H    0.101698
   100  H    0.096059
   101  H    0.108637
   102  H    0.086485
   103  H    0.067734
   104  H    0.092771
   105  H    0.121974
   106  H    0.069839
   107  H    0.078433
   108  H    0.090705
   109  H    0.104532
   110  H    0.087593
   111  H    0.083457
   112  H    0.085821
   113  H    0.080474
   114  H    0.105265
   115  H    0.099241
   116  H    0.100559
   117  H    0.099756
   118  H    0.086447
   119  H    0.072958
   120  H    0.077379
   121  H    0.093416
   122  H    0.083800
   123  H    0.077808
   124  H    0.107069
   125  H    0.078835
   126  H    0.108760
   127  H    0.067175
   128  H    0.114431
   129  H    0.097351
   130  H    0.131408
   131  H    0.145288
   132  H    0.110749
   133  O   -0.436718
   134  H    0.096069
 Sum of Mulliken charges =   0.00000

 Dipole moment (field-independent basis, Debye):
    X=              2.4023    Y=             -5.0576    Z=             -1.3745  Tot=              5.7654
 Quadrupole moment (field-independent basis, Debye-Ang):
   XX=           -368.5995   YY=           -429.9604   ZZ=           -391.7041
   XY=              4.0982   XZ=             22.6851   YZ=            -33.7213

 Normal termination of Gaussian 09 at Fri Oct  4 21:32:04 2019.
