 Gaussian 09, Revision D.01,
 Gaussian 09:  ES64L-G09RevD.01 24-Apr-2013

 ----------------------------------------------------------------------
 # td=(NStates=1) iop(3/107=0140000000,3/108=0140000000) iop(3/107=0140
 000000,3/108=0140000000) CAM-B3LYP/6-31G(d,p)
 ----------------------------------------------------------------------

 --
 TD
 --
 Symbolic Z-matrix:
 Charge =  0 Multiplicity = 1

                         Standard orientation:
 ---------------------------------------------------------------------
 Center     Atomic      Atomic             Coordinates (Angstroms)
 Number     Number       Type             X           Y           Z
 ---------------------------------------------------------------------
      1         12           0       -5.681800    1.199649    0.191176
      2          6           0       -4.957469   -2.154949   -0.324335
      3          6           0       -3.493117    1.222994    2.767013
      4          6           0       -6.390548    4.562062    0.638188
      5          6           0       -7.943771    1.067132   -2.375215
      6          7           0       -4.311648   -0.246168    1.029269
      7          6           0       -4.157574   -1.583270    0.708692
      8          6           0       -3.132057   -2.351590    1.482689
      9          6           0       -2.911194   -1.293089    2.760405
     10          6           0       -3.680730   -0.014110    2.234169
     11          6           0       -3.502077   -1.709498    4.081740
     12          6           0       -1.852034   -2.537789    0.778949
     13          6           0       -0.839018   -3.535080    1.516491
     14          6           0        0.345260   -3.907629    0.587707
     15          8           0        0.454294   -3.422930   -0.551147
     16          8           0        1.150508   -4.798396    1.167577
     17          7           0       -4.946687    2.676659    1.450132
     18          6           0       -4.082413    2.483155    2.503650
     19          6           0       -3.725866    3.733109    3.100914
     20          6           0       -4.716350    4.598026    2.484639
     21          6           0       -5.366145    3.975578    1.482390
     22          6           0       -2.759667    3.953346    4.180387
     23          6           0       -4.812279    5.967017    2.855816
     24          8           0       -4.180374    6.523293    3.829200
     25          7           0       -7.004494    2.564987   -0.742282
     26          6           0       -7.139188    3.911495   -0.374974
     27          6           0       -8.045606    4.593051   -1.303604
     28          6           0       -8.542493    3.518217   -2.092004
     29          6           0       -7.815673    2.337804   -1.756681
     30          6           0       -8.482469    5.943707   -1.216863
     31          6           0       -9.484400    3.647840   -3.232425
     32          6           0       -8.825991    3.985579   -4.620092
     33          7           0       -6.472740   -0.189503   -1.089567
     34          6           0       -7.291621   -0.142842   -2.114837
     35          6           0       -7.456136   -1.472097   -2.739965
     36          6           0       -6.534160   -2.242125   -2.019825
     37          6           0       -5.925240   -1.440162   -1.063627
     38          6           0       -8.359401   -1.720290   -3.944961
     39          6           0       -6.201733   -3.644935   -1.907022
     40          8           0       -6.435109   -4.577525   -2.618820
     41          6           0       -4.959748   -3.536552   -0.828803
     42          6           0       -5.205845   -4.643295    0.259321
     43          8           0       -5.576080   -4.470511    1.377988
     44          8           0       -4.994628   -5.865062   -0.364887
     45          6           0       -5.316075   -6.948280    0.504737
     46          6           0        2.388316   -5.093827    0.516093
     47          6           0        3.446871   -4.205999    1.088258
     48          6           0        4.055344   -3.275989    0.181063
     49          6           0        3.706809   -3.051545   -1.255601
     50          6           0        5.118051   -2.417758    0.747539
     51          6           0        6.422751   -2.657350    0.113175
     52          6           0        7.694106   -1.797806    0.604808
     53          6           0        9.012890   -1.939582   -0.030839
     54          6           0        9.694977   -3.319741    0.031735
     55          6           0        9.938990   -0.691199    0.384675
     56          6           0       11.226302   -0.673937   -0.321335
     57          6           0       12.237352    0.337114    0.171994
     58          6           0       13.557085    0.539008   -0.542888
     59          6           0       14.454683   -0.745922   -0.290158
     60          6           0       14.335810    1.847227   -0.084911
     61          6           0       15.547419    2.105577   -0.978270
     62          6           0       16.244496    3.447953   -0.599821
     63          6           0       17.370853    3.911122   -1.384061
     64          6           0       17.105151    3.938028   -2.953810
     65          6           0       18.027239    5.235624   -0.845380
     66          1           0       -2.820345    1.209291    3.552564
     67          1           0       -6.488220    5.706049    0.512084
     68          1           0       -8.654912    1.146075   -3.326648
     69          1           0       -3.545175   -3.094117    1.885801
     70          1           0       -1.713657   -1.069536    2.732764
     71          1           0       -2.971358   -2.537871    4.413466
     72          1           0       -3.673811   -0.762579    4.724615
     73          1           0       -4.580078   -2.049785    4.007096
     74          1           0       -2.023754   -2.958263   -0.172142
     75          1           0       -1.314652   -1.635085    0.777393
     76          1           0       -0.528539   -2.978223    2.215918
     77          1           0       -1.355839   -4.455449    1.907651
     78          1           0       -1.773824    3.417925    3.775919
     79          1           0       -2.784947    5.164212    4.446664
     80          1           0       -2.988749    3.456992    5.079710
     81          1           0       -5.390644    6.772979    2.325761
     82          1           0      -10.007733    2.666723   -3.343892
     83          1           0      -10.036969    4.338605   -2.916889
     84          1           0       -9.609456    4.081576   -5.424470
     85          1           0       -8.053680    4.975450   -4.450451
     86          1           0       -8.153844    3.141080   -4.763365
     87          1           0       -8.133426   -1.208891   -4.883502
     88          1           0       -8.427262   -2.876344   -4.150586
     89          1           0       -9.455383   -1.326645   -3.712337
     90          1           0       -4.046071   -3.807791   -1.296290
     91          1           0        2.675692   -6.032146    0.724885
     92          1           0        2.241741   -4.957119   -0.594581
     93          1           0        3.616234   -4.257135    2.059940
     94          1           0        2.680248   -3.281873   -1.609568
     95          1           0        4.031732   -2.030505   -1.522669
     96          1           0        4.233361   -3.780016   -1.782750
     97          1           0        4.882240   -1.176925    0.746016
     98          1           0        5.284945   -2.364782    1.725520
     99          1           0        6.713476   -3.807557    0.442825
    100          1           0        6.395288   -2.406438   -0.991176
    101          1           0        7.684593   -0.843393    0.503559
    102          1           0        7.813446   -1.953405    1.816051
    103          1           0        8.762571   -1.668345   -1.013036
    104          1           0        8.939156   -4.018805   -0.184852
    105          1           0       10.620184   -3.548709   -0.721292
    106          1           0        9.891077   -3.568536    1.098826
    107          1           0        9.392817    0.315054    0.187576
    108          1           0       10.089912   -0.770335    1.514831
    109          1           0       11.618913   -1.819290   -0.127770
    110          1           0       11.142864   -0.595994   -1.499991
    111          1           0       11.762748    1.312259    0.109563
    112          1           0       12.469875    0.232037    1.313610
    113          1           0       13.289706    0.635685   -1.667257
    114          1           0       14.454008   -0.925678    0.853904
    115          1           0       14.086965   -1.471268   -0.794845
    116          1           0       15.482831   -0.549235   -0.717429
    117          1           0       13.414475    2.533562   -0.190658
    118          1           0       14.441911    1.658881    1.027921
    119          1           0       16.314073    1.350116   -1.083090
    120          1           0       14.970064    2.409736   -2.004730
    121          1           0       15.376499    4.118552   -0.741822
    122          1           0       16.450748    3.489986    0.402894
    123          1           0       18.176309    2.956785   -1.247619
    124          1           0       16.189901    4.618630   -2.950491
    125          1           0       17.823203    4.446055   -3.484942
    126          1           0       16.675351    2.896067   -3.096931
    127          1           0       18.170009    5.375181    0.191677
    128          1           0       19.077205    5.619358   -1.430699
    129          1           0       17.249787    6.032697   -0.926073
    130          1           0       -5.220038   -7.994449   -0.177888
    131          1           0       -6.209344   -6.986843    0.774513
    132          1           0       -4.667811   -6.851192    1.325162
    133          8           0       -8.089780    6.804338   -0.401470
    134          1           0       -9.392697    6.078532   -1.898012
 ---------------------------------------------------------------------

 SCF Done:  E(RCAM-B3LYP) =  -3043.39266525     A.U. after   16 cycles

 Excitation energies and oscillator strengths:

 Excited State   1:      Singlet-A      1.9806 eV  626.00 nm  f=0.1410  <S**2>=0.000
     243 -> 245        0.26337
     243 -> 246        0.27835
     244 -> 245        0.55822
     244 -> 246       -0.17250
 This state for optimization and/or second-order correction.
 Total Energy, E(TD-HF/TD-KS) =  -3043.31988021
 Copying the excited state density for this state as the 1-particle RhoCI density.

 The electronic state is 1-A.
 Alpha  occ. eigenvalues --  -46.82674 -19.23334 -19.22676 -19.18811 -19.18673
 Alpha  occ. eigenvalues --  -19.17787 -19.17375 -19.15201 -14.39471 -14.37082
 Alpha  occ. eigenvalues --  -14.36964 -14.36322 -10.35782 -10.35772 -10.32293
 Alpha  occ. eigenvalues --  -10.31136 -10.28998 -10.28179 -10.27166 -10.26856
 Alpha  occ. eigenvalues --  -10.26732 -10.26615 -10.26586 -10.26336 -10.26321
 Alpha  occ. eigenvalues --  -10.26205 -10.25948 -10.25880 -10.25764 -10.25347
 Alpha  occ. eigenvalues --  -10.25009 -10.25001 -10.24745 -10.24716 -10.24550
 Alpha  occ. eigenvalues --  -10.24395 -10.24321 -10.24078 -10.23566 -10.23488
 Alpha  occ. eigenvalues --  -10.23064 -10.23058 -10.22829 -10.22704 -10.22696
 Alpha  occ. eigenvalues --  -10.22626 -10.22461 -10.22343 -10.22208 -10.22170
 Alpha  occ. eigenvalues --  -10.22109 -10.22099 -10.22074 -10.21941 -10.21929
 Alpha  occ. eigenvalues --  -10.21840 -10.21686 -10.21548 -10.21499 -10.21253
 Alpha  occ. eigenvalues --  -10.21096 -10.20974 -10.20773 -10.20491 -10.19481
 Alpha  occ. eigenvalues --  -10.19281  -3.10985  -1.85949  -1.85457  -1.85370
 Alpha  occ. eigenvalues --   -1.14038  -1.13935  -1.09146  -1.06574  -1.05664
 Alpha  occ. eigenvalues --   -1.04400  -1.02195  -1.01943  -1.00265  -0.99666
 Alpha  occ. eigenvalues --   -0.98751  -0.89673  -0.86847  -0.86434  -0.85824
 Alpha  occ. eigenvalues --   -0.85593  -0.84887  -0.84676  -0.83736  -0.83250
 Alpha  occ. eigenvalues --   -0.82898  -0.82307  -0.81942  -0.80779  -0.79736
 Alpha  occ. eigenvalues --   -0.79498  -0.78806  -0.77703  -0.77176  -0.76783
 Alpha  occ. eigenvalues --   -0.75649  -0.75250  -0.74916  -0.73184  -0.72397
 Alpha  occ. eigenvalues --   -0.71926  -0.70906  -0.70894  -0.70569  -0.70124
 Alpha  occ. eigenvalues --   -0.69712  -0.69180  -0.67467  -0.67131  -0.67056
 Alpha  occ. eigenvalues --   -0.65894  -0.65127  -0.64821  -0.62973  -0.62637
 Alpha  occ. eigenvalues --   -0.61973  -0.61517  -0.59996  -0.59245  -0.59182
 Alpha  occ. eigenvalues --   -0.58519  -0.58046  -0.57939  -0.57571  -0.57056
 Alpha  occ. eigenvalues --   -0.56498  -0.56163  -0.55833  -0.55721  -0.54866
 Alpha  occ. eigenvalues --   -0.54701  -0.54379  -0.53390  -0.52864  -0.52476
 Alpha  occ. eigenvalues --   -0.52266  -0.52036  -0.51753  -0.51156  -0.51024
 Alpha  occ. eigenvalues --   -0.50941  -0.50472  -0.50364  -0.50097  -0.49442
 Alpha  occ. eigenvalues --   -0.49040  -0.48857  -0.48731  -0.48156  -0.47779
 Alpha  occ. eigenvalues --   -0.47720  -0.47479  -0.47476  -0.47266  -0.47116
 Alpha  occ. eigenvalues --   -0.46984  -0.46467  -0.46274  -0.46203  -0.45860
 Alpha  occ. eigenvalues --   -0.45667  -0.45482  -0.45249  -0.45118  -0.44697
 Alpha  occ. eigenvalues --   -0.44548  -0.44296  -0.44089  -0.43974  -0.43883
 Alpha  occ. eigenvalues --   -0.43533  -0.43199  -0.43070  -0.42955  -0.42764
 Alpha  occ. eigenvalues --   -0.42753  -0.42442  -0.42197  -0.42109  -0.41964
 Alpha  occ. eigenvalues --   -0.41887  -0.41496  -0.41439  -0.41312  -0.41172
 Alpha  occ. eigenvalues --   -0.41081  -0.41058  -0.40779  -0.40595  -0.40501
 Alpha  occ. eigenvalues --   -0.40399  -0.40028  -0.39679  -0.39448  -0.39274
 Alpha  occ. eigenvalues --   -0.39051  -0.38935  -0.38908  -0.38778  -0.38466
 Alpha  occ. eigenvalues --   -0.38187  -0.38155  -0.38075  -0.37722  -0.37550
 Alpha  occ. eigenvalues --   -0.37137  -0.36939  -0.36136  -0.35906  -0.35683
 Alpha  occ. eigenvalues --   -0.35542  -0.35376  -0.35123  -0.34340  -0.34160
 Alpha  occ. eigenvalues --   -0.34131  -0.34030  -0.33897  -0.33604  -0.33119
 Alpha  occ. eigenvalues --   -0.32880  -0.32565  -0.32532  -0.31999  -0.31556
 Alpha  occ. eigenvalues --   -0.31446  -0.31107  -0.30861  -0.30748  -0.30265
 Alpha  occ. eigenvalues --   -0.29014  -0.28742  -0.28273  -0.28218  -0.26538
 Alpha  occ. eigenvalues --   -0.26507  -0.25799  -0.22707  -0.22117
 Alpha virt. eigenvalues --   -0.09261  -0.07325  -0.02362  -0.01246   0.00114
 Alpha virt. eigenvalues --    0.01759   0.03113   0.03461   0.03566   0.03709
 Alpha virt. eigenvalues --    0.04472   0.05142   0.07733   0.08382   0.09017

 Mulliken charges:
               1
     1  Mg   0.827102
     2  C    0.097141
     3  C   -0.171966
     4  C   -0.167183
     5  C   -0.205037
     6  N   -0.612911
     7  C    0.279080
     8  C   -0.093176
     9  C   -0.160331
    10  C    0.306402
    11  C   -0.312949
    12  C   -0.173364
    13  C   -0.265190
    14  C    0.601543
    15  O   -0.479271
    16  O   -0.442442
    17  N   -0.727061
    18  C    0.300105
    19  C    0.084786
    20  C   -0.048059
    21  C    0.358022
    22  C   -0.396767
    23  C    0.195970
    24  O   -0.465438
    25  N   -0.692417
    26  C    0.263654
    27  C    0.010624
    28  C   -0.030194
    29  C    0.373630
    30  C    0.239420
    31  C   -0.216574
    32  C   -0.292966
    33  N   -0.732827
    34  C    0.299522
    35  C    0.065481
    36  C   -0.029933
    37  C    0.331986
    38  C   -0.388658
    39  C    0.378446
    40  O   -0.414002
    41  C   -0.361494
    42  C    0.593022
    43  O   -0.452231
    44  O   -0.450506
    45  C   -0.067096
    46  C   -0.000216
    47  C   -0.131455
    48  C    0.135092
    49  C   -0.392506
    50  C   -0.206204
    51  C   -0.164614
    52  C   -0.151419
    53  C   -0.058110
    54  C   -0.317225
    55  C   -0.179037
    56  C   -0.153776
    57  C   -0.157351
    58  C   -0.078719
    59  C   -0.292077
    60  C   -0.166151
    61  C   -0.181070
    62  C   -0.153693
    63  C   -0.033433
    64  C   -0.306376
    65  C   -0.313319
    66  H    0.073392
    67  H    0.151070
    68  H    0.073905
    69  H    0.109089
    70  H    0.085853
    71  H    0.121608
    72  H    0.112114
    73  H    0.125272
    74  H    0.124196
    75  H    0.122073
    76  H    0.139961
    77  H    0.124113
    78  H    0.098362
    79  H    0.167019
    80  H    0.138890
    81  H    0.090853
    82  H    0.103143
    83  H    0.113418
    84  H    0.118909
    85  H    0.086509
    86  H    0.118364
    87  H    0.143220
    88  H    0.138557
    89  H    0.113961
    90  H    0.163689
    91  H    0.119638
    92  H    0.118960
    93  H    0.087325
    94  H    0.156165
    95  H    0.118517
    96  H    0.137221
    97  H    0.053162
    98  H    0.110769
    99  H    0.078029
   100  H    0.092155
   101  H    0.101286
   102  H    0.039925
   103  H    0.092791
   104  H    0.110527
   105  H    0.092972
   106  H    0.100737
   107  H    0.078313
   108  H    0.088433
   109  H    0.074379
   110  H    0.074409
   111  H    0.080449
   112  H    0.070789
   113  H    0.062775
   114  H    0.086204
   115  H    0.117643
   116  H    0.084410
   117  H    0.086800
   118  H    0.086681
   119  H    0.106921
   120  H    0.084248
   121  H    0.079106
   122  H    0.101617
   123  H    0.035193
   124  H    0.085502
   125  H    0.117169
   126  H    0.111082
   127  H    0.112441
   128  H    0.074791
   129  H    0.095341
   130  H    0.095897
   131  H    0.141747
   132  H    0.123361
   133  O   -0.441207
   134  H    0.063555
 Sum of Mulliken charges =   0.00000

 Dipole moment (field-independent basis, Debye):
    X=              0.8582    Y=             -6.6015    Z=             -2.0008  Tot=              6.9512
 Quadrupole moment (field-independent basis, Debye-Ang):
   XX=           -392.6707   YY=           -443.6690   ZZ=           -396.3557
   XY=             19.0888   XZ=             31.2028   YZ=            -38.9290

 Normal termination of Gaussian 09 at Tue Oct  8 09:32:19 2019.
