 Gaussian 09, Revision D.01,
 Gaussian 09:  ES64L-G09RevD.01 24-Apr-2013

 ----------------------------------------------------------------------
 # td=(NStates=1) iop(3/107=0140000000,3/108=0140000000) iop(3/107=0140
 000000,3/108=0140000000) CAM-B3LYP/6-31G(d,p)
 ----------------------------------------------------------------------

 --
 TD
 --
 Symbolic Z-matrix:
 Charge =  0 Multiplicity = 1

                         Standard orientation:
 ---------------------------------------------------------------------
 Center     Atomic      Atomic             Coordinates (Angstroms)
 Number     Number       Type             X           Y           Z
 ---------------------------------------------------------------------
      1         12           0       -5.647276    1.176245    0.284370
      2          6           0       -5.066089   -2.215270   -0.258918
      3          6           0       -3.501755    1.136239    2.957231
      4          6           0       -6.247692    4.635694    0.666348
      5          6           0       -7.930137    1.166621   -2.356431
      6          7           0       -4.371212   -0.199575    0.972604
      7          6           0       -4.346214   -1.578392    0.674889
      8          6           0       -3.238629   -2.265556    1.619124
      9          6           0       -3.030968   -1.266191    2.602842
     10          6           0       -3.749292    0.032255    2.178910
     11          6           0       -3.583137   -1.756947    4.006360
     12          6           0       -2.063990   -2.634672    0.763407
     13          6           0       -0.940305   -3.392333    1.501324
     14          6           0        0.234297   -3.790545    0.655673
     15          8           0        0.481873   -3.381757   -0.429939
     16          8           0        1.071002   -4.657249    1.213566
     17          7           0       -4.973355    2.669961    1.598452
     18          6           0       -4.119363    2.436910    2.538073
     19          6           0       -3.772538    3.685157    3.219234
     20          6           0       -4.593481    4.591752    2.569173
     21          6           0       -5.372836    4.046486    1.613405
     22          6           0       -2.895702    3.803546    4.471771
     23          6           0       -4.703028    6.028979    2.893617
     24          8           0       -3.982271    6.582113    3.715708
     25          7           0       -6.885422    2.551148   -0.724988
     26          6           0       -6.957683    3.911424   -0.434826
     27          6           0       -7.912766    4.512359   -1.283382
     28          6           0       -8.365711    3.543005   -2.141178
     29          6           0       -7.680712    2.296405   -1.781043
     30          6           0       -8.387315    5.910645   -1.288576
     31          6           0       -9.321275    3.668779   -3.338417
     32          6           0       -8.457755    4.059068   -4.720151
     33          7           0       -6.335606   -0.149836   -1.029847
     34          6           0       -7.336992   -0.075074   -2.053126
     35          6           0       -7.452250   -1.324135   -2.787172
     36          6           0       -6.568019   -2.218309   -2.117354
     37          6           0       -5.932055   -1.449390   -1.077372
     38          6           0       -8.368190   -1.671093   -3.955906
     39          6           0       -6.142581   -3.627382   -1.978429
     40          8           0       -6.468451   -4.560078   -2.648293
     41          6           0       -5.049311   -3.624174   -0.904730
     42          6           0       -5.252898   -4.699502    0.178692
     43          8           0       -5.831394   -4.550344    1.226813
     44          8           0       -4.993245   -5.895087   -0.310314
     45          6           0       -5.409846   -6.996762    0.551829
     46          6           0        2.294839   -4.932122    0.577567
     47          6           0        3.422651   -3.982327    0.930791
     48          6           0        4.030752   -3.177469    0.158438
     49          6           0        3.660521   -2.920582   -1.280668
     50          6           0        5.231439   -2.267691    0.725485
     51          6           0        6.504006   -2.625577    0.009089
     52          6           0        7.674086   -1.807048    0.508202
     53          6           0        9.128215   -1.912805   -0.081038
     54          6           0        9.584865   -3.391376    0.027165
     55          6           0       10.039352   -0.964296    0.454635
     56          6           0       11.353184   -0.896534   -0.322245
     57          6           0       12.205511    0.267537    0.150599
     58          6           0       13.517559    0.326955   -0.550757
     59          6           0       14.497008   -0.880320   -0.218780
     60          6           0       14.171437    1.666837   -0.211541
     61          6           0       15.516407    2.103183   -1.013319
     62          6           0       16.055705    3.416068   -0.506102
     63          6           0       17.294159    3.870975   -1.307333
     64          6           0       17.036092    4.010205   -2.829641
     65          6           0       17.860214    5.230863   -0.796554
     66          1           0       -2.933126    1.054409    3.946142
     67          1           0       -6.385499    5.634852    0.510482
     68          1           0       -8.635693    1.276964   -3.309874
     69          1           0       -3.494918   -3.297219    1.881957
     70          1           0       -2.016825   -1.076706    2.873136
     71          1           0       -3.004552   -2.620221    4.221458
     72          1           0       -3.388411   -0.804484    4.685442
     73          1           0       -4.690011   -1.946247    3.708812
     74          1           0       -2.325498   -3.133504   -0.037626
     75          1           0       -1.509966   -1.684690    0.299638
     76          1           0       -0.658413   -2.713848    2.387064
     77          1           0       -1.455414   -4.431277    1.970890
     78          1           0       -1.823685    3.398980    4.339594
     79          1           0       -2.905978    4.861208    4.874361
     80          1           0       -3.261790    3.223465    5.405118
     81          1           0       -5.214628    6.759561    2.269309
     82          1           0       -9.781519    2.724990   -3.350728
     83          1           0       -9.978835    4.697505   -2.989366
     84          1           0       -9.270663    4.113029   -5.613831
     85          1           0       -7.748539    4.941248   -4.710682
     86          1           0       -7.691818    3.236793   -5.052185
     87          1           0       -8.179937   -1.124652   -4.792768
     88          1           0       -8.316409   -2.823626   -4.082923
     89          1           0       -9.596675   -1.390137   -3.882182
     90          1           0       -4.027767   -4.019613   -1.391975
     91          1           0        2.663524   -6.119733    0.953272
     92          1           0        2.072910   -4.942114   -0.551895
     93          1           0        3.798241   -3.984687    2.056762
     94          1           0        2.623400   -3.451607   -1.421755
     95          1           0        3.769070   -1.631245   -1.482624
     96          1           0        4.341762   -3.443203   -2.145063
     97          1           0        4.817531   -1.361895    0.606673
     98          1           0        5.351350   -2.595611    1.845569
     99          1           0        6.882054   -3.646928    0.059514
    100          1           0        6.613949   -2.441160   -1.041961
    101          1           0        7.427052   -0.751071    0.460396
    102          1           0        7.802611   -1.796464    1.562790
    103          1           0        9.117912   -1.684147   -1.226345
    104          1           0        9.112322   -4.057919   -0.629442
    105          1           0       10.717604   -3.512712   -0.219921
    106          1           0        9.514304   -3.884592    0.978754
    107          1           0        9.435062    0.106411    0.440719
    108          1           0       10.523957   -1.173166    1.535121
    109          1           0       11.722232   -1.821384   -0.195189
    110          1           0       10.999742   -0.648897   -1.232838
    111          1           0       11.705639    1.110874   -0.050513
    112          1           0       12.404983    0.162380    1.202505
    113          1           0       13.259874    0.197361   -1.567328
    114          1           0       14.776993   -0.947376    0.781540
    115          1           0       14.048668   -1.675301   -0.786023
    116          1           0       15.467708   -0.667587   -0.690756
    117          1           0       13.409295    2.458874   -0.578025
    118          1           0       14.363844    1.912357    0.834075
    119          1           0       16.443812    1.487354   -0.827196
    120          1           0       15.344315    2.156422   -2.151775
    121          1           0       15.470193    4.288316   -0.868514
    122          1           0       16.178185    3.232330    0.663665
    123          1           0       18.062315    3.261085   -1.169332
    124          1           0       16.326554    4.960766   -3.121113
    125          1           0       17.997032    4.226508   -3.244993
    126          1           0       16.614392    3.065908   -2.997369
    127          1           0       17.998685    5.459702    0.237036
    128          1           0       19.054420    5.716249   -1.171288
    129          1           0       17.182740    6.019900   -1.258224
    130          1           0       -5.043595   -7.998812   -0.018197
    131          1           0       -6.511438   -7.091846    0.458567
    132          1           0       -4.952437   -7.056266    1.587812
    133          8           0       -7.916127    6.842584   -0.587494
    134          1           0       -9.147517    6.363403   -1.996012
 ---------------------------------------------------------------------

 SCF Done:  E(RCAM-B3LYP) =  -3043.39211972     A.U. after   15 cycles

 Excitation energies and oscillator strengths:

 Excited State   1:      Singlet-A      2.0274 eV  611.55 nm  f=0.2601  <S**2>=0.000
     243 -> 246       -0.19854
     244 -> 245        0.67104
 This state for optimization and/or second-order correction.
 Total Energy, E(TD-HF/TD-KS) =  -3043.31761519
 Copying the excited state density for this state as the 1-particle RhoCI density.

 The electronic state is 1-A.
 Alpha  occ. eigenvalues --  -46.80871 -19.23406 -19.22062 -19.17591 -19.17259
 Alpha  occ. eigenvalues --  -19.16980 -19.16885 -19.16585 -14.38815 -14.37493
 Alpha  occ. eigenvalues --  -14.37067 -14.36964 -10.35037 -10.34998 -10.31646
 Alpha  occ. eigenvalues --  -10.31632 -10.29712 -10.29684 -10.29269 -10.27866
 Alpha  occ. eigenvalues --  -10.27798 -10.27701 -10.27345 -10.26889 -10.26720
 Alpha  occ. eigenvalues --  -10.26686 -10.26571 -10.26169 -10.26049 -10.25993
 Alpha  occ. eigenvalues --  -10.25691 -10.25407 -10.25287 -10.25164 -10.24953
 Alpha  occ. eigenvalues --  -10.24802 -10.24253 -10.24171 -10.24015 -10.23738
 Alpha  occ. eigenvalues --  -10.23639 -10.23562 -10.23228 -10.23136 -10.22809
 Alpha  occ. eigenvalues --  -10.22540 -10.22443 -10.22295 -10.22288 -10.22192
 Alpha  occ. eigenvalues --  -10.22151 -10.21722 -10.21700 -10.21686 -10.21579
 Alpha  occ. eigenvalues --  -10.21448 -10.21420 -10.20840 -10.20821 -10.20598
 Alpha  occ. eigenvalues --  -10.20593 -10.20154 -10.19642 -10.19200 -10.18581
 Alpha  occ. eigenvalues --  -10.18308  -3.09599  -1.84532  -1.84062  -1.84026
 Alpha  occ. eigenvalues --   -1.15580  -1.15039  -1.08525  -1.06138  -1.05728
 Alpha  occ. eigenvalues --   -1.05415  -1.05000  -1.01300  -1.00492  -0.99298
 Alpha  occ. eigenvalues --   -0.97999  -0.88626  -0.86948  -0.86826  -0.85728
 Alpha  occ. eigenvalues --   -0.85537  -0.84784  -0.84523  -0.84392  -0.83774
 Alpha  occ. eigenvalues --   -0.83322  -0.82434  -0.81741  -0.80931  -0.80059
 Alpha  occ. eigenvalues --   -0.78583  -0.77972  -0.77686  -0.76716  -0.76342
 Alpha  occ. eigenvalues --   -0.75447  -0.74943  -0.73137  -0.73015  -0.71819
 Alpha  occ. eigenvalues --   -0.71339  -0.70720  -0.70011  -0.69735  -0.69503
 Alpha  occ. eigenvalues --   -0.69241  -0.68989  -0.67143  -0.66707  -0.66412
 Alpha  occ. eigenvalues --   -0.66234  -0.65474  -0.64478  -0.62594  -0.62519
 Alpha  occ. eigenvalues --   -0.61348  -0.60975  -0.60804  -0.59434  -0.59090
 Alpha  occ. eigenvalues --   -0.58813  -0.58359  -0.58350  -0.57627  -0.57254
 Alpha  occ. eigenvalues --   -0.56790  -0.56280  -0.55586  -0.54946  -0.54528
 Alpha  occ. eigenvalues --   -0.53955  -0.53359  -0.53169  -0.52908  -0.52803
 Alpha  occ. eigenvalues --   -0.52406  -0.51923  -0.51769  -0.51051  -0.50684
 Alpha  occ. eigenvalues --   -0.50559  -0.50361  -0.50318  -0.49262  -0.49226
 Alpha  occ. eigenvalues --   -0.49050  -0.48817  -0.48104  -0.48036  -0.47812
 Alpha  occ. eigenvalues --   -0.47696  -0.47486  -0.47211  -0.47145  -0.47040
 Alpha  occ. eigenvalues --   -0.46928  -0.46440  -0.46413  -0.46152  -0.45594
 Alpha  occ. eigenvalues --   -0.45382  -0.45266  -0.45104  -0.44945  -0.44606
 Alpha  occ. eigenvalues --   -0.44294  -0.44242  -0.43896  -0.43691  -0.43637
 Alpha  occ. eigenvalues --   -0.43331  -0.43141  -0.42912  -0.42761  -0.42682
 Alpha  occ. eigenvalues --   -0.42580  -0.42308  -0.41891  -0.41697  -0.41686
 Alpha  occ. eigenvalues --   -0.41385  -0.41287  -0.41177  -0.41131  -0.40922
 Alpha  occ. eigenvalues --   -0.40890  -0.40611  -0.40534  -0.40416  -0.40249
 Alpha  occ. eigenvalues --   -0.40136  -0.39948  -0.39387  -0.39014  -0.38905
 Alpha  occ. eigenvalues --   -0.38888  -0.38784  -0.38712  -0.38161  -0.38060
 Alpha  occ. eigenvalues --   -0.37839  -0.37623  -0.37378  -0.37018  -0.36986
 Alpha  occ. eigenvalues --   -0.36721  -0.36301  -0.35935  -0.35900  -0.35431
 Alpha  occ. eigenvalues --   -0.35153  -0.34786  -0.34663  -0.34598  -0.34257
 Alpha  occ. eigenvalues --   -0.34099  -0.34017  -0.33888  -0.33778  -0.33312
 Alpha  occ. eigenvalues --   -0.33033  -0.32250  -0.32119  -0.32099  -0.31582
 Alpha  occ. eigenvalues --   -0.31485  -0.30899  -0.30801  -0.30461  -0.30067
 Alpha  occ. eigenvalues --   -0.29149  -0.28475  -0.28398  -0.28307  -0.28024
 Alpha  occ. eigenvalues --   -0.27780  -0.27191  -0.23766  -0.22265
 Alpha virt. eigenvalues --   -0.09498  -0.06440  -0.01579  -0.01147   0.00201
 Alpha virt. eigenvalues --    0.02728   0.03191   0.03450   0.04180   0.04524
 Alpha virt. eigenvalues --    0.05017   0.05206   0.07194   0.07407   0.08347

 Mulliken charges:
               1
     1  Mg   0.816903
     2  C    0.128702
     3  C   -0.187066
     4  C   -0.131791
     5  C   -0.182431
     6  N   -0.689433
     7  C    0.256935
     8  C   -0.103384
     9  C   -0.186174
    10  C    0.401404
    11  C   -0.286412
    12  C   -0.159280
    13  C   -0.271994
    14  C    0.608301
    15  O   -0.452183
    16  O   -0.436379
    17  N   -0.709162
    18  C    0.330481
    19  C    0.054899
    20  C   -0.054523
    21  C    0.315215
    22  C   -0.398476
    23  C    0.232322
    24  O   -0.414314
    25  N   -0.709134
    26  C    0.263283
    27  C    0.001986
    28  C   -0.004665
    29  C    0.387850
    30  C    0.221590
    31  C   -0.218902
    32  C   -0.311784
    33  N   -0.722977
    34  C    0.236010
    35  C    0.036712
    36  C   -0.006500
    37  C    0.272425
    38  C   -0.377511
    39  C    0.398030
    40  O   -0.442826
    41  C   -0.326074
    42  C    0.607266
    43  O   -0.467110
    44  O   -0.426613
    45  C   -0.093950
    46  C   -0.001629
    47  C   -0.124098
    48  C    0.150252
    49  C   -0.343375
    50  C   -0.210625
    51  C   -0.168576
    52  C   -0.188299
    53  C   -0.030872
    54  C   -0.331242
    55  C   -0.163387
    56  C   -0.177653
    57  C   -0.147608
    58  C   -0.062605
    59  C   -0.322658
    60  C   -0.173372
    61  C   -0.186855
    62  C   -0.146791
    63  C   -0.079472
    64  C   -0.300134
    65  C   -0.294660
    66  H    0.105357
    67  H    0.129441
    68  H    0.093613
    69  H    0.108502
    70  H    0.107386
    71  H    0.117052
    72  H    0.086196
    73  H    0.121590
    74  H    0.113365
    75  H    0.099608
    76  H    0.133941
    77  H    0.097117
    78  H    0.117211
    79  H    0.162374
    80  H    0.116791
    81  H    0.090840
    82  H    0.123454
    83  H    0.094695
    84  H    0.102787
    85  H    0.128011
    86  H    0.105679
    87  H    0.144633
    88  H    0.148039
    89  H    0.091043
    90  H    0.156477
    91  H    0.082677
    92  H    0.115805
    93  H    0.069571
    94  H    0.135253
    95  H    0.074345
    96  H    0.097643
    97  H    0.119079
    98  H    0.087859
    99  H    0.101907
   100  H    0.104406
   101  H    0.076523
   102  H    0.090019
   103  H    0.065217
   104  H    0.110861
   105  H    0.079848
   106  H    0.109292
   107  H    0.057182
   108  H    0.064532
   109  H    0.107928
   110  H    0.093524
   111  H    0.093558
   112  H    0.082741
   113  H    0.083192
   114  H    0.106975
   115  H    0.105139
   116  H    0.099874
   117  H    0.078020
   118  H    0.091412
   119  H    0.085836
   120  H    0.087449
   121  H    0.087922
   122  H    0.078062
   123  H    0.102598
   124  H    0.078739
   125  H    0.118804
   126  H    0.108408
   127  H    0.110015
   128  H    0.035373
   129  H    0.091516
   130  H    0.106220
   131  H    0.145575
   132  H    0.138232
   133  O   -0.435918
   134  H    0.085973
 Sum of Mulliken charges =   0.00000

 Dipole moment (field-independent basis, Debye):
    X=              0.2015    Y=             -4.0087    Z=             -1.1429  Tot=              4.1733
 Quadrupole moment (field-independent basis, Debye-Ang):
   XX=           -385.8109   YY=           -437.2537   ZZ=           -392.3076
   XY=             -5.1922   XZ=             25.8419   YZ=            -31.9965

 Normal termination of Gaussian 09 at Mon Oct  7 20:55:13 2019.
