 Gaussian 09, Revision D.01,
 Gaussian 09:  ES64L-G09RevD.01 24-Apr-2013

 ----------------------------------------------------------------------
 # td=(NStates=1) iop(3/107=0140000000,3/108=0140000000) iop(3/107=0140
 000000,3/108=0140000000) CAM-B3LYP/6-31G(d,p)
 ----------------------------------------------------------------------

 --
 TD
 --
 Symbolic Z-matrix:
 Charge =  0 Multiplicity = 1

                         Standard orientation:
 ---------------------------------------------------------------------
 Center     Atomic      Atomic             Coordinates (Angstroms)
 Number     Number       Type             X           Y           Z
 ---------------------------------------------------------------------
      1         12           0       -5.698381    1.246737    0.249383
      2          6           0       -4.964313   -2.191539   -0.361712
      3          6           0       -3.389100    1.240497    2.877864
      4          6           0       -6.099368    4.605859    0.653651
      5          6           0       -7.979433    1.094978   -2.351378
      6          7           0       -4.375331   -0.132835    1.076208
      7          6           0       -4.263904   -1.523933    0.700538
      8          6           0       -3.261423   -2.278308    1.509647
      9          6           0       -2.956276   -1.246992    2.589208
     10          6           0       -3.600222    0.017968    2.219426
     11          6           0       -3.552652   -1.830672    3.954510
     12          6           0       -2.012638   -2.629249    0.693390
     13          6           0       -1.052872   -3.541336    1.421974
     14          6           0        0.186030   -3.910110    0.648277
     15          8           0        0.472502   -3.391657   -0.479178
     16          8           0        1.080601   -4.646223    1.285800
     17          7           0       -4.912789    2.623179    1.543624
     18          6           0       -3.903497    2.442940    2.578738
     19          6           0       -3.693869    3.713725    3.132690
     20          6           0       -4.506537    4.677072    2.575515
     21          6           0       -5.246821    3.916007    1.509036
     22          6           0       -2.712273    3.825755    4.265314
     23          6           0       -4.588975    6.118466    2.814660
     24          8           0       -3.839871    6.731004    3.671896
     25          7           0       -6.991096    2.573922   -0.584496
     26          6           0       -6.929497    3.923286   -0.393419
     27          6           0       -7.877496    4.607695   -1.233834
     28          6           0       -8.400997    3.641546   -2.151076
     29          6           0       -7.733843    2.343356   -1.806623
     30          6           0       -8.178345    5.973383   -1.240256
     31          6           0       -9.299683    3.779019   -3.314629
     32          6           0       -8.700013    4.192886   -4.622871
     33          7           0       -6.347810   -0.128264   -1.132505
     34          6           0       -7.315009   -0.053150   -2.211270
     35          6           0       -7.506220   -1.427917   -2.782105
     36          6           0       -6.688677   -2.235689   -1.926970
     37          6           0       -5.884240   -1.433580   -1.034465
     38          6           0       -8.576000   -1.720282   -3.715796
     39          6           0       -6.258671   -3.564370   -1.923403
     40          8           0       -6.510461   -4.557498   -2.538500
     41          6           0       -5.145899   -3.621280   -0.852227
     42          6           0       -5.393693   -4.580908    0.118540
     43          8           0       -5.826170   -4.387161    1.296962
     44          8           0       -5.162486   -5.786250   -0.286153
     45          6           0       -5.468581   -6.866374    0.568109
     46          6           0        2.318479   -5.099312    0.755466
     47          6           0        3.396987   -4.053175    1.000273
     48          6           0        4.035245   -3.369714    0.095317
     49          6           0        3.806729   -3.326282   -1.438947
     50          6           0        5.156890   -2.485108    0.561095
     51          6           0        6.452420   -2.793857   -0.034387
     52          6           0        7.521269   -1.789906    0.440015
     53          6           0        8.925346   -2.012544   -0.203203
     54          6           0        9.515826   -3.429081    0.050717
     55          6           0        9.944968   -0.938961    0.355394
     56          6           0       11.312696   -0.797229   -0.396964
     57          6           0       12.209643    0.196480    0.212672
     58          6           0       13.587438    0.400728   -0.566474
     59          6           0       14.535187   -0.774415   -0.331612
     60          6           0       14.311227    1.718392   -0.149405
     61          6           0       15.478895    2.125945   -0.960282
     62          6           0       16.018302    3.544046   -0.545638
     63          6           0       17.311173    3.831504   -1.250051
     64          6           0       17.099123    3.962894   -2.743010
     65          6           0       17.858322    5.225081   -0.740447
     66          1           0       -2.726950    1.150157    3.671311
     67          1           0       -6.438968    5.530229    0.868336
     68          1           0       -8.547181    1.081494   -3.458206
     69          1           0       -3.659387   -3.212346    1.927414
     70          1           0       -1.839690   -1.223555    2.699056
     71          1           0       -2.895307   -2.495454    4.314255
     72          1           0       -3.531806   -0.873029    4.690544
     73          1           0       -4.615493   -2.265262    3.784909
     74          1           0       -2.408326   -3.178010   -0.220383
     75          1           0       -1.437223   -1.764266    0.462040
     76          1           0       -0.541538   -3.163754    2.426366
     77          1           0       -1.348646   -4.478271    1.812561
     78          1           0       -1.835560    3.358693    3.940198
     79          1           0       -2.840480    4.815302    4.593268
     80          1           0       -3.072219    3.269515    5.231648
     81          1           0       -5.402835    6.606123    2.156471
     82          1           0       -9.940954    2.946665   -3.405735
     83          1           0      -10.017205    4.610977   -3.055051
     84          1           0       -9.670794    4.309395   -5.282468
     85          1           0       -8.105921    5.049502   -4.649497
     86          1           0       -7.961734    3.539397   -4.911682
     87          1           0       -8.487854   -1.171962   -4.542888
     88          1           0       -8.388744   -2.862451   -4.151568
     89          1           0       -9.524742   -1.919336   -3.120521
     90          1           0       -4.189694   -3.963659   -1.333599
     91          1           0        2.720295   -5.968310    1.354830
     92          1           0        2.221985   -5.332118   -0.266636
     93          1           0        3.813515   -4.025658    2.065080
     94          1           0        2.685857   -3.421877   -1.522030
     95          1           0        4.150456   -2.344911   -1.824770
     96          1           0        4.412648   -4.094322   -1.982440
     97          1           0        5.166637   -1.429094    0.376666
     98          1           0        5.203423   -2.355932    1.797156
     99          1           0        6.645872   -3.773110    0.220185
    100          1           0        6.510057   -2.736519   -1.120396
    101          1           0        7.335830   -0.809030    0.334310
    102          1           0        7.817383   -1.879402    1.577927
    103          1           0        8.805382   -1.999608   -1.332854
    104          1           0        8.775386   -4.032266   -0.389784
    105          1           0       10.534742   -3.476078   -0.441136
    106          1           0        9.425997   -3.481419    1.093626
    107          1           0        9.415291    0.171764   -0.024433
    108          1           0       10.098822   -0.905032    1.339339
    109          1           0       12.008470   -1.784509   -0.425737
    110          1           0       11.158023   -0.512750   -1.478165
    111          1           0       11.817246    1.246021    0.433589
    112          1           0       12.507150   -0.159162    1.166482
    113          1           0       13.338922    0.477323   -1.822529
    114          1           0       14.999872   -0.760046    0.572976
    115          1           0       14.099701   -1.712448   -0.510981
    116          1           0       15.296014   -0.744244   -1.029816
    117          1           0       13.534551    2.606798   -0.441871
    118          1           0       14.454750    1.783978    0.992977
    119          1           0       16.238714    1.373104   -1.005056
    120          1           0       15.357095    2.477720   -1.880326
    121          1           0       15.214921    4.224767   -0.819590
    122          1           0       16.079799    3.653025    0.645234
    123          1           0       18.144014    3.184883   -0.922752
    124          1           0       16.210185    4.474513   -2.714545
    125          1           0       18.018151    4.521771   -3.224927
    126          1           0       17.017979    2.893542   -3.138292
    127          1           0       17.977820    5.163515    0.192429
    128          1           0       18.702042    5.600434   -1.330896
    129          1           0       17.118408    6.037362   -0.860155
    130          1           0       -5.095122   -7.804682    0.244369
    131          1           0       -6.540570   -6.878761    0.680689
    132          1           0       -5.049629   -6.727949    1.677981
    133          8           0       -7.765158    6.809337   -0.447898
    134          1           0       -8.787677    6.311937   -2.155880
 ---------------------------------------------------------------------

 SCF Done:  E(RCAM-B3LYP) =  -3043.47257346     A.U. after   16 cycles

 Excitation energies and oscillator strengths:

 Excited State   1:      Singlet-A      1.9813 eV  625.76 nm  f=0.1629  <S**2>=0.000
     243 -> 246        0.26431
     244 -> 245        0.64820
 This state for optimization and/or second-order correction.
 Total Energy, E(TD-HF/TD-KS) =  -3043.39976022
 Copying the excited state density for this state as the 1-particle RhoCI density.

 The electronic state is 1-A.
 Alpha  occ. eigenvalues --  -46.80788 -19.23597 -19.22967 -19.17288 -19.17015
 Alpha  occ. eigenvalues --  -19.16365 -19.16121 -19.15653 -14.40314 -14.37299
 Alpha  occ. eigenvalues --  -14.36801 -14.36800 -10.35615 -10.34497 -10.31274
 Alpha  occ. eigenvalues --  -10.30818 -10.29539 -10.28891 -10.28827 -10.28507
 Alpha  occ. eigenvalues --  -10.27894 -10.27111 -10.26851 -10.26805 -10.26694
 Alpha  occ. eigenvalues --  -10.26567 -10.26498 -10.26187 -10.25606 -10.25505
 Alpha  occ. eigenvalues --  -10.25235 -10.24698 -10.24655 -10.24562 -10.24283
 Alpha  occ. eigenvalues --  -10.24040 -10.23820 -10.23691 -10.23594 -10.23518
 Alpha  occ. eigenvalues --  -10.23233 -10.23192 -10.23097 -10.22974 -10.22692
 Alpha  occ. eigenvalues --  -10.22528 -10.22512 -10.22024 -10.22021 -10.21950
 Alpha  occ. eigenvalues --  -10.21865 -10.21747 -10.21630 -10.21546 -10.21372
 Alpha  occ. eigenvalues --  -10.21301 -10.21251 -10.21176 -10.20853 -10.20669
 Alpha  occ. eigenvalues --  -10.20403 -10.20291 -10.19234 -10.18964 -10.18086
 Alpha  occ. eigenvalues --  -10.17995  -3.09436  -1.84377  -1.83938  -1.83816
 Alpha  occ. eigenvalues --   -1.16041  -1.13989  -1.08524  -1.05953  -1.02695
 Alpha  occ. eigenvalues --   -1.02058  -1.01994  -0.99748  -0.98699  -0.98070
 Alpha  occ. eigenvalues --   -0.97046  -0.90003  -0.87093  -0.86661  -0.85945
 Alpha  occ. eigenvalues --   -0.85738  -0.85137  -0.84436  -0.84134  -0.83762
 Alpha  occ. eigenvalues --   -0.83432  -0.83290  -0.82489  -0.81631  -0.80705
 Alpha  occ. eigenvalues --   -0.79897  -0.79275  -0.79013  -0.78179  -0.77196
 Alpha  occ. eigenvalues --   -0.76163  -0.75621  -0.74696  -0.74035  -0.72815
 Alpha  occ. eigenvalues --   -0.71769  -0.71289  -0.70945  -0.70722  -0.70423
 Alpha  occ. eigenvalues --   -0.69543  -0.69246  -0.68396  -0.67632  -0.66861
 Alpha  occ. eigenvalues --   -0.66080  -0.64570  -0.64526  -0.63122  -0.62895
 Alpha  occ. eigenvalues --   -0.62124  -0.61292  -0.60182  -0.59986  -0.59396
 Alpha  occ. eigenvalues --   -0.58736  -0.58382  -0.57753  -0.57600  -0.57080
 Alpha  occ. eigenvalues --   -0.56678  -0.56271  -0.56076  -0.55507  -0.55307
 Alpha  occ. eigenvalues --   -0.54431  -0.53719  -0.52798  -0.52574  -0.52447
 Alpha  occ. eigenvalues --   -0.52237  -0.51901  -0.51661  -0.51480  -0.50756
 Alpha  occ. eigenvalues --   -0.50251  -0.50084  -0.49956  -0.49855  -0.49438
 Alpha  occ. eigenvalues --   -0.49144  -0.48941  -0.48836  -0.48520  -0.48391
 Alpha  occ. eigenvalues --   -0.48087  -0.48039  -0.47481  -0.47369  -0.46858
 Alpha  occ. eigenvalues --   -0.46664  -0.46476  -0.46405  -0.46224  -0.46171
 Alpha  occ. eigenvalues --   -0.45919  -0.45574  -0.45477  -0.45381  -0.45112
 Alpha  occ. eigenvalues --   -0.45007  -0.44872  -0.44621  -0.44364  -0.44232
 Alpha  occ. eigenvalues --   -0.43850  -0.43757  -0.43526  -0.43345  -0.43000
 Alpha  occ. eigenvalues --   -0.42882  -0.42618  -0.42540  -0.42449  -0.42131
 Alpha  occ. eigenvalues --   -0.41614  -0.41360  -0.41054  -0.40988  -0.40875
 Alpha  occ. eigenvalues --   -0.40756  -0.40397  -0.40300  -0.40215  -0.40160
 Alpha  occ. eigenvalues --   -0.40056  -0.39776  -0.39663  -0.39258  -0.39105
 Alpha  occ. eigenvalues --   -0.38960  -0.38837  -0.38508  -0.38381  -0.38264
 Alpha  occ. eigenvalues --   -0.37852  -0.37829  -0.37773  -0.37611  -0.37325
 Alpha  occ. eigenvalues --   -0.37038  -0.36915  -0.36584  -0.36017  -0.35813
 Alpha  occ. eigenvalues --   -0.35340  -0.35114  -0.34657  -0.34626  -0.34578
 Alpha  occ. eigenvalues --   -0.33919  -0.33817  -0.33569  -0.33253  -0.33081
 Alpha  occ. eigenvalues --   -0.32932  -0.32353  -0.32313  -0.31853  -0.31591
 Alpha  occ. eigenvalues --   -0.31262  -0.29901  -0.29786  -0.29725  -0.29596
 Alpha  occ. eigenvalues --   -0.28414  -0.28145  -0.28007  -0.27921  -0.27801
 Alpha  occ. eigenvalues --   -0.27697  -0.27238  -0.23653  -0.21881
 Alpha virt. eigenvalues --   -0.08966  -0.07545  -0.02924  -0.01205  -0.00091
 Alpha virt. eigenvalues --    0.02411   0.02777   0.03230   0.04160   0.04569
 Alpha virt. eigenvalues --    0.04777   0.05476   0.07156   0.07858   0.09058

 Mulliken charges:
               1
     1  Mg   0.808307
     2  C    0.105873
     3  C   -0.205171
     4  C   -0.144951
     5  C   -0.182692
     6  N   -0.636573
     7  C    0.282646
     8  C   -0.145310
     9  C   -0.185981
    10  C    0.388673
    11  C   -0.303957
    12  C   -0.157672
    13  C   -0.269746
    14  C    0.581671
    15  O   -0.502746
    16  O   -0.439071
    17  N   -0.738662
    18  C    0.348408
    19  C    0.021465
    20  C   -0.011743
    21  C    0.360691
    22  C   -0.369318
    23  C    0.234862
    24  O   -0.451158
    25  N   -0.663948
    26  C    0.289488
    27  C    0.006250
    28  C    0.034949
    29  C    0.251631
    30  C    0.218486
    31  C   -0.257262
    32  C   -0.296224
    33  N   -0.737227
    34  C    0.269090
    35  C    0.056650
    36  C   -0.007439
    37  C    0.333332
    38  C   -0.382894
    39  C    0.350546
    40  O   -0.451538
    41  C   -0.349308
    42  C    0.633465
    43  O   -0.536954
    44  O   -0.401719
    45  C   -0.086188
    46  C    0.010085
    47  C   -0.161063
    48  C    0.172603
    49  C   -0.389857
    50  C   -0.231976
    51  C   -0.168684
    52  C   -0.167636
    53  C   -0.088757
    54  C   -0.296437
    55  C   -0.149969
    56  C   -0.165506
    57  C   -0.167880
    58  C   -0.043369
    59  C   -0.319368
    60  C   -0.163130
    61  C   -0.163807
    62  C   -0.191170
    63  C   -0.063176
    64  C   -0.295494
    65  C   -0.305816
    66  H    0.082812
    67  H    0.123399
    68  H    0.079536
    69  H    0.135534
    70  H    0.108128
    71  H    0.127495
    72  H    0.084610
    73  H    0.136568
    74  H    0.113699
    75  H    0.135103
    76  H    0.126514
    77  H    0.139761
    78  H    0.128741
    79  H    0.160747
    80  H    0.106660
    81  H    0.103011
    82  H    0.121748
    83  H    0.108037
    84  H    0.100565
    85  H    0.123208
    86  H    0.117558
    87  H    0.139210
    88  H    0.122107
    89  H    0.155710
    90  H    0.166782
    91  H    0.118532
    92  H    0.127614
    93  H    0.082397
    94  H    0.154651
    95  H    0.115177
    96  H    0.117289
    97  H    0.103792
    98  H    0.060515
    99  H    0.107122
   100  H    0.099597
   101  H    0.105532
   102  H    0.066387
   103  H    0.069922
   104  H    0.103339
   105  H    0.102988
   106  H    0.101531
   107  H    0.045487
   108  H    0.101149
   109  H    0.066676
   110  H    0.091515
   111  H    0.079310
   112  H    0.094224
   113  H    0.036556
   114  H    0.109717
   115  H    0.101177
   116  H    0.110006
   117  H    0.058351
   118  H    0.084728
   119  H    0.090306
   120  H    0.112363
   121  H    0.095385
   122  H    0.061403
   123  H    0.088975
   124  H    0.115691
   125  H    0.089616
   126  H    0.099270
   127  H    0.108028
   128  H    0.090502
   129  H    0.084346
   130  H    0.131096
   131  H    0.138843
   132  H    0.111008
   133  O   -0.439726
   134  H    0.049742
 Sum of Mulliken charges =   0.00000

 Dipole moment (field-independent basis, Debye):
    X=              1.7760    Y=             -6.8977    Z=             -1.0503  Tot=              7.1997
 Quadrupole moment (field-independent basis, Debye-Ang):
   XX=           -375.5221   YY=           -441.6757   ZZ=           -390.8371
   XY=             13.8713   XZ=             27.1990   YZ=            -36.4428

 Normal termination of Gaussian 09 at Tue Oct  8 16:24:10 2019.
