 Gaussian 09, Revision D.01,
 Gaussian 09:  ES64L-G09RevD.01 24-Apr-2013

 ----------------------------------------------------------------------
 # td=(NStates=1) iop(3/107=0140000000,3/108=0140000000) iop(3/107=0140
 000000,3/108=0140000000) CAM-B3LYP/6-31G(d,p)
 ----------------------------------------------------------------------

 --
 TD
 --
 Symbolic Z-matrix:
 Charge =  0 Multiplicity = 1

                         Standard orientation:
 ---------------------------------------------------------------------
 Center     Atomic      Atomic             Coordinates (Angstroms)
 Number     Number       Type             X           Y           Z
 ---------------------------------------------------------------------
      1         12           0       -5.693824    1.235763    0.219030
      2          6           0       -4.980910   -2.114118   -0.346373
      3          6           0       -3.318506    1.166625    2.699028
      4          6           0       -6.288075    4.522645    0.597009
      5          6           0       -8.032790    1.065842   -2.295461
      6          7           0       -4.394816   -0.274377    1.036153
      7          6           0       -4.290610   -1.542653    0.647607
      8          6           0       -3.115811   -2.304470    1.419019
      9          6           0       -2.875093   -1.323803    2.544777
     10          6           0       -3.544279   -0.032900    2.098611
     11          6           0       -3.342691   -1.840855    3.881428
     12          6           0       -1.887019   -2.663996    0.619034
     13          6           0       -0.966063   -3.495711    1.434294
     14          6           0        0.277149   -3.882055    0.586449
     15          8           0        0.443172   -3.405461   -0.514886
     16          8           0        1.042771   -4.779665    1.284548
     17          7           0       -4.863623    2.591099    1.417907
     18          6           0       -3.995584    2.454427    2.437535
     19          6           0       -3.739604    3.738322    3.138846
     20          6           0       -4.513248    4.704854    2.502706
     21          6           0       -5.213501    3.955204    1.412346
     22          6           0       -2.783534    3.784097    4.377622
     23          6           0       -4.666151    6.076957    2.837893
     24          8           0       -4.106262    6.662425    3.800071
     25          7           0       -6.886480    2.608602   -0.723226
     26          6           0       -6.973686    3.951498   -0.369567
     27          6           0       -7.919869    4.554502   -1.311536
     28          6           0       -8.408667    3.611189   -2.209837
     29          6           0       -7.671240    2.370554   -1.800740
     30          6           0       -8.351057    5.934741   -1.263564
     31          6           0       -9.497951    3.719703   -3.135019
     32          6           0       -8.991021    3.848888   -4.527113
     33          7           0       -6.381124   -0.113221   -0.975101
     34          6           0       -7.364450   -0.098057   -1.935943
     35          6           0       -7.676312   -1.325326   -2.570166
     36          6           0       -6.721027   -2.213032   -1.938985
     37          6           0       -6.039468   -1.414451   -0.990883
     38          6           0       -8.467428   -1.641698   -3.800501
     39          6           0       -6.249670   -3.571738   -1.854428
     40          8           0       -6.536176   -4.564508   -2.477197
     41          6           0       -5.028500   -3.535490   -0.764774
     42          6           0       -5.339939   -4.613575    0.210650
     43          8           0       -5.949341   -4.478892    1.235079
     44          8           0       -4.991610   -5.803119   -0.346605
     45          6           0       -5.370467   -6.971259    0.581639
     46          6           0        2.392372   -4.968245    0.538096
     47          6           0        3.407543   -4.088273    1.002633
     48          6           0        4.083541   -3.212730    0.200599
     49          6           0        3.798798   -3.120680   -1.203887
     50          6           0        5.171404   -2.359172    0.692982
     51          6           0        6.633001   -2.696895   -0.021333
     52          6           0        7.745742   -1.828313    0.511763
     53          6           0        9.077752   -2.012510   -0.074904
     54          6           0        9.652899   -3.416963    0.045858
     55          6           0       10.008989   -0.902145    0.417337
     56          6           0       11.395756   -0.884234   -0.308150
     57          6           0       12.281383    0.276224    0.146900
     58          6           0       13.565114    0.417224   -0.618947
     59          6           0       14.630342   -0.669674   -0.235426
     60          6           0       14.228223    1.780621   -0.307346
     61          6           0       15.390139    2.199404   -1.024748
     62          6           0       15.969331    3.559526   -0.663910
     63          6           0       17.360784    3.864673   -1.190832
     64          6           0       17.118674    3.986860   -2.727002
     65          6           0       17.937883    5.209580   -0.723768
     66          1           0       -2.838429    1.056387    3.665947
     67          1           0       -6.806446    5.525466    1.096498
     68          1           0       -8.758096    1.119816   -3.073895
     69          1           0       -3.562833   -3.249450    2.063275
     70          1           0       -1.843621   -1.253148    2.422935
     71          1           0       -2.709186   -2.725310    4.188232
     72          1           0       -3.428476   -1.131643    4.591042
     73          1           0       -4.370468   -2.068638    3.586919
     74          1           0       -2.272117   -3.338898   -0.237354
     75          1           0       -1.423313   -1.746296    0.177148
     76          1           0       -0.408774   -2.909542    2.353428
     77          1           0       -1.502785   -4.441922    1.738317
     78          1           0       -1.649310    3.636563    4.222063
     79          1           0       -2.528463    5.015408    4.586390
     80          1           0       -3.314773    3.330341    5.276690
     81          1           0       -5.326184    6.612775    2.197165
     82          1           0      -10.303104    2.773727   -3.077728
     83          1           0      -10.381225    4.545681   -2.942652
     84          1           0       -9.769735    3.810602   -5.326212
     85          1           0       -8.382992    4.713939   -4.656425
     86          1           0       -8.382901    2.898892   -4.906000
     87          1           0       -8.147390   -0.959583   -4.636788
     88          1           0       -8.408572   -2.631147   -4.025382
     89          1           0       -9.595301   -1.409442   -3.675927
     90          1           0       -4.171909   -3.572674   -1.558660
     91          1           0        2.453153   -6.033518    0.684570
     92          1           0        2.369504   -4.944390   -0.584503
     93          1           0        3.530154   -3.857989    2.054093
     94          1           0        2.780172   -3.292223   -1.557593
     95          1           0        4.303079   -2.133732   -1.758613
     96          1           0        4.324840   -3.829943   -1.805279
     97          1           0        4.791153   -1.342699    0.474260
     98          1           0        5.297700   -2.388080    1.679537
     99          1           0        6.800232   -3.740033    0.103137
    100          1           0        6.720128   -2.298127   -1.131989
    101          1           0        7.270681   -0.672483    0.364957
    102          1           0        7.785884   -2.156703    1.638587
    103          1           0        8.964148   -1.783762   -1.093572
    104          1           0        8.740787   -4.009889   -0.042818
    105          1           0       10.512387   -3.483826   -0.571827
    106          1           0        9.863103   -3.568925    1.141362
    107          1           0        9.472068    0.033584    0.364639
    108          1           0       10.177631   -1.091896    1.538877
    109          1           0       11.988526   -1.720195   -0.118509
    110          1           0       11.275481   -0.576456   -1.435952
    111          1           0       11.766398    1.199827    0.027843
    112          1           0       12.374172    0.206257    1.070912
    113          1           0       13.311213    0.451786   -1.812989
    114          1           0       14.955655   -0.694120    0.684546
    115          1           0       14.081707   -1.482903   -0.644914
    116          1           0       15.594637   -0.387874   -0.818414
    117          1           0       13.637285    2.839800   -0.587338
    118          1           0       14.345700    1.752858    0.810098
    119          1           0       16.386069    1.528818   -0.991400
    120          1           0       15.199471    2.281999   -2.226215
    121          1           0       15.393911    4.488335   -0.904608
    122          1           0       16.032597    3.436455    0.414292
    123          1           0       18.003083    3.023616   -0.866544
    124          1           0       16.488092    4.822855   -3.089992
    125          1           0       18.185456    4.173740   -3.164051
    126          1           0       16.966820    2.974705   -3.250418
    127          1           0       18.005614    4.906423    0.353626
    128          1           0       18.769385    5.331498   -1.470762
    129          1           0       17.206402    6.043721   -0.719220
    130          1           0       -4.932172   -7.859542    0.293841
    131          1           0       -6.474621   -7.172039    0.723981
    132          1           0       -4.944451   -6.772707    1.534835
    133          8           0       -8.084906    6.801481   -0.390432
    134          1           0       -9.035395    6.169091   -2.207712
 ---------------------------------------------------------------------

 SCF Done:  E(RCAM-B3LYP) =  -3043.45416155     A.U. after   16 cycles

 Excitation energies and oscillator strengths:

 Excited State   1:      Singlet-A      1.9562 eV  633.80 nm  f=0.2075  <S**2>=0.000
     243 -> 246       -0.24643
     243 -> 248        0.10248
     244 -> 245        0.65313
 This state for optimization and/or second-order correction.
 Total Energy, E(TD-HF/TD-KS) =  -3043.38227232
 Copying the excited state density for this state as the 1-particle RhoCI density.

 The electronic state is 1-A.
 Alpha  occ. eigenvalues --  -46.80803 -19.22478 -19.22421 -19.17466 -19.17430
 Alpha  occ. eigenvalues --  -19.17390 -19.16981 -19.16303 -14.38366 -14.37905
 Alpha  occ. eigenvalues --  -14.37491 -14.36975 -10.34803 -10.34712 -10.31549
 Alpha  occ. eigenvalues --  -10.31012 -10.29284 -10.27750 -10.27311 -10.27221
 Alpha  occ. eigenvalues --  -10.27216 -10.26894 -10.26698 -10.26557 -10.26508
 Alpha  occ. eigenvalues --  -10.26279 -10.26073 -10.26020 -10.25920 -10.25422
 Alpha  occ. eigenvalues --  -10.25268 -10.24895 -10.24759 -10.24656 -10.24529
 Alpha  occ. eigenvalues --  -10.24238 -10.23845 -10.23604 -10.23568 -10.23524
 Alpha  occ. eigenvalues --  -10.23462 -10.23142 -10.23137 -10.23075 -10.22913
 Alpha  occ. eigenvalues --  -10.22780 -10.22772 -10.22709 -10.22603 -10.21979
 Alpha  occ. eigenvalues --  -10.21919 -10.21919 -10.21644 -10.21520 -10.21467
 Alpha  occ. eigenvalues --  -10.21251 -10.21234 -10.21200 -10.21112 -10.21077
 Alpha  occ. eigenvalues --  -10.20804 -10.20670 -10.20608 -10.20025 -10.19600
 Alpha  occ. eigenvalues --  -10.18068  -3.09707  -1.84617  -1.84198  -1.84136
 Alpha  occ. eigenvalues --   -1.12403  -1.11487  -1.07691  -1.04598  -1.04305
 Alpha  occ. eigenvalues --   -1.04133  -1.03824  -1.01581  -0.99920  -0.99754
 Alpha  occ. eigenvalues --   -0.98754  -0.88962  -0.87514  -0.86587  -0.86518
 Alpha  occ. eigenvalues --   -0.86417  -0.85745  -0.84901  -0.84150  -0.84061
 Alpha  occ. eigenvalues --   -0.83542  -0.82659  -0.81339  -0.80647  -0.79793
 Alpha  occ. eigenvalues --   -0.79508  -0.79225  -0.77612  -0.77106  -0.76974
 Alpha  occ. eigenvalues --   -0.75733  -0.75150  -0.73718  -0.72976  -0.72566
 Alpha  occ. eigenvalues --   -0.72248  -0.71795  -0.70562  -0.69978  -0.69709
 Alpha  occ. eigenvalues --   -0.69258  -0.68734  -0.67466  -0.66888  -0.66392
 Alpha  occ. eigenvalues --   -0.66206  -0.65089  -0.64376  -0.62199  -0.61946
 Alpha  occ. eigenvalues --   -0.61467  -0.60629  -0.60497  -0.58495  -0.58330
 Alpha  occ. eigenvalues --   -0.58005  -0.57883  -0.57746  -0.57707  -0.57222
 Alpha  occ. eigenvalues --   -0.56607  -0.56365  -0.55562  -0.55119  -0.54588
 Alpha  occ. eigenvalues --   -0.53720  -0.53109  -0.52703  -0.52320  -0.52157
 Alpha  occ. eigenvalues --   -0.51507  -0.51383  -0.51166  -0.50948  -0.50802
 Alpha  occ. eigenvalues --   -0.50337  -0.50317  -0.50062  -0.49825  -0.49642
 Alpha  occ. eigenvalues --   -0.49325  -0.48761  -0.48557  -0.48273  -0.48264
 Alpha  occ. eigenvalues --   -0.47940  -0.47427  -0.47384  -0.47333  -0.46675
 Alpha  occ. eigenvalues --   -0.46544  -0.46475  -0.46102  -0.45928  -0.45830
 Alpha  occ. eigenvalues --   -0.45691  -0.45433  -0.45134  -0.45113  -0.44955
 Alpha  occ. eigenvalues --   -0.44938  -0.44707  -0.44615  -0.44250  -0.44085
 Alpha  occ. eigenvalues --   -0.43719  -0.43416  -0.43178  -0.43026  -0.42825
 Alpha  occ. eigenvalues --   -0.42718  -0.42621  -0.42549  -0.42233  -0.42007
 Alpha  occ. eigenvalues --   -0.41767  -0.41627  -0.41396  -0.41168  -0.40836
 Alpha  occ. eigenvalues --   -0.40674  -0.40456  -0.40297  -0.40096  -0.40020
 Alpha  occ. eigenvalues --   -0.39823  -0.39739  -0.39684  -0.39395  -0.39258
 Alpha  occ. eigenvalues --   -0.39064  -0.38829  -0.38688  -0.38545  -0.38276
 Alpha  occ. eigenvalues --   -0.37766  -0.37628  -0.37536  -0.37485  -0.37194
 Alpha  occ. eigenvalues --   -0.36799  -0.36545  -0.36443  -0.36354  -0.35964
 Alpha  occ. eigenvalues --   -0.35185  -0.35071  -0.34749  -0.34695  -0.34522
 Alpha  occ. eigenvalues --   -0.34258  -0.33893  -0.33743  -0.33567  -0.33434
 Alpha  occ. eigenvalues --   -0.33302  -0.32590  -0.32096  -0.31905  -0.31281
 Alpha  occ. eigenvalues --   -0.30926  -0.30758  -0.30615  -0.30347  -0.30101
 Alpha  occ. eigenvalues --   -0.29223  -0.28631  -0.28360  -0.27793  -0.27696
 Alpha  occ. eigenvalues --   -0.27058  -0.26729  -0.22916  -0.21920
 Alpha virt. eigenvalues --   -0.09379  -0.06810  -0.01751  -0.01287   0.00722
 Alpha virt. eigenvalues --    0.01653   0.03423   0.03800   0.04198   0.04446
 Alpha virt. eigenvalues --    0.04873   0.05681   0.07589   0.08165   0.08936

 Mulliken charges:
               1
     1  Mg   0.837462
     2  C    0.048231
     3  C   -0.185223
     4  C   -0.194584
     5  C   -0.155097
     6  N   -0.624512
     7  C    0.320977
     8  C   -0.163872
     9  C   -0.131409
    10  C    0.325604
    11  C   -0.302879
    12  C   -0.158229
    13  C   -0.258288
    14  C    0.614004
    15  O   -0.457670
    16  O   -0.487757
    17  N   -0.661591
    18  C    0.281725
    19  C    0.044838
    20  C    0.011839
    21  C    0.249026
    22  C   -0.391477
    23  C    0.231446
    24  O   -0.441660
    25  N   -0.690741
    26  C    0.346719
    27  C   -0.017160
    28  C    0.082027
    29  C    0.268162
    30  C    0.236149
    31  C   -0.275996
    32  C   -0.306206
    33  N   -0.722058
    34  C    0.282125
    35  C    0.058538
    36  C    0.015167
    37  C    0.307999
    38  C   -0.374908
    39  C    0.328209
    40  O   -0.443230
    41  C   -0.319015
    42  C    0.641762
    43  O   -0.477137
    44  O   -0.459248
    45  C   -0.103434
    46  C   -0.030510
    47  C   -0.112034
    48  C    0.162426
    49  C   -0.405372
    50  C   -0.228134
    51  C   -0.179693
    52  C   -0.162559
    53  C   -0.043846
    54  C   -0.310596
    55  C   -0.163171
    56  C   -0.188568
    57  C   -0.152275
    58  C   -0.074214
    59  C   -0.307410
    60  C   -0.134499
    61  C   -0.158634
    62  C   -0.149549
    63  C   -0.072282
    64  C   -0.313344
    65  C   -0.291604
    66  H    0.087640
    67  H    0.146227
    68  H    0.088318
    69  H    0.091901
    70  H    0.102783
    71  H    0.110456
    72  H    0.115597
    73  H    0.124223
    74  H    0.109665
    75  H    0.123786
    76  H    0.116373
    77  H    0.132044
    78  H    0.128981
    79  H    0.126933
    80  H    0.134600
    81  H    0.086705
    82  H    0.095207
    83  H    0.112812
    84  H    0.109676
    85  H    0.131109
    86  H    0.093764
    87  H    0.133027
    88  H    0.158201
    89  H    0.115646
    90  H    0.163383
    91  H    0.120150
    92  H    0.126016
    93  H    0.078165
    94  H    0.156927
    95  H    0.082749
    96  H    0.133540
    97  H    0.108459
    98  H    0.104159
    99  H    0.113199
   100  H    0.082922
   101  H    0.064632
   102  H    0.064422
   103  H    0.086621
   104  H    0.100583
   105  H    0.121636
   106  H    0.093197
   107  H    0.091343
   108  H    0.072554
   109  H    0.102548
   110  H    0.076707
   111  H    0.091316
   112  H    0.093795
   113  H    0.057364
   114  H    0.116428
   115  H    0.109284
   116  H    0.094933
   117  H    0.058166
   118  H    0.079855
   119  H    0.055586
   120  H    0.070576
   121  H    0.080280
   122  H    0.075271
   123  H    0.087585
   124  H    0.111632
   125  H    0.070343
   126  H    0.099756
   127  H    0.100175
   128  H    0.105535
   129  H    0.101515
   130  H    0.131890
   131  H    0.136601
   132  H    0.135998
   133  O   -0.446017
   134  H    0.049783
 Sum of Mulliken charges =   0.00000

 Dipole moment (field-independent basis, Debye):
    X=              2.4007    Y=             -5.3737    Z=             -2.1350  Tot=              6.2609
 Quadrupole moment (field-independent basis, Debye-Ang):
   XX=           -371.7274   YY=           -449.5558   ZZ=           -393.1921
   XY=              9.1295   XZ=             33.0988   YZ=            -36.0606

 Normal termination of Gaussian 09 at Sat Oct  5 05:30:22 2019.
