 Gaussian 09, Revision D.01,
 Gaussian 09:  ES64L-G09RevD.01 24-Apr-2013

 ----------------------------------------------------------------------
 # td=(NStates=1) iop(3/107=0140000000,3/108=0140000000) iop(3/107=0140
 000000,3/108=0140000000) CAM-B3LYP/6-31G(d,p)
 ----------------------------------------------------------------------

 --
 TD
 --
 Symbolic Z-matrix:
 Charge =  0 Multiplicity = 1

                         Standard orientation:
 ---------------------------------------------------------------------
 Center     Atomic      Atomic             Coordinates (Angstroms)
 Number     Number       Type             X           Y           Z
 ---------------------------------------------------------------------
      1         12           0       -5.592846    1.231621    0.201186
      2          6           0       -5.002649   -2.147880   -0.352823
      3          6           0       -3.454097    1.100961    2.753019
      4          6           0       -6.100052    4.573207    0.609963
      5          6           0       -8.059521    1.259407   -2.282410
      6          7           0       -4.419462   -0.279529    1.079558
      7          6           0       -4.210408   -1.606177    0.626142
      8          6           0       -3.271612   -2.397974    1.442678
      9          6           0       -3.003520   -1.420350    2.618395
     10          6           0       -3.624282   -0.130311    2.143680
     11          6           0       -3.580038   -1.819582    3.954165
     12          6           0       -2.042625   -2.760043    0.493877
     13          6           0       -1.001007   -3.494002    1.396497
     14          6           0        0.298146   -3.834234    0.709286
     15          8           0        0.521417   -3.406969   -0.470612
     16          8           0        1.114052   -4.604012    1.336113
     17          7           0       -4.922171    2.598564    1.498604
     18          6           0       -4.051279    2.396654    2.473821
     19          6           0       -3.676443    3.592436    3.115612
     20          6           0       -4.440181    4.636313    2.481053
     21          6           0       -5.190580    3.974769    1.497997
     22          6           0       -2.671398    3.814584    4.304617
     23          6           0       -4.534402    6.054200    2.794531
     24          8           0       -3.852250    6.560070    3.736427
     25          7           0       -6.882673    2.712454   -0.741588
     26          6           0       -6.863659    3.983203   -0.328143
     27          6           0       -7.906554    4.639310   -1.234621
     28          6           0       -8.467806    3.661534   -2.016185
     29          6           0       -7.835037    2.435517   -1.707255
     30          6           0       -8.389691    5.989659   -1.123571
     31          6           0       -9.477995    3.780496   -3.094311
     32          6           0       -8.834839    3.822711   -4.481382
     33          7           0       -6.261367   -0.120135   -1.045298
     34          6           0       -7.324864    0.034101   -2.011976
     35          6           0       -7.621051   -1.278040   -2.578512
     36          6           0       -6.733456   -2.196660   -2.089715
     37          6           0       -6.022841   -1.393379   -1.092901
     38          6           0       -8.689720   -1.615428   -3.667768
     39          6           0       -6.187012   -3.523654   -2.086824
     40          8           0       -6.607612   -4.515868   -2.661453
     41          6           0       -5.144070   -3.602793   -1.018364
     42          6           0       -5.393362   -4.734149   -0.030776
     43          8           0       -5.702807   -4.476535    1.250934
     44          8           0       -5.018381   -5.869894   -0.392082
     45          6           0       -5.269543   -7.017215    0.482934
     46          6           0        2.378178   -4.916620    0.689727
     47          6           0        3.405752   -3.994978    1.114758
     48          6           0        4.038525   -3.225481    0.169820
     49          6           0        3.826980   -3.177700   -1.320844
     50          6           0        5.113248   -2.321646    0.719082
     51          6           0        6.459419   -2.733926    0.137355
     52          6           0        7.621205   -1.702017    0.512661
     53          6           0        9.001492   -1.979887   -0.084580
     54          6           0        9.559297   -3.396630    0.196005
     55          6           0        9.936333   -0.848364    0.389326
     56          6           0       11.279997   -0.876734   -0.217810
     57          6           0       12.163209    0.293491    0.098469
     58          6           0       13.570682    0.446789   -0.530861
     59          6           0       14.446206   -0.679244   -0.136373
     60          6           0       14.248295    1.744572   -0.154669
     61          6           0       15.502463    2.149695   -1.134233
     62          6           0       16.178760    3.477438   -0.645922
     63          6           0       17.453085    3.774484   -1.389489
     64          6           0       17.070820    3.803726   -2.874198
     65          6           0       18.018534    5.103516   -0.889535
     66          1           0       -2.806069    1.133230    3.724951
     67          1           0       -6.133402    5.721319    0.703777
     68          1           0       -8.976273    1.260474   -3.028489
     69          1           0       -3.690737   -3.130561    1.798273
     70          1           0       -1.908515   -1.013060    2.685050
     71          1           0       -2.880179   -2.669929    4.392351
     72          1           0       -3.583745   -0.904696    4.646729
     73          1           0       -4.700975   -2.212892    3.950047
     74          1           0       -2.339028   -3.413688   -0.407847
     75          1           0       -1.751481   -1.758265    0.016918
     76          1           0       -0.588967   -2.924315    2.110371
     77          1           0       -1.315997   -4.370880    1.767107
     78          1           0       -1.595991    3.532776    4.144760
     79          1           0       -2.403695    4.867495    4.369879
     80          1           0       -3.134518    3.330499    5.272455
     81          1           0       -4.991891    6.770002    2.061322
     82          1           0      -10.005903    2.839814   -3.103376
     83          1           0      -10.052809    4.728990   -3.004347
     84          1           0       -9.663500    4.192888   -5.168799
     85          1           0       -8.225158    4.763277   -4.625145
     86          1           0       -8.204065    2.899304   -4.853566
     87          1           0       -8.331140   -0.999066   -4.528354
     88          1           0       -8.722660   -2.686120   -3.921275
     89          1           0       -9.827300   -1.213002   -3.667286
     90          1           0       -4.211302   -3.775304   -1.399733
     91          1           0        2.482667   -6.038105    1.031955
     92          1           0        2.258429   -4.996397   -0.382388
     93          1           0        3.647246   -3.913494    2.130859
     94          1           0        2.640551   -3.268703   -1.512697
     95          1           0        4.169553   -2.169623   -1.932847
     96          1           0        4.341947   -3.906506   -2.166668
     97          1           0        4.832421   -1.280988    0.376212
     98          1           0        4.972155   -2.219958    1.872835
     99          1           0        6.790443   -3.722667    0.461693
    100          1           0        6.357591   -2.651679   -0.999833
    101          1           0        7.365106   -0.689391    0.259505
    102          1           0        7.651947   -1.724157    1.648415
    103          1           0        8.714120   -2.008481   -1.103081
    104          1           0        8.779738   -4.264624    0.266159
    105          1           0       10.362641   -3.876617   -0.586197
    106          1           0        9.828929   -3.352470    1.291540
    107          1           0        9.471881    0.231641    0.205982
    108          1           0        9.999664   -1.019131    1.427069
    109          1           0       11.967117   -1.794480   -0.138068
    110          1           0       11.184243   -0.705970   -1.259821
    111          1           0       11.745171    1.178841    0.179435
    112          1           0       12.456870    0.247228    1.172910
    113          1           0       13.421682    0.517470   -1.722507
    114          1           0       14.581081   -0.646752    0.885178
    115          1           0       13.991913   -1.714057   -0.549632
    116          1           0       15.505555   -0.944041   -0.637413
    117          1           0       13.517191    2.625442   -0.264107
    118          1           0       14.361443    1.700697    0.814339
    119          1           0       16.427842    1.313459   -0.902539
    120          1           0       15.133313    2.225254   -2.071803
    121          1           0       15.553389    4.406225   -0.953580
    122          1           0       16.315099    3.513317    0.498578
    123          1           0       18.273826    3.150029   -0.970980
    124          1           0       16.602076    4.844400   -3.053952
    125          1           0       18.052681    4.213250   -3.685244
    126          1           0       16.385621    2.975453   -3.301187
    127          1           0       18.197656    5.229809    0.150722
    128          1           0       18.903423    5.609221   -1.509274
    129          1           0       17.357649    6.065051   -1.063690
    130          1           0       -4.957319   -7.751939   -0.138911
    131          1           0       -6.339663   -7.040945    0.802832
    132          1           0       -4.632914   -7.010713    1.301804
    133          8           0       -7.923510    6.819881   -0.315762
    134          1           0       -9.330288    6.178420   -1.725588
 ---------------------------------------------------------------------

 SCF Done:  E(RCAM-B3LYP) =  -3043.42693674     A.U. after   15 cycles

 Excitation energies and oscillator strengths:

 Excited State   1:      Singlet-A      1.9939 eV  621.83 nm  f=0.2198  <S**2>=0.000
     243 -> 246        0.22923
     244 -> 245        0.66084
 This state for optimization and/or second-order correction.
 Total Energy, E(TD-HF/TD-KS) =  -3043.35366390
 Copying the excited state density for this state as the 1-particle RhoCI density.

 The electronic state is 1-A.
 Alpha  occ. eigenvalues --  -46.81134 -19.25202 -19.23300 -19.16658 -19.16551
 Alpha  occ. eigenvalues --  -19.16466 -19.15300 -19.15010 -14.38490 -14.37365
 Alpha  occ. eigenvalues --  -14.36671 -14.36419 -10.35729 -10.34306 -10.31146
 Alpha  occ. eigenvalues --  -10.30376 -10.30007 -10.28013 -10.27945 -10.27277
 Alpha  occ. eigenvalues --  -10.26822 -10.26789 -10.26371 -10.26369 -10.26123
 Alpha  occ. eigenvalues --  -10.26019 -10.25896 -10.25685 -10.25253 -10.24943
 Alpha  occ. eigenvalues --  -10.24941 -10.24916 -10.24678 -10.24445 -10.24351
 Alpha  occ. eigenvalues --  -10.24243 -10.24028 -10.24008 -10.24005 -10.23964
 Alpha  occ. eigenvalues --  -10.23664 -10.23602 -10.23502 -10.23173 -10.23121
 Alpha  occ. eigenvalues --  -10.22634 -10.22607 -10.22596 -10.22581 -10.22515
 Alpha  occ. eigenvalues --  -10.22464 -10.22364 -10.22221 -10.22127 -10.22032
 Alpha  occ. eigenvalues --  -10.21971 -10.21708 -10.21555 -10.21527 -10.21522
 Alpha  occ. eigenvalues --  -10.21209 -10.21070 -10.21062 -10.20177 -10.20173
 Alpha  occ. eigenvalues --  -10.19168  -3.09822  -1.84756  -1.84279  -1.84257
 Alpha  occ. eigenvalues --   -1.17059  -1.15056  -1.06868  -1.04605  -1.03596
 Alpha  occ. eigenvalues --   -1.01222  -1.00952  -1.00333  -0.99804  -0.99131
 Alpha  occ. eigenvalues --   -0.98482  -0.87920  -0.86724  -0.86651  -0.86147
 Alpha  occ. eigenvalues --   -0.85781  -0.84751  -0.84545  -0.83907  -0.83721
 Alpha  occ. eigenvalues --   -0.83226  -0.82555  -0.82035  -0.81687  -0.80414
 Alpha  occ. eigenvalues --   -0.79774  -0.78609  -0.78407  -0.77453  -0.75871
 Alpha  occ. eigenvalues --   -0.74903  -0.74686  -0.74232  -0.73881  -0.71953
 Alpha  occ. eigenvalues --   -0.70605  -0.70409  -0.70293  -0.69704  -0.69536
 Alpha  occ. eigenvalues --   -0.69302  -0.69098  -0.67342  -0.66715  -0.66433
 Alpha  occ. eigenvalues --   -0.66058  -0.64936  -0.64836  -0.63363  -0.62673
 Alpha  occ. eigenvalues --   -0.62049  -0.61348  -0.61204  -0.59611  -0.59265
 Alpha  occ. eigenvalues --   -0.59062  -0.58473  -0.57665  -0.57568  -0.56878
 Alpha  occ. eigenvalues --   -0.56578  -0.56219  -0.55845  -0.55441  -0.55087
 Alpha  occ. eigenvalues --   -0.54513  -0.53931  -0.53652  -0.53156  -0.52514
 Alpha  occ. eigenvalues --   -0.51806  -0.51549  -0.51438  -0.51232  -0.51215
 Alpha  occ. eigenvalues --   -0.50736  -0.50517  -0.49869  -0.49550  -0.49306
 Alpha  occ. eigenvalues --   -0.49037  -0.48387  -0.47932  -0.47718  -0.47600
 Alpha  occ. eigenvalues --   -0.47384  -0.47199  -0.46929  -0.46842  -0.46695
 Alpha  occ. eigenvalues --   -0.46553  -0.46487  -0.46073  -0.45747  -0.45653
 Alpha  occ. eigenvalues --   -0.45380  -0.45237  -0.44858  -0.44733  -0.44620
 Alpha  occ. eigenvalues --   -0.44399  -0.44232  -0.44183  -0.43833  -0.43588
 Alpha  occ. eigenvalues --   -0.43258  -0.42903  -0.42818  -0.42491  -0.42373
 Alpha  occ. eigenvalues --   -0.42093  -0.42057  -0.41759  -0.41630  -0.41479
 Alpha  occ. eigenvalues --   -0.41440  -0.41083  -0.40983  -0.40740  -0.40643
 Alpha  occ. eigenvalues --   -0.40440  -0.40334  -0.40099  -0.39911  -0.39774
 Alpha  occ. eigenvalues --   -0.39706  -0.39590  -0.39131  -0.39063  -0.38987
 Alpha  occ. eigenvalues --   -0.38653  -0.38573  -0.38495  -0.38004  -0.37903
 Alpha  occ. eigenvalues --   -0.37629  -0.37435  -0.37220  -0.36891  -0.36774
 Alpha  occ. eigenvalues --   -0.36510  -0.36449  -0.36114  -0.35970  -0.35718
 Alpha  occ. eigenvalues --   -0.35519  -0.35448  -0.34872  -0.34718  -0.34342
 Alpha  occ. eigenvalues --   -0.33924  -0.33696  -0.33608  -0.33484  -0.32963
 Alpha  occ. eigenvalues --   -0.32424  -0.32085  -0.32066  -0.31772  -0.31714
 Alpha  occ. eigenvalues --   -0.30976  -0.30796  -0.30037  -0.29186  -0.28676
 Alpha  occ. eigenvalues --   -0.28641  -0.28053  -0.27961  -0.27534  -0.27406
 Alpha  occ. eigenvalues --   -0.27348  -0.27162  -0.22592  -0.21890
 Alpha virt. eigenvalues --   -0.09241  -0.05990  -0.01503  -0.01029   0.00812
 Alpha virt. eigenvalues --    0.01800   0.01952   0.03875   0.04322   0.04939
 Alpha virt. eigenvalues --    0.05124   0.05690   0.07808   0.08624   0.09050

 Mulliken charges:
               1
     1  Mg   0.823365
     2  C    0.063348
     3  C   -0.215756
     4  C   -0.175117
     5  C   -0.178106
     6  N   -0.627228
     7  C    0.243890
     8  C   -0.075213
     9  C   -0.150226
    10  C    0.370707
    11  C   -0.303351
    12  C   -0.179599
    13  C   -0.229949
    14  C    0.552025
    15  O   -0.519187
    16  O   -0.425550
    17  N   -0.725536
    18  C    0.346315
    19  C    0.016081
    20  C    0.006616
    21  C    0.299828
    22  C   -0.375553
    23  C    0.217237
    24  O   -0.433527
    25  N   -0.727722
    26  C    0.348136
    27  C   -0.044230
    28  C    0.050701
    29  C    0.354451
    30  C    0.232384
    31  C   -0.246488
    32  C   -0.313535
    33  N   -0.701542
    34  C    0.233108
    35  C   -0.021187
    36  C    0.103894
    37  C    0.267987
    38  C   -0.381537
    39  C    0.346692
    40  O   -0.467754
    41  C   -0.295458
    42  C    0.590039
    43  O   -0.544762
    44  O   -0.379691
    45  C   -0.085996
    46  C   -0.014273
    47  C   -0.106636
    48  C    0.165837
    49  C   -0.393901
    50  C   -0.230023
    51  C   -0.172843
    52  C   -0.182565
    53  C   -0.048375
    54  C   -0.312315
    55  C   -0.162351
    56  C   -0.163516
    57  C   -0.168514
    58  C   -0.058025
    59  C   -0.286457
    60  C   -0.174968
    61  C   -0.156557
    62  C   -0.154583
    63  C   -0.024435
    64  C   -0.298223
    65  C   -0.324499
    66  H    0.076864
    67  H    0.136948
    68  H    0.098510
    69  H    0.110796
    70  H    0.105052
    71  H    0.098616
    72  H    0.112087
    73  H    0.127768
    74  H    0.112910
    75  H    0.123065
    76  H    0.143771
    77  H    0.136797
    78  H    0.111826
    79  H    0.160731
    80  H    0.118995
    81  H    0.101135
    82  H    0.117254
    83  H    0.113766
    84  H    0.106816
    85  H    0.112692
    86  H    0.112045
    87  H    0.127824
    88  H    0.150110
    89  H    0.106061
    90  H    0.163876
    91  H    0.096932
    92  H    0.140239
    93  H    0.091778
    94  H    0.154547
    95  H    0.094879
    96  H    0.105653
    97  H    0.099062
    98  H    0.083588
    99  H    0.105876
   100  H    0.093678
   101  H    0.094957
   102  H    0.071633
   103  H    0.089432
   104  H    0.089025
   105  H    0.094948
   106  H    0.096977
   107  H    0.077732
   108  H    0.100689
   109  H    0.092765
   110  H    0.098941
   111  H    0.088359
   112  H    0.062107
   113  H    0.047445
   114  H    0.111338
   115  H    0.077707
   116  H    0.085923
   117  H    0.071714
   118  H    0.094675
   119  H    0.068452
   120  H    0.109296
   121  H    0.077197
   122  H    0.081415
   123  H    0.097105
   124  H    0.108152
   125  H    0.049528
   126  H    0.114194
   127  H    0.113708
   128  H    0.083563
   129  H    0.072488
   130  H    0.139638
   131  H    0.152126
   132  H    0.145457
   133  O   -0.447040
   134  H    0.060027
 Sum of Mulliken charges =   0.00000

 Dipole moment (field-independent basis, Debye):
    X=              1.9544    Y=             -6.0454    Z=             -1.3042  Tot=              6.4859
 Quadrupole moment (field-independent basis, Debye-Ang):
   XX=           -396.0115   YY=           -426.3394   ZZ=           -396.9710
   XY=             13.6539   XZ=             32.4096   YZ=            -37.3640

 Normal termination of Gaussian 09 at Fri Oct  4 12:46:48 2019.
