 Gaussian 09, Revision D.01,
 Gaussian 09:  ES64L-G09RevD.01 24-Apr-2013

 ----------------------------------------------------------------------
 # td=(NStates=1) iop(3/107=0140000000,3/108=0140000000) iop(3/107=0140
 000000,3/108=0140000000) CAM-B3LYP/6-31G(d,p)
 ----------------------------------------------------------------------

 --
 TD
 --
 Symbolic Z-matrix:
 Charge =  0 Multiplicity = 1

                         Standard orientation:
 ---------------------------------------------------------------------
 Center     Atomic      Atomic             Coordinates (Angstroms)
 Number     Number       Type             X           Y           Z
 ---------------------------------------------------------------------
      1         12           0       -5.563010    1.222693    0.157542
      2          6           0       -5.006336   -2.086931   -0.399726
      3          6           0       -3.357393    1.190622    2.707740
      4          6           0       -6.131408    4.653962    0.636308
      5          6           0       -8.030213    1.187986   -2.295412
      6          7           0       -4.392032   -0.260210    1.000334
      7          6           0       -4.321947   -1.540758    0.671017
      8          6           0       -3.227673   -2.344596    1.552507
      9          6           0       -2.885323   -1.307481    2.580852
     10          6           0       -3.611028   -0.052615    2.135405
     11          6           0       -3.419075   -1.683321    3.996479
     12          6           0       -2.040633   -2.660607    0.679735
     13          6           0       -1.141928   -3.646181    1.447890
     14          6           0        0.205126   -3.966730    0.640790
     15          8           0        0.403881   -3.668951   -0.550443
     16          8           0        0.972778   -4.779640    1.447836
     17          7           0       -4.909133    2.604347    1.477635
     18          6           0       -4.048032    2.405639    2.492192
     19          6           0       -3.777647    3.613680    3.143787
     20          6           0       -4.563352    4.563102    2.631232
     21          6           0       -5.192094    3.939560    1.460413
     22          6           0       -2.957597    3.795309    4.442400
     23          6           0       -4.547332    5.990350    3.015664
     24          8           0       -3.965208    6.582416    3.901122
     25          7           0       -6.916110    2.609215   -0.663948
     26          6           0       -6.850092    3.990457   -0.406367
     27          6           0       -7.985612    4.651445   -1.216913
     28          6           0       -8.382887    3.660248   -2.116109
     29          6           0       -7.774568    2.428691   -1.713776
     30          6           0       -8.364017    6.067923   -1.281356
     31          6           0       -9.385428    3.734938   -3.172159
     32          6           0       -8.700337    3.855474   -4.535968
     33          7           0       -6.427091   -0.069446   -1.097028
     34          6           0       -7.413226    0.014240   -2.067169
     35          6           0       -7.467977   -1.277429   -2.839885
     36          6           0       -6.668460   -2.057888   -2.035448
     37          6           0       -5.983052   -1.390396   -1.081827
     38          6           0       -8.565369   -1.555249   -3.874266
     39          6           0       -6.192232   -3.504333   -2.009577
     40          8           0       -6.425492   -4.491739   -2.704965
     41          6           0       -4.969093   -3.468216   -0.981071
     42          6           0       -5.271673   -4.666017    0.084117
     43          8           0       -5.783856   -4.471705    1.190319
     44          8           0       -4.948893   -5.846034   -0.323337
     45          6           0       -5.288743   -7.088176    0.420156
     46          6           0        2.328130   -5.136453    0.931472
     47          6           0        3.354730   -4.078248    1.162052
     48          6           0        4.090830   -3.290114    0.268279
     49          6           0        3.739654   -3.208129   -1.201102
     50          6           0        5.229323   -2.400692    0.686466
     51          6           0        6.524984   -2.674548    0.022766
     52          6           0        7.698102   -1.742616    0.547564
     53          6           0        9.127067   -2.009838   -0.069081
     54          6           0        9.475028   -3.444484   -0.042361
     55          6           0       10.019000   -0.965527    0.503358
     56          6           0       11.219464   -0.750984   -0.415816
     57          6           0       12.102110    0.257594    0.150733
     58          6           0       13.435290    0.529927   -0.576127
     59          6           0       14.293029   -0.674380   -0.332838
     60          6           0       14.169275    1.774724   -0.191237
     61          6           0       15.392639    2.232551   -0.971716
     62          6           0       16.027234    3.532177   -0.659656
     63          6           0       17.411299    3.892112   -1.363628
     64          6           0       17.306905    3.985041   -2.893263
     65          6           0       18.082294    5.139171   -0.729965
     66          1           0       -2.721924    1.078571    3.812680
     67          1           0       -6.228766    5.680496    0.567115
     68          1           0       -8.779908    1.221264   -3.226218
     69          1           0       -3.658232   -3.320398    1.985332
     70          1           0       -1.752510   -1.013113    2.705624
     71          1           0       -3.112207   -2.594974    4.437318
     72          1           0       -3.076926   -0.863810    4.662846
     73          1           0       -4.577544   -1.818197    3.925142
     74          1           0       -2.479888   -3.188762   -0.147271
     75          1           0       -1.601178   -1.633066    0.445901
     76          1           0       -0.788957   -3.372433    2.529142
     77          1           0       -1.636154   -4.571538    1.423835
     78          1           0       -1.729830    3.606438    4.457745
     79          1           0       -3.152988    4.881741    4.748119
     80          1           0       -3.293447    3.204153    5.372201
     81          1           0       -5.220216    6.591162    2.293526
     82          1           0      -10.132416    2.930642   -3.123766
     83          1           0       -9.899809    4.714465   -3.123647
     84          1           0       -9.427609    4.368989   -5.359564
     85          1           0       -7.956326    4.608346   -4.539830
     86          1           0       -8.333753    2.894876   -4.945781
     87          1           0       -8.487488   -1.014534   -4.867418
     88          1           0       -8.534145   -2.676880   -4.330896
     89          1           0       -9.611168   -1.592826   -3.391303
     90          1           0       -4.089913   -3.942998   -1.490843
     91          1           0        2.505674   -6.165422    1.363789
     92          1           0        2.167958   -5.233452   -0.185212
     93          1           0        3.737444   -3.927699    2.125625
     94          1           0        2.820863   -3.579513   -1.369889
     95          1           0        3.812799   -2.177175   -1.527979
     96          1           0        4.368444   -3.939229   -1.747862
     97          1           0        5.002650   -1.420422    0.466510
     98          1           0        5.452730   -2.350561    1.721002
     99          1           0        6.717125   -3.726728   -0.078816
    100          1           0        6.445195   -2.286616   -1.065990
    101          1           0        7.452507   -0.778554    0.291546
    102          1           0        7.889306   -2.040442    1.457601
    103          1           0        9.199743   -1.759728   -1.255903
    104          1           0        8.802496   -3.943144   -0.690565
    105          1           0       10.506321   -3.649214   -0.301102
    106          1           0        9.539553   -3.987675    1.049691
    107          1           0        9.442626    0.111662    0.452335
    108          1           0       10.201749   -0.939376    1.484912
    109          1           0       12.022421   -1.708425   -0.516938
    110          1           0       10.906426   -0.492075   -1.508997
    111          1           0       11.671026    1.276131    0.293136
    112          1           0       12.331754   -0.076239    1.267658
    113          1           0       13.237891    0.757842   -1.707867
    114          1           0       14.673801   -0.843951    0.718700
    115          1           0       13.885193   -1.620606   -0.780239
    116          1           0       15.332922   -0.483262   -1.104863
    117          1           0       13.324076    2.643713   -0.184795
    118          1           0       14.178763    1.721290    0.712386
    119          1           0       16.006972    1.407371   -0.726211
    120          1           0       15.206381    2.104552   -2.160957
    121          1           0       15.298621    4.387293   -0.699695
    122          1           0       16.290833    3.584355    0.354098
    123          1           0       18.043718    3.034865   -1.131004
    124          1           0       16.563325    4.728864   -3.180263
    125          1           0       18.253434    4.437109   -3.205933
    126          1           0       17.280388    3.015316   -3.529365
    127          1           0       18.343454    4.969356    0.401542
    128          1           0       19.105644    5.394699   -1.084777
    129          1           0       17.473294    6.055841   -0.876462
    130          1           0       -4.875140   -7.861393   -0.154679
    131          1           0       -6.446026   -7.211610    0.468589
    132          1           0       -4.774408   -7.047978    1.303745
    133          8           0       -7.901002    6.906303   -0.470130
    134          1           0       -8.926035    6.253835   -2.034503
 ---------------------------------------------------------------------

 SCF Done:  E(RCAM-B3LYP) =  -3043.48520294     A.U. after   16 cycles

 Excitation energies and oscillator strengths:

 Excited State   1:      Singlet-A      2.0098 eV  616.89 nm  f=0.1925  <S**2>=0.000
     243 -> 246        0.26935
     244 -> 245        0.64687
 This state for optimization and/or second-order correction.
 Total Energy, E(TD-HF/TD-KS) =  -3043.41134294
 Copying the excited state density for this state as the 1-particle RhoCI density.

 The electronic state is 1-A.
 Alpha  occ. eigenvalues --  -46.80978 -19.23239 -19.22181 -19.17847 -19.17642
 Alpha  occ. eigenvalues --  -19.17520 -19.17057 -19.15837 -14.39425 -14.37226
 Alpha  occ. eigenvalues --  -14.37072 -14.36212 -10.35486 -10.35080 -10.32124
 Alpha  occ. eigenvalues --  -10.30625 -10.29479 -10.28608 -10.28590 -10.27735
 Alpha  occ. eigenvalues --  -10.27567 -10.26900 -10.26886 -10.26103 -10.25974
 Alpha  occ. eigenvalues --  -10.25951 -10.25874 -10.25831 -10.25418 -10.25186
 Alpha  occ. eigenvalues --  -10.24554 -10.24495 -10.24389 -10.24372 -10.24076
 Alpha  occ. eigenvalues --  -10.24063 -10.24056 -10.23876 -10.23827 -10.23585
 Alpha  occ. eigenvalues --  -10.23257 -10.23162 -10.23086 -10.22894 -10.22789
 Alpha  occ. eigenvalues --  -10.22743 -10.22580 -10.22397 -10.22370 -10.22366
 Alpha  occ. eigenvalues --  -10.22356 -10.22216 -10.21741 -10.21480 -10.21395
 Alpha  occ. eigenvalues --  -10.21245 -10.21241 -10.21150 -10.21148 -10.20794
 Alpha  occ. eigenvalues --  -10.20455 -10.20359 -10.20257 -10.19760 -10.19723
 Alpha  occ. eigenvalues --  -10.19271  -3.09691  -1.84622  -1.84177  -1.84094
 Alpha  occ. eigenvalues --   -1.14356  -1.10852  -1.07059  -1.06570  -1.04741
 Alpha  occ. eigenvalues --   -1.03402  -1.03048  -1.01329  -1.00574  -0.99520
 Alpha  occ. eigenvalues --   -0.97988  -0.88947  -0.86920  -0.86352  -0.86090
 Alpha  occ. eigenvalues --   -0.85880  -0.84867  -0.84182  -0.83567  -0.83297
 Alpha  occ. eigenvalues --   -0.83027  -0.82266  -0.81286  -0.80701  -0.79700
 Alpha  occ. eigenvalues --   -0.79182  -0.78496  -0.78279  -0.77146  -0.76574
 Alpha  occ. eigenvalues --   -0.75838  -0.73878  -0.73740  -0.73269  -0.72299
 Alpha  occ. eigenvalues --   -0.71500  -0.71350  -0.70421  -0.70297  -0.70176
 Alpha  occ. eigenvalues --   -0.69294  -0.68730  -0.67648  -0.66916  -0.66416
 Alpha  occ. eigenvalues --   -0.65694  -0.64884  -0.63816  -0.63009  -0.61690
 Alpha  occ. eigenvalues --   -0.61070  -0.60826  -0.60518  -0.59350  -0.59226
 Alpha  occ. eigenvalues --   -0.58735  -0.58597  -0.57994  -0.57372  -0.57021
 Alpha  occ. eigenvalues --   -0.56021  -0.55739  -0.55528  -0.54603  -0.54440
 Alpha  occ. eigenvalues --   -0.53836  -0.53237  -0.52672  -0.52477  -0.52202
 Alpha  occ. eigenvalues --   -0.51815  -0.51734  -0.51340  -0.50724  -0.50559
 Alpha  occ. eigenvalues --   -0.50146  -0.49885  -0.49674  -0.49055  -0.48957
 Alpha  occ. eigenvalues --   -0.48745  -0.48501  -0.48319  -0.48011  -0.47853
 Alpha  occ. eigenvalues --   -0.47643  -0.47474  -0.47228  -0.47088  -0.46862
 Alpha  occ. eigenvalues --   -0.46654  -0.46583  -0.46432  -0.46023  -0.45853
 Alpha  occ. eigenvalues --   -0.45758  -0.45431  -0.45206  -0.45109  -0.44557
 Alpha  occ. eigenvalues --   -0.44426  -0.44173  -0.44030  -0.43760  -0.43544
 Alpha  occ. eigenvalues --   -0.43461  -0.43164  -0.43117  -0.42783  -0.42551
 Alpha  occ. eigenvalues --   -0.42227  -0.42183  -0.41967  -0.41914  -0.41816
 Alpha  occ. eigenvalues --   -0.41671  -0.41524  -0.41144  -0.41074  -0.40789
 Alpha  occ. eigenvalues --   -0.40600  -0.40537  -0.40357  -0.40123  -0.40025
 Alpha  occ. eigenvalues --   -0.40004  -0.39804  -0.39680  -0.39464  -0.39375
 Alpha  occ. eigenvalues --   -0.39168  -0.38937  -0.38670  -0.38607  -0.38265
 Alpha  occ. eigenvalues --   -0.37984  -0.37782  -0.37651  -0.37370  -0.37011
 Alpha  occ. eigenvalues --   -0.36888  -0.36506  -0.36241  -0.36191  -0.36080
 Alpha  occ. eigenvalues --   -0.35306  -0.35088  -0.34746  -0.34620  -0.34312
 Alpha  occ. eigenvalues --   -0.34230  -0.33812  -0.33618  -0.33296  -0.33237
 Alpha  occ. eigenvalues --   -0.32995  -0.32574  -0.32253  -0.31943  -0.31661
 Alpha  occ. eigenvalues --   -0.31628  -0.30419  -0.30335  -0.30227  -0.29319
 Alpha  occ. eigenvalues --   -0.28991  -0.28429  -0.28360  -0.27842  -0.27477
 Alpha  occ. eigenvalues --   -0.27326  -0.26806  -0.23111  -0.21543
 Alpha virt. eigenvalues --   -0.08582  -0.06665  -0.01521  -0.01134   0.00262
 Alpha virt. eigenvalues --    0.02345   0.03028   0.03292   0.04169   0.04611
 Alpha virt. eigenvalues --    0.04822   0.05748   0.07479   0.08016   0.08851

 Mulliken charges:
               1
     1  Mg   0.823911
     2  C    0.095907
     3  C   -0.188794
     4  C   -0.121505
     5  C   -0.198180
     6  N   -0.632279
     7  C    0.314543
     8  C   -0.145181
     9  C   -0.154311
    10  C    0.346610
    11  C   -0.304624
    12  C   -0.145313
    13  C   -0.258776
    14  C    0.589802
    15  O   -0.468223
    16  O   -0.473946
    17  N   -0.698540
    18  C    0.319275
    19  C    0.056476
    20  C   -0.029706
    21  C    0.276696
    22  C   -0.401933
    23  C    0.259957
    24  O   -0.410486
    25  N   -0.664539
    26  C    0.235220
    27  C   -0.060421
    28  C    0.053570
    29  C    0.348175
    30  C    0.285067
    31  C   -0.266299
    32  C   -0.313684
    33  N   -0.753356
    34  C    0.292299
    35  C    0.033958
    36  C   -0.014093
    37  C    0.342310
    38  C   -0.391952
    39  C    0.385152
    40  O   -0.454481
    41  C   -0.345189
    42  C    0.572943
    43  O   -0.492998
    44  O   -0.426198
    45  C   -0.083218
    46  C   -0.014648
    47  C   -0.122092
    48  C    0.113574
    49  C   -0.368612
    50  C   -0.217491
    51  C   -0.206179
    52  C   -0.155244
    53  C   -0.055940
    54  C   -0.299988
    55  C   -0.152523
    56  C   -0.146655
    57  C   -0.167761
    58  C   -0.050996
    59  C   -0.292792
    60  C   -0.139994
    61  C   -0.163373
    62  C   -0.167384
    63  C   -0.050157
    64  C   -0.313332
    65  C   -0.322000
    66  H    0.078410
    67  H    0.133434
    68  H    0.085460
    69  H    0.122634
    70  H    0.106362
    71  H    0.117773
    72  H    0.101869
    73  H    0.114658
    74  H    0.113855
    75  H    0.112381
    76  H    0.125762
    77  H    0.144249
    78  H    0.092351
    79  H    0.158403
    80  H    0.113471
    81  H    0.063184
    82  H    0.123124
    83  H    0.108731
    84  H    0.082316
    85  H    0.127652
    86  H    0.116485
    87  H    0.129109
    88  H    0.125969
    89  H    0.139158
    90  H    0.161545
    91  H    0.123086
    92  H    0.123515
    93  H    0.074189
    94  H    0.147808
    95  H    0.114222
    96  H    0.114439
    97  H    0.112401
    98  H    0.096950
    99  H    0.100976
   100  H    0.079376
   101  H    0.101005
   102  H    0.106428
   103  H    0.055110
   104  H    0.119873
   105  H    0.106801
   106  H    0.061841
   107  H    0.064618
   108  H    0.103294
   109  H    0.059966
   110  H    0.090441
   111  H    0.080610
   112  H    0.065435
   113  H    0.072157
   114  H    0.106511
   115  H    0.107848
   116  H    0.047874
   117  H    0.039124
   118  H    0.092906
   119  H    0.104230
   120  H    0.069108
   121  H    0.079527
   122  H    0.095273
   123  H    0.089392
   124  H    0.104830
   125  H    0.098791
   126  H    0.097662
   127  H    0.089157
   128  H    0.103117
   129  H    0.105835
   130  H    0.143282
   131  H    0.141311
   132  H    0.145297
   133  O   -0.449603
   134  H    0.075588
 Sum of Mulliken charges =   0.00000

 Dipole moment (field-independent basis, Debye):
    X=              2.4953    Y=             -6.1633    Z=             -1.6265  Tot=              6.8454
 Quadrupole moment (field-independent basis, Debye-Ang):
   XX=           -363.7380   YY=           -426.6419   ZZ=           -396.6669
   XY=             17.7662   XZ=             35.9457   YZ=            -38.5126

 Normal termination of Gaussian 09 at Sat Oct  5 03:53:39 2019.
