 Gaussian 09, Revision D.01,
 Gaussian 09:  ES64L-G09RevD.01 24-Apr-2013

 ----------------------------------------------------------------------
 # td=(NStates=1) iop(3/107=0140000000,3/108=0140000000) iop(3/107=0140
 000000,3/108=0140000000) CAM-B3LYP/6-31G(d,p)
 ----------------------------------------------------------------------

 --
 TD
 --
 Symbolic Z-matrix:
 Charge =  0 Multiplicity = 1

                         Standard orientation:
 ---------------------------------------------------------------------
 Center     Atomic      Atomic             Coordinates (Angstroms)
 Number     Number       Type             X           Y           Z
 ---------------------------------------------------------------------
      1         12           0       -5.664210    1.196821    0.229602
      2          6           0       -5.056434   -2.150671   -0.377538
      3          6           0       -3.187593    1.151761    2.685453
      4          6           0       -6.301788    4.544417    0.755836
      5          6           0       -7.923660    1.204777   -2.453400
      6          7           0       -4.398346   -0.222787    1.007460
      7          6           0       -4.286195   -1.585952    0.573319
      8          6           0       -3.206611   -2.280354    1.444781
      9          6           0       -2.805028   -1.335377    2.603996
     10          6           0       -3.541862   -0.044847    2.104368
     11          6           0       -3.327993   -1.703229    3.973417
     12          6           0       -1.980771   -2.714538    0.554906
     13          6           0       -0.986604   -3.728699    1.450390
     14          6           0        0.318895   -3.899750    0.674303
     15          8           0        0.609976   -3.539618   -0.437448
     16          8           0        1.087661   -4.801062    1.319905
     17          7           0       -4.966687    2.610036    1.419638
     18          6           0       -4.010433    2.440604    2.461873
     19          6           0       -3.679597    3.611770    3.148511
     20          6           0       -4.422444    4.608030    2.541750
     21          6           0       -5.314888    4.019099    1.480882
     22          6           0       -2.801149    3.833495    4.337992
     23          6           0       -4.593283    5.977239    2.863003
     24          8           0       -3.938783    6.491658    3.770345
     25          7           0       -6.983434    2.712765   -0.684256
     26          6           0       -7.031292    3.967877   -0.335858
     27          6           0       -7.949239    4.598067   -1.188777
     28          6           0       -8.478861    3.652361   -2.065413
     29          6           0       -7.791686    2.464069   -1.708670
     30          6           0       -8.375805    5.966181   -1.148983
     31          6           0       -9.475238    3.860508   -3.162001
     32          6           0       -8.790550    3.900408   -4.522108
     33          7           0       -6.350798   -0.141288   -1.140469
     34          6           0       -7.298011   -0.024444   -2.140039
     35          6           0       -7.571153   -1.339619   -2.729339
     36          6           0       -6.651400   -2.166370   -2.053684
     37          6           0       -5.919810   -1.418547   -1.098498
     38          6           0       -8.538048   -1.670205   -3.642740
     39          6           0       -6.136754   -3.534142   -1.972686
     40          8           0       -6.543752   -4.607955   -2.562019
     41          6           0       -5.072189   -3.456717   -0.912321
     42          6           0       -5.230282   -4.686375    0.044984
     43          8           0       -5.682667   -4.433373    1.169978
     44          8           0       -4.981156   -5.878484   -0.389147
     45          6           0       -5.316680   -6.899293    0.543874
     46          6           0        2.373976   -5.079323    0.698892
     47          6           0        3.304088   -3.972749    1.108556
     48          6           0        4.009347   -3.211998    0.202539
     49          6           0        3.591780   -3.272211   -1.228156
     50          6           0        5.040111   -2.303733    0.640985
     51          6           0        6.430192   -2.662108    0.014694
     52          6           0        7.503060   -1.788113    0.619106
     53          6           0        8.874800   -1.880885   -0.030004
     54          6           0        9.536882   -3.289292    0.080304
     55          6           0        9.849405   -0.617714    0.373615
     56          6           0       11.293633   -0.828667   -0.179555
     57          6           0       12.133096    0.312016    0.181628
     58          6           0       13.553342    0.419170   -0.551392
     59          6           0       14.471808   -0.715497   -0.197747
     60          6           0       14.177798    1.827404   -0.260435
     61          6           0       15.475364    2.045720   -0.936827
     62          6           0       15.968154    3.538816   -0.745189
     63          6           0       17.425139    3.896519   -1.385369
     64          6           0       17.333475    3.955214   -2.893107
     65          6           0       18.096626    5.035103   -0.869911
     66          1           0       -2.478550    1.278141    3.508627
     67          1           0       -6.600880    5.646661    0.859869
     68          1           0       -8.457213    1.116474   -3.224983
     69          1           0       -3.664514   -3.160539    1.763365
     70          1           0       -1.650784   -1.196770    2.360882
     71          1           0       -2.875996   -2.645415    4.453236
     72          1           0       -3.210728   -0.915905    4.570661
     73          1           0       -4.384838   -1.957194    3.886795
     74          1           0       -2.221965   -3.286696   -0.304963
     75          1           0       -1.495467   -1.812551    0.295116
     76          1           0       -0.917623   -3.357839    2.367854
     77          1           0       -1.725114   -4.594975    1.406864
     78          1           0       -1.665012    3.551945    4.225161
     79          1           0       -3.102739    4.905875    4.761467
     80          1           0       -2.959057    3.227453    5.179447
     81          1           0       -5.398423    6.452167    2.328966
     82          1           0      -10.080183    2.979724   -2.896857
     83          1           0      -10.213176    4.618379   -2.944469
     84          1           0       -9.327276    4.039768   -5.442034
     85          1           0       -8.066135    4.756890   -4.448979
     86          1           0       -8.144074    2.970709   -4.758600
     87          1           0       -8.192307   -1.607326   -4.854795
     88          1           0       -8.958741   -2.928861   -3.522024
     89          1           0       -9.586291   -0.891551   -3.558842
     90          1           0       -4.263599   -3.859201   -1.425821
     91          1           0        2.599755   -6.066313    1.072442
     92          1           0        2.261680   -5.315530   -0.453669
     93          1           0        3.686250   -3.904109    1.978687
     94          1           0        2.504229   -3.385500   -1.353642
     95          1           0        3.829153   -2.262399   -1.803929
     96          1           0        4.228134   -3.998064   -1.979769
     97          1           0        4.808687   -1.209016    0.116135
     98          1           0        4.905353   -2.165501    1.685224
     99          1           0        6.676936   -3.609702    0.138189
    100          1           0        6.400757   -2.399561   -1.016259
    101          1           0        7.165713   -0.800639    0.581748
    102          1           0        7.558840   -1.871163    1.844776
    103          1           0        8.803954   -1.724891   -0.966004
    104          1           0        8.831273   -4.116660   -0.143762
    105          1           0       10.369466   -3.363979   -0.537905
    106          1           0       10.046689   -3.675776    1.194493
    107          1           0        9.244930    0.304444    0.000552
    108          1           0        9.874819   -0.772653    1.483295
    109          1           0       11.842925   -1.838399    0.141294
    110          1           0       11.608484   -0.922663   -1.222655
    111          1           0       11.538915    1.293390    0.108666
    112          1           0       12.426052    0.341804    1.244016
    113          1           0       13.369975    0.337645   -1.670490
    114          1           0       15.124118   -0.621301    0.875017
    115          1           0       14.038945   -1.663657   -0.372140
    116          1           0       15.308592   -0.581168   -0.840007
    117          1           0       13.255011    2.484029   -0.410852
    118          1           0       14.508908    1.785070    0.799004
    119          1           0       16.317079    1.253252   -0.594054
    120          1           0       15.392683    2.080230   -2.132271
    121          1           0       15.331435    4.220780   -1.244626
    122          1           0       15.989185    3.662461    0.422880
    123          1           0       18.100840    3.084208   -1.014251
    124          1           0       16.821476    4.736116   -3.265920
    125          1           0       18.402621    4.089040   -3.212440
    126          1           0       16.914113    3.173196   -3.339971
    127          1           0       18.239805    4.982555    0.245262
    128          1           0       19.207446    5.147412   -1.319045
    129          1           0       17.646025    6.070962   -0.980583
    130          1           0       -4.999731   -7.937083    0.132858
    131          1           0       -6.298423   -7.000133    0.825842
    132          1           0       -4.637244   -6.647360    1.395594
    133          8           0       -8.021578    6.872729   -0.418523
    134          1           0       -9.223239    6.157928   -1.839485
 ---------------------------------------------------------------------

 SCF Done:  E(RCAM-B3LYP) =  -3043.40710115     A.U. after   16 cycles

 Excitation energies and oscillator strengths:

 Excited State   1:      Singlet-A      2.0385 eV  608.21 nm  f=0.1725  <S**2>=0.000
     243 -> 245        0.15861
     243 -> 246       -0.27851
     244 -> 245        0.61399
     244 -> 246        0.10462
 This state for optimization and/or second-order correction.
 Total Energy, E(TD-HF/TD-KS) =  -3043.33218776
 Copying the excited state density for this state as the 1-particle RhoCI density.

 The electronic state is 1-A.
 Alpha  occ. eigenvalues --  -46.81168 -19.24932 -19.21606 -19.17484 -19.16917
 Alpha  occ. eigenvalues --  -19.16631 -19.16472 -19.16422 -14.39089 -14.37789
 Alpha  occ. eigenvalues --  -14.36766 -14.36471 -10.35775 -10.35223 -10.31328
 Alpha  occ. eigenvalues --  -10.29568 -10.29149 -10.28437 -10.28150 -10.28080
 Alpha  occ. eigenvalues --  -10.27940 -10.27869 -10.27458 -10.26852 -10.26823
 Alpha  occ. eigenvalues --  -10.26117 -10.25722 -10.25679 -10.25515 -10.25335
 Alpha  occ. eigenvalues --  -10.24800 -10.24571 -10.24570 -10.24554 -10.24244
 Alpha  occ. eigenvalues --  -10.23718 -10.23669 -10.23613 -10.23521 -10.23311
 Alpha  occ. eigenvalues --  -10.23096 -10.23026 -10.22954 -10.22902 -10.22897
 Alpha  occ. eigenvalues --  -10.22704 -10.22571 -10.22557 -10.22417 -10.22053
 Alpha  occ. eigenvalues --  -10.21894 -10.21649 -10.21572 -10.21480 -10.21471
 Alpha  occ. eigenvalues --  -10.21392 -10.21289 -10.21232 -10.21124 -10.20794
 Alpha  occ. eigenvalues --  -10.20757 -10.20686 -10.20465 -10.20366 -10.19927
 Alpha  occ. eigenvalues --  -10.18138  -3.09796  -1.84732  -1.84261  -1.84219
 Alpha  occ. eigenvalues --   -1.16863  -1.13665  -1.06206  -1.06194  -1.04717
 Alpha  occ. eigenvalues --   -1.04542  -1.03008  -1.02228  -1.00518  -0.97792
 Alpha  occ. eigenvalues --   -0.96937  -0.91399  -0.86633  -0.86030  -0.85295
 Alpha  occ. eigenvalues --   -0.85200  -0.84888  -0.84418  -0.84239  -0.83526
 Alpha  occ. eigenvalues --   -0.83396  -0.83213  -0.81784  -0.80910  -0.80280
 Alpha  occ. eigenvalues --   -0.79535  -0.78726  -0.78322  -0.77710  -0.76613
 Alpha  occ. eigenvalues --   -0.75649  -0.75354  -0.74670  -0.73951  -0.72761
 Alpha  occ. eigenvalues --   -0.71997  -0.70886  -0.70220  -0.70084  -0.69865
 Alpha  occ. eigenvalues --   -0.69445  -0.69041  -0.68094  -0.67352  -0.66960
 Alpha  occ. eigenvalues --   -0.66207  -0.65081  -0.64341  -0.63004  -0.62780
 Alpha  occ. eigenvalues --   -0.62267  -0.61713  -0.60595  -0.59937  -0.59463
 Alpha  occ. eigenvalues --   -0.58644  -0.58437  -0.58082  -0.57482  -0.57235
 Alpha  occ. eigenvalues --   -0.56109  -0.56028  -0.55622  -0.55126  -0.54918
 Alpha  occ. eigenvalues --   -0.54827  -0.54091  -0.53591  -0.52864  -0.52775
 Alpha  occ. eigenvalues --   -0.52343  -0.52040  -0.51731  -0.51350  -0.51056
 Alpha  occ. eigenvalues --   -0.50380  -0.50183  -0.50015  -0.49516  -0.49297
 Alpha  occ. eigenvalues --   -0.49154  -0.48876  -0.48856  -0.48565  -0.48419
 Alpha  occ. eigenvalues --   -0.48180  -0.47756  -0.47386  -0.47322  -0.47089
 Alpha  occ. eigenvalues --   -0.46976  -0.46699  -0.46370  -0.45929  -0.45637
 Alpha  occ. eigenvalues --   -0.45546  -0.45392  -0.45330  -0.44886  -0.44807
 Alpha  occ. eigenvalues --   -0.44598  -0.44457  -0.44140  -0.43930  -0.43751
 Alpha  occ. eigenvalues --   -0.43498  -0.43269  -0.43242  -0.43189  -0.42686
 Alpha  occ. eigenvalues --   -0.42500  -0.42424  -0.42322  -0.41916  -0.41798
 Alpha  occ. eigenvalues --   -0.41595  -0.41410  -0.41314  -0.41126  -0.41096
 Alpha  occ. eigenvalues --   -0.40810  -0.40405  -0.40119  -0.40073  -0.39806
 Alpha  occ. eigenvalues --   -0.39761  -0.39436  -0.39288  -0.39243  -0.39186
 Alpha  occ. eigenvalues --   -0.38601  -0.38564  -0.38291  -0.38202  -0.38042
 Alpha  occ. eigenvalues --   -0.37822  -0.37752  -0.37636  -0.37432  -0.37240
 Alpha  occ. eigenvalues --   -0.37087  -0.36911  -0.36803  -0.36053  -0.35857
 Alpha  occ. eigenvalues --   -0.35587  -0.35233  -0.34823  -0.34696  -0.34681
 Alpha  occ. eigenvalues --   -0.34431  -0.34133  -0.34020  -0.33809  -0.33695
 Alpha  occ. eigenvalues --   -0.33091  -0.32188  -0.31764  -0.31695  -0.31485
 Alpha  occ. eigenvalues --   -0.31293  -0.31105  -0.30299  -0.30164  -0.29618
 Alpha  occ. eigenvalues --   -0.28549  -0.27993  -0.27778  -0.27588  -0.27568
 Alpha  occ. eigenvalues --   -0.27142  -0.26369  -0.23584  -0.22491
 Alpha virt. eigenvalues --   -0.09243  -0.07533  -0.02040  -0.00533   0.00609
 Alpha virt. eigenvalues --    0.02544   0.02767   0.03247   0.03697   0.04390
 Alpha virt. eigenvalues --    0.04683   0.05372   0.07296   0.08057   0.08667

 Mulliken charges:
               1
     1  Mg   0.826278
     2  C    0.226036
     3  C   -0.172008
     4  C   -0.180853
     5  C   -0.085292
     6  N   -0.651851
     7  C    0.285995
     8  C   -0.157029
     9  C   -0.135532
    10  C    0.312725
    11  C   -0.305518
    12  C   -0.207232
    13  C   -0.270373
    14  C    0.608762
    15  O   -0.454983
    16  O   -0.457594
    17  N   -0.698636
    18  C    0.253290
    19  C    0.097532
    20  C   -0.014605
    21  C    0.297869
    22  C   -0.411029
    23  C    0.246060
    24  O   -0.436511
    25  N   -0.675318
    26  C    0.317507
    27  C   -0.032156
    28  C    0.006777
    29  C    0.279736
    30  C    0.236132
    31  C   -0.230816
    32  C   -0.313656
    33  N   -0.762945
    34  C    0.258474
    35  C    0.142255
    36  C    0.029089
    37  C    0.288560
    38  C   -0.426631
    39  C    0.347486
    40  O   -0.511276
    41  C   -0.355529
    42  C    0.606815
    43  O   -0.495616
    44  O   -0.402455
    45  C   -0.089584
    46  C   -0.011541
    47  C   -0.109120
    48  C    0.172653
    49  C   -0.388135
    50  C   -0.238952
    51  C   -0.165352
    52  C   -0.168552
    53  C   -0.051149
    54  C   -0.308897
    55  C   -0.191815
    56  C   -0.176208
    57  C   -0.164512
    58  C   -0.075797
    59  C   -0.300897
    60  C   -0.148208
    61  C   -0.172655
    62  C   -0.175552
    63  C   -0.040470
    64  C   -0.308885
    65  C   -0.297089
    66  H    0.090216
    67  H    0.145778
    68  H    0.049676
    69  H    0.120624
    70  H    0.105153
    71  H    0.103071
    72  H    0.124569
    73  H    0.134444
    74  H    0.119513
    75  H    0.123855
    76  H    0.140088
    77  H    0.138508
    78  H    0.113657
    79  H    0.166614
    80  H    0.131874
    81  H    0.093215
    82  H    0.110366
    83  H    0.120947
    84  H    0.119204
    85  H    0.117506
    86  H    0.102878
    87  H    0.122015
    88  H    0.127847
    89  H    0.089731
    90  H    0.164437
    91  H    0.116773
    92  H    0.121104
    93  H    0.062672
    94  H    0.171620
    95  H    0.078416
    96  H    0.086074
    97  H    0.074303
    98  H    0.102280
    99  H    0.114546
   100  H    0.108843
   101  H    0.091957
   102  H    0.054395
   103  H    0.103307
   104  H    0.098828
   105  H    0.114494
   106  H    0.053709
   107  H    0.093145
   108  H    0.110727
   109  H    0.083160
   110  H    0.094261
   111  H    0.070257
   112  H    0.088904
   113  H    0.075045
   114  H    0.064022
   115  H    0.105202
   116  H    0.115106
   117  H    0.091450
   118  H    0.093317
   119  H    0.085245
   120  H    0.068084
   121  H    0.100174
   122  H    0.066921
   123  H    0.082220
   124  H    0.111642
   125  H    0.090094
   126  H    0.107735
   127  H    0.092686
   128  H    0.077205
   129  H    0.088499
   130  H    0.118237
   131  H    0.155678
   132  H    0.124622
   133  O   -0.439299
   134  H    0.045337
 Sum of Mulliken charges =   0.00000

 Dipole moment (field-independent basis, Debye):
    X=              1.4707    Y=             -5.4758    Z=             -0.9936  Tot=              5.7562
 Quadrupole moment (field-independent basis, Debye-Ang):
   XX=           -386.4131   YY=           -441.2972   ZZ=           -391.2920
   XY=             11.7188   XZ=             12.4466   YZ=            -32.5934

 Normal termination of Gaussian 09 at Tue Oct  8 01:30:51 2019.
