 Gaussian 09, Revision D.01,
 Gaussian 09:  ES64L-G09RevD.01 24-Apr-2013

 ----------------------------------------------------------------------
 # td=(NStates=1) iop(3/107=0140000000,3/108=0140000000) iop(3/107=0140
 000000,3/108=0140000000) CAM-B3LYP/6-31G(d,p)
 ----------------------------------------------------------------------

 --
 TD
 --
 Symbolic Z-matrix:
 Charge =  0 Multiplicity = 1

                         Standard orientation:
 ---------------------------------------------------------------------
 Center     Atomic      Atomic             Coordinates (Angstroms)
 Number     Number       Type             X           Y           Z
 ---------------------------------------------------------------------
      1         12           0       -5.526312    1.285442    0.254653
      2          6           0       -5.028221   -2.119248   -0.281167
      3          6           0       -3.362112    1.160762    2.729203
      4          6           0       -6.081938    4.648748    0.719890
      5          6           0       -7.913367    1.196919   -2.354732
      6          7           0       -4.353880   -0.328699    1.074174
      7          6           0       -4.338967   -1.637893    0.666931
      8          6           0       -3.232700   -2.443519    1.431546
      9          6           0       -2.856571   -1.399368    2.551836
     10          6           0       -3.466231   -0.081383    2.164371
     11          6           0       -3.220710   -1.958699    3.956901
     12          6           0       -1.994855   -2.829267    0.670427
     13          6           0       -0.950714   -3.627563    1.392226
     14          6           0        0.259199   -4.026156    0.601610
     15          8           0        0.486020   -3.572517   -0.494776
     16          8           0        0.993292   -4.933028    1.204224
     17          7           0       -4.833744    2.638036    1.461988
     18          6           0       -3.913404    2.398606    2.475194
     19          6           0       -3.598664    3.585413    3.187282
     20          6           0       -4.444523    4.487533    2.604446
     21          6           0       -5.171443    3.895402    1.527382
     22          6           0       -2.654471    3.812264    4.241284
     23          6           0       -4.453617    5.995585    2.775748
     24          8           0       -3.803033    6.652663    3.600525
     25          7           0       -6.850371    2.622258   -0.636875
     26          6           0       -6.926391    3.938846   -0.264058
     27          6           0       -7.983492    4.677033   -1.061473
     28          6           0       -8.480629    3.712495   -1.979287
     29          6           0       -7.756940    2.419893   -1.703404
     30          6           0       -8.236107    6.084535   -1.097422
     31          6           0       -9.542141    4.051597   -3.021999
     32          6           0       -8.819809    4.105936   -4.435436
     33          7           0       -6.265754   -0.049773   -1.134748
     34          6           0       -7.301920    0.105890   -2.149750
     35          6           0       -7.574134   -1.238316   -2.711971
     36          6           0       -6.612940   -2.036738   -2.160400
     37          6           0       -5.925046   -1.353273   -1.141286
     38          6           0       -8.536137   -1.443381   -3.825410
     39          6           0       -6.285536   -3.534991   -2.043938
     40          8           0       -6.750246   -4.557200   -2.534784
     41          6           0       -5.040476   -3.618347   -0.848163
     42          6           0       -5.335576   -4.645899    0.169883
     43          8           0       -5.691494   -4.562309    1.247673
     44          8           0       -5.085270   -5.919640   -0.387576
     45          6           0       -5.114138   -7.047423    0.497215
     46          6           0        2.270772   -5.233034    0.524633
     47          6           0        3.318631   -4.154559    0.944178
     48          6           0        4.094989   -3.289316    0.166677
     49          6           0        3.646514   -2.992773   -1.254054
     50          6           0        5.127618   -2.545052    0.733322
     51          6           0        6.476126   -2.681048    0.105155
     52          6           0        7.598619   -1.851858    0.591730
     53          6           0        8.935251   -1.976313   -0.168638
     54          6           0        9.534394   -3.402409   -0.138421
     55          6           0        9.908899   -0.777444    0.277353
     56          6           0       11.266189   -0.733311   -0.360225
     57          6           0       12.090287    0.377923    0.195662
     58          6           0       13.425145    0.532147   -0.542699
     59          6           0       14.294718   -0.704396   -0.395430
     60          6           0       14.053814    1.860566   -0.193885
     61          6           0       15.294243    2.283465   -1.080352
     62          6           0       15.960620    3.487384   -0.637849
     63          6           0       17.344309    3.868184   -1.164737
     64          6           0       17.097642    3.909775   -2.698516
     65          6           0       17.791140    5.221069   -0.725215
     66          1           0       -2.712057    1.167854    3.583184
     67          1           0       -6.184047    5.682678    0.811578
     68          1           0       -8.701127    1.211895   -3.115129
     69          1           0       -3.861605   -3.293416    1.873695
     70          1           0       -1.814545   -1.036122    2.631765
     71          1           0       -2.747042   -2.770346    4.169857
     72          1           0       -2.781697   -1.317657    4.610237
     73          1           0       -4.212351   -2.146626    4.102179
     74          1           0       -2.352657   -3.226702   -0.157041
     75          1           0       -1.559137   -1.784324    0.222188
     76          1           0       -0.432900   -3.087913    2.218560
     77          1           0       -1.449961   -4.621143    1.743204
     78          1           0       -1.684280    3.271447    3.922742
     79          1           0       -2.444370    5.047717    4.292252
     80          1           0       -2.912499    3.392046    5.266803
     81          1           0       -5.397156    6.560513    2.285089
     82          1           0      -10.130350    3.105598   -3.294031
     83          1           0      -10.207215    4.835607   -2.635558
     84          1           0       -9.363195    4.334047   -5.334380
     85          1           0       -8.255290    4.897564   -4.505274
     86          1           0       -8.255016    3.128262   -4.556375
     87          1           0       -8.461022   -0.864062   -4.662312
     88          1           0       -8.503756   -2.634848   -3.929744
     89          1           0       -9.612190   -1.116250   -3.464031
     90          1           0       -4.188534   -3.951285   -1.479055
     91          1           0        2.517622   -6.225316    1.028790
     92          1           0        2.145175   -5.013209   -0.501939
     93          1           0        3.760945   -4.290800    1.966293
     94          1           0        2.748202   -3.306466   -1.491360
     95          1           0        3.848062   -1.848380   -1.555058
     96          1           0        4.195858   -3.568629   -2.123513
     97          1           0        4.897523   -1.443185    0.779307
     98          1           0        5.149896   -2.979642    1.795793
     99          1           0        6.676660   -3.919385    0.195374
    100          1           0        6.244365   -2.660456   -0.998112
    101          1           0        7.196945   -0.730390    0.819428
    102          1           0        7.912242   -2.266196    1.659764
    103          1           0        8.692965   -1.922294   -1.376508
    104          1           0        8.849818   -4.152493   -0.638547
    105          1           0       10.597656   -3.494293   -0.725177
    106          1           0        9.766851   -3.595620    0.844691
    107          1           0        9.382782    0.139147    0.106741
    108          1           0        9.919008   -0.836079    1.326626
    109          1           0       11.689915   -1.863614   -0.488691
    110          1           0       11.285438   -0.477936   -1.388307
    111          1           0       11.580518    1.396915   -0.222285
    112          1           0       12.067302    0.373173    1.387564
    113          1           0       13.054018    0.436522   -1.656999
    114          1           0       14.788263   -0.940767    0.704485
    115          1           0       13.421371   -1.566313   -0.441572
    116          1           0       15.151907   -0.600579   -1.129929
    117          1           0       13.415150    2.688853   -0.089933
    118          1           0       14.439967    1.598041    0.788519
    119          1           0       15.840908    1.504199   -1.031381
    120          1           0       15.051379    2.308752   -2.119554
    121          1           0       15.121631    4.331890   -0.852234
    122          1           0       16.200823    3.596957    0.377378
    123          1           0       18.205005    3.075824   -0.940637
    124          1           0       16.217307    4.585423   -2.754878
    125          1           0       17.893365    4.400954   -3.117725
    126          1           0       16.844281    3.097109   -3.287718
    127          1           0       17.816004    5.198877    0.355223
    128          1           0       18.841809    5.410302   -1.073272
    129          1           0       17.138713    6.077351   -1.019759
    130          1           0       -4.863451   -8.011239   -0.241391
    131          1           0       -6.126753   -7.060146    0.939463
    132          1           0       -4.508655   -6.994148    1.606983
    133          8           0       -7.793219    6.916779   -0.305348
    134          1           0       -9.062385    6.356732   -1.836458
 ---------------------------------------------------------------------

 SCF Done:  E(RCAM-B3LYP) =  -3043.40575834     A.U. after   15 cycles

 Excitation energies and oscillator strengths:

 Excited State   1:      Singlet-A      2.0359 eV  608.99 nm  f=0.2003  <S**2>=0.000
     243 -> 246        0.22683
     244 -> 245        0.66116
 This state for optimization and/or second-order correction.
 Total Energy, E(TD-HF/TD-KS) =  -3043.33094033
 Copying the excited state density for this state as the 1-particle RhoCI density.

 The electronic state is 1-A.
 Alpha  occ. eigenvalues --  -46.81004 -19.22562 -19.20531 -19.19249 -19.18320
 Alpha  occ. eigenvalues --  -19.17597 -19.16773 -19.16368 -14.38135 -14.37957
 Alpha  occ. eigenvalues --  -14.36980 -14.36798 -10.34679 -10.34305 -10.33878
 Alpha  occ. eigenvalues --  -10.31287 -10.30206 -10.29145 -10.28838 -10.27947
 Alpha  occ. eigenvalues --  -10.27493 -10.27048 -10.26953 -10.26766 -10.26161
 Alpha  occ. eigenvalues --  -10.26157 -10.26059 -10.26040 -10.25856 -10.25526
 Alpha  occ. eigenvalues --  -10.24993 -10.24488 -10.24373 -10.24371 -10.24212
 Alpha  occ. eigenvalues --  -10.24157 -10.23925 -10.23901 -10.23820 -10.23764
 Alpha  occ. eigenvalues --  -10.23647 -10.23618 -10.23596 -10.23577 -10.23016
 Alpha  occ. eigenvalues --  -10.22943 -10.22855 -10.22756 -10.22604 -10.22564
 Alpha  occ. eigenvalues --  -10.22514 -10.22347 -10.22137 -10.22118 -10.21745
 Alpha  occ. eigenvalues --  -10.21596 -10.21548 -10.21511 -10.21277 -10.20709
 Alpha  occ. eigenvalues --  -10.20327 -10.20145 -10.19918 -10.19301 -10.18402
 Alpha  occ. eigenvalues --  -10.17946  -3.09695  -1.84629  -1.84156  -1.84123
 Alpha  occ. eigenvalues --   -1.15217  -1.14407  -1.07755  -1.05729  -1.05690
 Alpha  occ. eigenvalues --   -1.05277  -1.04751  -1.01895  -0.99587  -0.98074
 Alpha  occ. eigenvalues --   -0.97457  -0.88124  -0.87382  -0.86273  -0.85848
 Alpha  occ. eigenvalues --   -0.85491  -0.85062  -0.84964  -0.84407  -0.84259
 Alpha  occ. eigenvalues --   -0.83484  -0.83446  -0.82147  -0.80807  -0.80105
 Alpha  occ. eigenvalues --   -0.79267  -0.78744  -0.77909  -0.77367  -0.77009
 Alpha  occ. eigenvalues --   -0.75984  -0.75149  -0.74510  -0.72962  -0.72199
 Alpha  occ. eigenvalues --   -0.71648  -0.71371  -0.70615  -0.70379  -0.69855
 Alpha  occ. eigenvalues --   -0.69630  -0.69279  -0.68143  -0.67401  -0.66463
 Alpha  occ. eigenvalues --   -0.65529  -0.65274  -0.63836  -0.63027  -0.62378
 Alpha  occ. eigenvalues --   -0.62010  -0.60878  -0.60679  -0.58747  -0.58152
 Alpha  occ. eigenvalues --   -0.57985  -0.57928  -0.57267  -0.56733  -0.56587
 Alpha  occ. eigenvalues --   -0.56446  -0.55839  -0.55624  -0.55351  -0.54650
 Alpha  occ. eigenvalues --   -0.54275  -0.53556  -0.53094  -0.52701  -0.52070
 Alpha  occ. eigenvalues --   -0.51687  -0.51547  -0.51142  -0.50888  -0.50860
 Alpha  occ. eigenvalues --   -0.50597  -0.50294  -0.49751  -0.49676  -0.49212
 Alpha  occ. eigenvalues --   -0.49162  -0.48993  -0.48541  -0.48383  -0.48299
 Alpha  occ. eigenvalues --   -0.47625  -0.47579  -0.47390  -0.47310  -0.47201
 Alpha  occ. eigenvalues --   -0.46842  -0.46492  -0.46238  -0.46177  -0.45977
 Alpha  occ. eigenvalues --   -0.45737  -0.45571  -0.45404  -0.45054  -0.45008
 Alpha  occ. eigenvalues --   -0.44929  -0.44520  -0.44391  -0.44218  -0.44111
 Alpha  occ. eigenvalues --   -0.43825  -0.43683  -0.43297  -0.43182  -0.43051
 Alpha  occ. eigenvalues --   -0.42967  -0.42593  -0.42377  -0.42264  -0.42113
 Alpha  occ. eigenvalues --   -0.41902  -0.41799  -0.41463  -0.41265  -0.41153
 Alpha  occ. eigenvalues --   -0.40980  -0.40760  -0.40757  -0.40685  -0.40453
 Alpha  occ. eigenvalues --   -0.40286  -0.40042  -0.39898  -0.39700  -0.39529
 Alpha  occ. eigenvalues --   -0.39068  -0.38936  -0.38756  -0.38483  -0.38436
 Alpha  occ. eigenvalues --   -0.38247  -0.37977  -0.37856  -0.37557  -0.37016
 Alpha  occ. eigenvalues --   -0.36992  -0.36687  -0.36320  -0.36094  -0.35990
 Alpha  occ. eigenvalues --   -0.35685  -0.35480  -0.35054  -0.34958  -0.34672
 Alpha  occ. eigenvalues --   -0.34425  -0.33819  -0.33343  -0.33221  -0.32968
 Alpha  occ. eigenvalues --   -0.32664  -0.32504  -0.31928  -0.31639  -0.31431
 Alpha  occ. eigenvalues --   -0.31360  -0.31022  -0.30378  -0.30142  -0.29933
 Alpha  occ. eigenvalues --   -0.29195  -0.28763  -0.28300  -0.28021  -0.27763
 Alpha  occ. eigenvalues --   -0.27259  -0.26835  -0.23781  -0.21815
 Alpha virt. eigenvalues --   -0.08843  -0.06811  -0.01459  -0.00699  -0.00057
 Alpha virt. eigenvalues --    0.01612   0.02869   0.03794   0.04174   0.04432
 Alpha virt. eigenvalues --    0.05076   0.05796   0.07698   0.08255   0.08896

 Mulliken charges:
               1
     1  Mg   0.823816
     2  C    0.084543
     3  C   -0.218231
     4  C   -0.132955
     5  C   -0.173427
     6  N   -0.665664
     7  C    0.301035
     8  C   -0.166869
     9  C   -0.168732
    10  C    0.362786
    11  C   -0.300983
    12  C   -0.130917
    13  C   -0.253488
    14  C    0.600673
    15  O   -0.477943
    16  O   -0.455292
    17  N   -0.762620
    18  C    0.313190
    19  C    0.134410
    20  C   -0.080503
    21  C    0.367781
    22  C   -0.411855
    23  C    0.238873
    24  O   -0.421263
    25  N   -0.680877
    26  C    0.280608
    27  C   -0.009612
    28  C    0.034045
    29  C    0.264134
    30  C    0.233228
    31  C   -0.261137
    32  C   -0.317214
    33  N   -0.727647
    34  C    0.302038
    35  C    0.053156
    36  C   -0.017469
    37  C    0.324021
    38  C   -0.380334
    39  C    0.369971
    40  O   -0.428723
    41  C   -0.332691
    42  C    0.632269
    43  O   -0.413200
    44  O   -0.477037
    45  C   -0.071523
    46  C   -0.003733
    47  C   -0.164138
    48  C    0.182107
    49  C   -0.367555
    50  C   -0.232327
    51  C   -0.159154
    52  C   -0.151830
    53  C   -0.055382
    54  C   -0.303176
    55  C   -0.175133
    56  C   -0.169622
    57  C   -0.165239
    58  C   -0.056157
    59  C   -0.290116
    60  C   -0.174883
    61  C   -0.165034
    62  C   -0.147618
    63  C   -0.066666
    64  C   -0.302118
    65  C   -0.304451
    66  H    0.070831
    67  H    0.132376
    68  H    0.085283
    69  H    0.127995
    70  H    0.103184
    71  H    0.123785
    72  H    0.104485
    73  H    0.128775
    74  H    0.112379
    75  H    0.093403
    76  H    0.135797
    77  H    0.124881
    78  H    0.108298
    79  H    0.152017
    80  H    0.130829
    81  H    0.079681
    82  H    0.110678
    83  H    0.123036
    84  H    0.108864
    85  H    0.132032
    86  H    0.105313
    87  H    0.149034
    88  H    0.139357
    89  H    0.113478
    90  H    0.168502
    91  H    0.131034
    92  H    0.143693
    93  H    0.071500
    94  H    0.151062
    95  H    0.095843
    96  H    0.092920
    97  H    0.100677
    98  H    0.086955
    99  H    0.060897
   100  H    0.098695
   101  H    0.076927
   102  H    0.079006
   103  H    0.049832
   104  H    0.109319
   105  H    0.081921
   106  H    0.111901
   107  H    0.101546
   108  H    0.096853
   109  H    0.074968
   110  H    0.107204
   111  H    0.076688
   112  H    0.075731
   113  H    0.065707
   114  H    0.070419
   115  H    0.086255
   116  H    0.104350
   117  H    0.088633
   118  H    0.096322
   119  H    0.097884
   120  H    0.092708
   121  H    0.059681
   122  H    0.083045
   123  H    0.070412
   124  H    0.089317
   125  H    0.091381
   126  H    0.105175
   127  H    0.100838
   128  H    0.099422
   129  H    0.103974
   130  H    0.115642
   131  H    0.129838
   132  H    0.083308
   133  O   -0.436666
   134  H    0.052743
 Sum of Mulliken charges =   0.00000

 Dipole moment (field-independent basis, Debye):
    X=              1.8809    Y=             -4.3870    Z=             -1.2215  Tot=              4.9270
 Quadrupole moment (field-independent basis, Debye-Ang):
   XX=           -381.7118   YY=           -449.6012   ZZ=           -389.3336
   XY=              4.7332   XZ=             28.8735   YZ=            -34.1814

 Normal termination of Gaussian 09 at Tue Oct  8 16:18:10 2019.
