 Gaussian 09, Revision D.01,
 Gaussian 09:  ES64L-G09RevD.01 24-Apr-2013

 ----------------------------------------------------------------------
 # td=(NStates=1) iop(3/107=0140000000,3/108=0140000000) iop(3/107=0140
 000000,3/108=0140000000) CAM-B3LYP/6-31G(d,p)
 ----------------------------------------------------------------------

 --
 TD
 --
 Symbolic Z-matrix:
 Charge =  0 Multiplicity = 1

                         Standard orientation:
 ---------------------------------------------------------------------
 Center     Atomic      Atomic             Coordinates (Angstroms)
 Number     Number       Type             X           Y           Z
 ---------------------------------------------------------------------
      1         12           0       -5.618281    1.257975    0.101665
      2          6           0       -5.020930   -2.126501   -0.389962
      3          6           0       -3.460930    1.167082    2.736067
      4          6           0       -6.360286    4.436887    0.689218
      5          6           0       -7.899115    1.114096   -2.396912
      6          7           0       -4.354433   -0.292520    0.970719
      7          6           0       -4.244844   -1.588342    0.648677
      8          6           0       -3.180361   -2.388752    1.449098
      9          6           0       -2.966197   -1.329925    2.704260
     10          6           0       -3.631934   -0.084469    2.125011
     11          6           0       -3.748108   -1.751825    4.016448
     12          6           0       -1.913021   -2.531063    0.632947
     13          6           0       -0.983660   -3.537190    1.379044
     14          6           0        0.281659   -3.746920    0.606494
     15          8           0        0.430161   -3.376542   -0.546121
     16          8           0        1.121806   -4.620326    1.247940
     17          7           0       -5.003762    2.589947    1.465581
     18          6           0       -4.109222    2.376374    2.493331
     19          6           0       -3.839866    3.655984    3.225850
     20          6           0       -4.769047    4.508022    2.647510
     21          6           0       -5.339005    3.911668    1.482137
     22          6           0       -2.984949    3.711259    4.327402
     23          6           0       -5.060149    5.916938    3.097330
     24          8           0       -4.520137    6.447551    4.004134
     25          7           0       -6.894873    2.546465   -0.728717
     26          6           0       -7.014321    3.890723   -0.409797
     27          6           0       -7.922640    4.622573   -1.329317
     28          6           0       -8.428092    3.609549   -2.117076
     29          6           0       -7.756633    2.319932   -1.769080
     30          6           0       -8.177895    6.023871   -1.335862
     31          6           0       -9.462647    3.698736   -3.200629
     32          6           0       -8.872850    4.110516   -4.581802
     33          7           0       -6.354730   -0.106847   -1.131888
     34          6           0       -7.353169   -0.018292   -2.101972
     35          6           0       -7.524006   -1.283382   -2.657480
     36          6           0       -6.729849   -2.201171   -2.019733
     37          6           0       -5.861488   -1.496031   -1.153295
     38          6           0       -8.605615   -1.559463   -3.706504
     39          6           0       -6.204570   -3.592237   -2.020904
     40          8           0       -6.502737   -4.620509   -2.755305
     41          6           0       -5.023343   -3.550092   -0.888546
     42          6           0       -5.241783   -4.662647    0.099689
     43          8           0       -5.656201   -4.467158    1.243441
     44          8           0       -4.933391   -5.790780   -0.411864
     45          6           0       -5.351143   -6.947389    0.574043
     46          6           0        2.312225   -5.032296    0.691357
     47          6           0        3.415224   -4.032625    0.993114
     48          6           0        4.118877   -3.238924    0.221972
     49          6           0        3.738344   -3.117186   -1.350657
     50          6           0        5.136460   -2.293253    0.641470
     51          6           0        6.548582   -2.658213    0.005445
     52          6           0        7.657843   -1.751515    0.585826
     53          6           0        8.957595   -1.861051   -0.056965
     54          6           0        9.580402   -3.282956    0.048167
     55          6           0       10.131765   -0.942377    0.512055
     56          6           0       11.388920   -0.926463   -0.241103
     57          6           0       12.333799    0.212159    0.249177
     58          6           0       13.743928    0.434824   -0.480500
     59          6           0       14.587519   -0.721680   -0.265746
     60          6           0       14.357774    1.843508   -0.089102
     61          6           0       15.508507    2.121221   -1.020447
     62          6           0       16.178388    3.565531   -0.714917
     63          6           0       17.522567    3.903035   -1.332022
     64          6           0       17.330014    4.051604   -2.760139
     65          6           0       18.231458    5.231768   -0.808146
     66          1           0       -2.967317    1.252033    3.757955
     67          1           0       -6.435272    5.395934    0.761562
     68          1           0       -8.514166    1.020669   -3.261205
     69          1           0       -3.795729   -3.274820    1.839428
     70          1           0       -1.798379   -1.294492    2.902311
     71          1           0       -3.520726   -2.697477    4.250961
     72          1           0       -3.533097   -1.007610    4.867521
     73          1           0       -4.801496   -1.705226    3.855319
     74          1           0       -2.359306   -2.810996   -0.411331
     75          1           0       -1.354163   -1.514585    0.632934
     76          1           0       -0.569728   -3.244709    2.349600
     77          1           0       -1.638350   -4.508426    1.574409
     78          1           0       -2.019527    3.300745    4.035659
     79          1           0       -2.802122    4.877102    4.549795
     80          1           0       -3.062163    2.975513    5.161591
     81          1           0       -5.850583    6.534705    2.652803
     82          1           0      -10.159733    2.748946   -3.257932
     83          1           0      -10.309873    4.569844   -3.026079
     84          1           0       -9.556261    3.953316   -5.340948
     85          1           0       -8.383317    5.140208   -4.501826
     86          1           0       -8.004754    3.256295   -4.721365
     87          1           0       -8.647723   -0.837658   -4.648282
     88          1           0       -8.536333   -2.572767   -3.986315
     89          1           0       -9.650956   -1.376600   -3.104565
     90          1           0       -3.961382   -3.662493   -1.376138
     91          1           0        2.452518   -5.942372    1.230965
     92          1           0        2.160266   -5.340621   -0.390677
     93          1           0        3.443233   -3.894315    2.112212
     94          1           0        2.579660   -3.311983   -1.520810
     95          1           0        4.035225   -2.090702   -1.834232
     96          1           0        4.321247   -3.905226   -1.992149
     97          1           0        4.901621   -1.361501    0.134915
     98          1           0        5.487206   -2.333561    1.718680
     99          1           0        7.050028   -3.748620    0.180259
    100          1           0        6.613100   -2.719270   -1.155064
    101          1           0        7.422736   -0.726394    0.457773
    102          1           0        7.711639   -2.112747    1.721337
    103          1           0        8.803665   -1.626685   -1.243687
    104          1           0        8.818700   -4.128411   -0.289322
    105          1           0       10.578405   -3.400476   -0.526526
    106          1           0        9.645740   -3.706305    1.063459
    107          1           0        9.773073    0.005161    0.605370
    108          1           0       10.507043   -1.224517    1.607019
    109          1           0       12.087043   -1.971025   -0.141698
    110          1           0       11.175020   -0.912665   -1.399078
    111          1           0       11.555605    1.152444    0.351318
    112          1           0       12.637551   -0.258672    1.310932
    113          1           0       13.272790    0.355419   -1.497423
    114          1           0       14.771460   -0.826713    0.829401
    115          1           0       14.193540   -1.646506   -0.561957
    116          1           0       15.446000   -0.619888   -0.750792
    117          1           0       13.657430    2.854440   -0.323019
    118          1           0       14.693687    1.679433    1.001197
    119          1           0       16.425391    1.467981   -0.699754
    120          1           0       15.322618    1.783014   -1.971322
    121          1           0       15.555163    4.400948   -0.823082
    122          1           0       16.152754    3.419686    0.483871
    123          1           0       18.261610    3.121429   -1.363485
    124          1           0       16.768727    5.085407   -3.196519
    125          1           0       18.308629    4.245695   -3.313845
    126          1           0       16.620648    3.293354   -3.271715
    127          1           0       18.562695    5.090817    0.376700
    128          1           0       18.907397    5.630572   -1.626124
    129          1           0       17.602872    6.141988   -0.724025
    130          1           0       -5.096253   -7.895570    0.158870
    131          1           0       -6.424437   -6.700492    0.534428
    132          1           0       -4.964561   -6.655798    1.562460
    133          8           0       -7.854029    6.803781   -0.458891
    134          1           0       -8.696946    6.450875   -2.324403
 ---------------------------------------------------------------------

 SCF Done:  E(RCAM-B3LYP) =  -3043.42351777     A.U. after   16 cycles

 Excitation energies and oscillator strengths:

 Excited State   1:      Singlet-A      2.0138 eV  615.66 nm  f=0.1710  <S**2>=0.000
     243 -> 246        0.27778
     244 -> 245        0.63120
 This state for optimization and/or second-order correction.
 Total Energy, E(TD-HF/TD-KS) =  -3043.34951044
 Copying the excited state density for this state as the 1-particle RhoCI density.

 The electronic state is 1-A.
 Alpha  occ. eigenvalues --  -46.79877 -19.23936 -19.22318 -19.17786 -19.17606
 Alpha  occ. eigenvalues --  -19.17583 -19.16647 -19.16580 -14.39408 -14.36940
 Alpha  occ. eigenvalues --  -14.36273 -14.35123 -10.35460 -10.35002 -10.32910
 Alpha  occ. eigenvalues --  -10.31192 -10.29549 -10.28991 -10.27842 -10.27607
 Alpha  occ. eigenvalues --  -10.27543 -10.26390 -10.26284 -10.26128 -10.25930
 Alpha  occ. eigenvalues --  -10.25751 -10.25585 -10.25443 -10.25373 -10.25347
 Alpha  occ. eigenvalues --  -10.25332 -10.24956 -10.24822 -10.24708 -10.24275
 Alpha  occ. eigenvalues --  -10.24207 -10.24203 -10.23427 -10.23370 -10.23348
 Alpha  occ. eigenvalues --  -10.23271 -10.23198 -10.23173 -10.23034 -10.23007
 Alpha  occ. eigenvalues --  -10.22960 -10.22910 -10.22855 -10.22842 -10.22710
 Alpha  occ. eigenvalues --  -10.22681 -10.22435 -10.22416 -10.22266 -10.22237
 Alpha  occ. eigenvalues --  -10.21862 -10.21799 -10.21775 -10.21746 -10.21503
 Alpha  occ. eigenvalues --  -10.21451 -10.21323 -10.21256 -10.21197 -10.20972
 Alpha  occ. eigenvalues --  -10.18804  -3.08738  -1.83656  -1.83250  -1.83128
 Alpha  occ. eigenvalues --   -1.15111  -1.13882  -1.08494  -1.07250  -1.05672
 Alpha  occ. eigenvalues --   -1.04147  -1.02756  -1.00495  -0.99544  -0.98886
 Alpha  occ. eigenvalues --   -0.97506  -0.89873  -0.86144  -0.85629  -0.85305
 Alpha  occ. eigenvalues --   -0.85282  -0.84523  -0.84484  -0.84115  -0.83701
 Alpha  occ. eigenvalues --   -0.83652  -0.82429  -0.81671  -0.80676  -0.79985
 Alpha  occ. eigenvalues --   -0.79305  -0.78305  -0.78103  -0.77687  -0.77176
 Alpha  occ. eigenvalues --   -0.75381  -0.75105  -0.73523  -0.73406  -0.71999
 Alpha  occ. eigenvalues --   -0.70542  -0.70299  -0.70120  -0.69378  -0.69300
 Alpha  occ. eigenvalues --   -0.68966  -0.68758  -0.67959  -0.66628  -0.65370
 Alpha  occ. eigenvalues --   -0.65165  -0.64778  -0.64066  -0.62471  -0.62373
 Alpha  occ. eigenvalues --   -0.61619  -0.60989  -0.59376  -0.58996  -0.58665
 Alpha  occ. eigenvalues --   -0.58600  -0.57783  -0.57579  -0.57016  -0.56786
 Alpha  occ. eigenvalues --   -0.56088  -0.55971  -0.55765  -0.55408  -0.55195
 Alpha  occ. eigenvalues --   -0.53917  -0.53684  -0.52710  -0.52636  -0.52026
 Alpha  occ. eigenvalues --   -0.51950  -0.51600  -0.51438  -0.51118  -0.50779
 Alpha  occ. eigenvalues --   -0.50497  -0.49907  -0.49637  -0.49525  -0.49272
 Alpha  occ. eigenvalues --   -0.49042  -0.48894  -0.48338  -0.48076  -0.47655
 Alpha  occ. eigenvalues --   -0.47575  -0.47229  -0.47124  -0.46969  -0.46725
 Alpha  occ. eigenvalues --   -0.46432  -0.46418  -0.46123  -0.46016  -0.45703
 Alpha  occ. eigenvalues --   -0.45639  -0.45453  -0.45371  -0.44955  -0.44878
 Alpha  occ. eigenvalues --   -0.44793  -0.44551  -0.44493  -0.43955  -0.43917
 Alpha  occ. eigenvalues --   -0.43462  -0.43334  -0.43071  -0.42761  -0.42627
 Alpha  occ. eigenvalues --   -0.42380  -0.42176  -0.42108  -0.41981  -0.41840
 Alpha  occ. eigenvalues --   -0.41551  -0.41362  -0.41311  -0.41081  -0.40679
 Alpha  occ. eigenvalues --   -0.40539  -0.40355  -0.40045  -0.40023  -0.39657
 Alpha  occ. eigenvalues --   -0.39419  -0.39403  -0.39144  -0.39054  -0.39046
 Alpha  occ. eigenvalues --   -0.38849  -0.38814  -0.38654  -0.38420  -0.38274
 Alpha  occ. eigenvalues --   -0.37955  -0.37865  -0.37528  -0.37353  -0.37011
 Alpha  occ. eigenvalues --   -0.36462  -0.35961  -0.35754  -0.35728  -0.35602
 Alpha  occ. eigenvalues --   -0.35497  -0.34901  -0.34783  -0.34364  -0.34125
 Alpha  occ. eigenvalues --   -0.33992  -0.33785  -0.33555  -0.33343  -0.33230
 Alpha  occ. eigenvalues --   -0.32975  -0.32296  -0.32025  -0.32004  -0.31654
 Alpha  occ. eigenvalues --   -0.31444  -0.30867  -0.30833  -0.30378  -0.29984
 Alpha  occ. eigenvalues --   -0.28991  -0.28442  -0.28044  -0.27647  -0.27270
 Alpha  occ. eigenvalues --   -0.27172  -0.26916  -0.23072  -0.21232
 Alpha virt. eigenvalues --   -0.08190  -0.06670  -0.02789  -0.00531   0.00373
 Alpha virt. eigenvalues --    0.01958   0.03573   0.03831   0.04314   0.04606
 Alpha virt. eigenvalues --    0.04857   0.06154   0.07587   0.07989   0.08032

 Mulliken charges:
               1
     1  Mg   0.815948
     2  C    0.121945
     3  C   -0.184380
     4  C   -0.110034
     5  C   -0.175253
     6  N   -0.592101
     7  C    0.282172
     8  C   -0.157758
     9  C   -0.156607
    10  C    0.336228
    11  C   -0.310073
    12  C   -0.147427
    13  C   -0.258242
    14  C    0.596479
    15  O   -0.451566
    16  O   -0.453371
    17  N   -0.693698
    18  C    0.295922
    19  C    0.104692
    20  C   -0.059089
    21  C    0.280798
    22  C   -0.434363
    23  C    0.245324
    24  O   -0.396038
    25  N   -0.697506
    26  C    0.258334
    27  C    0.046360
    28  C    0.031692
    29  C    0.324668
    30  C    0.224051
    31  C   -0.264575
    32  C   -0.288154
    33  N   -0.761617
    34  C    0.391271
    35  C   -0.010120
    36  C    0.067639
    37  C    0.210764
    38  C   -0.372601
    39  C    0.352091
    40  O   -0.487717
    41  C   -0.347379
    42  C    0.631468
    43  O   -0.514131
    44  O   -0.428317
    45  C   -0.109925
    46  C    0.010132
    47  C   -0.163398
    48  C    0.182824
    49  C   -0.382604
    50  C   -0.225723
    51  C   -0.192399
    52  C   -0.148048
    53  C   -0.049101
    54  C   -0.310934
    55  C   -0.141590
    56  C   -0.166256
    57  C   -0.163794
    58  C   -0.071195
    59  C   -0.304546
    60  C   -0.149818
    61  C   -0.181856
    62  C   -0.163981
    63  C   -0.028848
    64  C   -0.300310
    65  C   -0.313498
    66  H    0.069017
    67  H    0.088927
    68  H    0.077696
    69  H    0.135576
    70  H    0.091017
    71  H    0.123190
    72  H    0.101539
    73  H    0.133328
    74  H    0.113776
    75  H    0.119660
    76  H    0.137734
    77  H    0.133848
    78  H    0.129019
    79  H    0.148663
    80  H    0.135968
    81  H    0.081014
    82  H    0.104717
    83  H    0.089247
    84  H    0.127123
    85  H    0.117274
    86  H    0.081207
    87  H    0.114400
    88  H    0.151302
    89  H    0.111598
    90  H    0.151937
    91  H    0.116263
    92  H    0.108945
    93  H    0.074125
    94  H    0.145321
    95  H    0.096279
    96  H    0.104290
    97  H    0.118449
    98  H    0.102952
    99  H    0.078677
   100  H    0.087064
   101  H    0.094824
   102  H    0.076449
   103  H    0.064990
   104  H    0.068086
   105  H    0.102595
   106  H    0.103874
   107  H    0.092401
   108  H    0.078161
   109  H    0.059775
   110  H    0.070143
   111  H    0.065977
   112  H    0.062677
   113  H    0.086501
   114  H    0.092038
   115  H    0.114615
   116  H    0.113250
   117  H    0.076899
   118  H    0.093907
   119  H    0.080667
   120  H    0.106527
   121  H    0.100101
   122  H    0.061400
   123  H    0.102552
   124  H    0.052394
   125  H    0.094713
   126  H    0.098917
   127  H    0.082446
   128  H    0.101021
   129  H    0.106250
   130  H    0.145824
   131  H    0.159914
   132  H    0.158561
   133  O   -0.410109
   134  H    0.049658
 Sum of Mulliken charges =   0.00000

 Dipole moment (field-independent basis, Debye):
    X=              2.1506    Y=             -5.2352    Z=             -0.1951  Tot=              5.6631
 Quadrupole moment (field-independent basis, Debye-Ang):
   XX=           -386.3518   YY=           -428.2556   ZZ=           -397.8926
   XY=             16.0345   XZ=             18.3382   YZ=            -41.7218

 Normal termination of Gaussian 09 at Wed Oct  9 00:01:47 2019.
