 Gaussian 09, Revision D.01,
 Gaussian 09:  ES64L-G09RevD.01 24-Apr-2013

 ----------------------------------------------------------------------
 # td=(NStates=1) iop(3/107=0140000000,3/108=0140000000) iop(3/107=0140
 000000,3/108=0140000000) CAM-B3LYP/6-31G(d,p)
 ----------------------------------------------------------------------

 --
 TD
 --
 Symbolic Z-matrix:
 Charge =  0 Multiplicity = 1

                         Standard orientation:
 ---------------------------------------------------------------------
 Center     Atomic      Atomic             Coordinates (Angstroms)
 Number     Number       Type             X           Y           Z
 ---------------------------------------------------------------------
      1         12           0       -5.650556    1.254848    0.220943
      2          6           0       -4.974587   -2.068445   -0.423266
      3          6           0       -3.380370    1.203370    2.733761
      4          6           0       -6.225661    4.560170    0.645033
      5          6           0       -7.866817    1.256864   -2.502794
      6          7           0       -4.352491   -0.278143    1.033635
      7          6           0       -4.182375   -1.596282    0.670243
      8          6           0       -3.201446   -2.380541    1.533335
      9          6           0       -2.890600   -1.364568    2.687044
     10          6           0       -3.530242   -0.114727    2.158250
     11          6           0       -3.431358   -1.846958    4.062451
     12          6           0       -2.010165   -2.747486    0.664056
     13          6           0       -1.029012   -3.583648    1.498697
     14          6           0        0.209977   -3.938396    0.574571
     15          8           0        0.440803   -3.471208   -0.505575
     16          8           0        1.057854   -4.778801    1.316464
     17          7           0       -4.917485    2.595305    1.423121
     18          6           0       -4.057591    2.444314    2.444161
     19          6           0       -3.702168    3.625592    3.165327
     20          6           0       -4.439684    4.605080    2.452702
     21          6           0       -5.251365    3.977699    1.383458
     22          6           0       -2.786184    3.778448    4.367017
     23          6           0       -4.674306    6.020693    2.961502
     24          8           0       -3.924208    6.574498    3.661449
     25          7           0       -6.901213    2.578485   -0.658746
     26          6           0       -6.974197    3.928059   -0.396894
     27          6           0       -8.106685    4.609484   -1.145966
     28          6           0       -8.559824    3.640501   -1.979179
     29          6           0       -7.790658    2.379948   -1.714514
     30          6           0       -8.366733    5.970914   -0.977763
     31          6           0       -9.537976    3.754112   -3.079649
     32          6           0       -8.807317    3.926499   -4.411066
     33          7           0       -6.405911   -0.113459   -1.123950
     34          6           0       -7.311226    0.002342   -2.153622
     35          6           0       -7.413319   -1.193294   -2.899171
     36          6           0       -6.619212   -2.095659   -2.105112
     37          6           0       -5.934563   -1.297260   -1.124789
     38          6           0       -8.457979   -1.578015   -3.932143
     39          6           0       -6.160010   -3.534240   -2.091607
     40          8           0       -6.569821   -4.416186   -2.756673
     41          6           0       -5.007594   -3.470797   -0.969984
     42          6           0       -5.328799   -4.556407    0.052005
     43          8           0       -5.738947   -4.319845    1.212888
     44          8           0       -4.999375   -5.823849   -0.331372
     45          6           0       -5.449139   -6.954929    0.442283
     46          6           0        2.297351   -5.168851    0.740870
     47          6           0        3.353592   -4.226216    0.991414
     48          6           0        4.182441   -3.459585    0.212474
     49          6           0        3.870158   -3.233402   -1.212903
     50          6           0        5.184092   -2.582831    0.823677
     51          6           0        6.575321   -2.788751    0.087048
     52          6           0        7.671721   -1.767794    0.621680
     53          6           0        8.990775   -2.033435   -0.023288
     54          6           0        9.545107   -3.503464    0.254113
     55          6           0       10.058509   -0.867848    0.343755
     56          6           0       11.447569   -0.818508   -0.330246
     57          6           0       12.237852    0.273380    0.169624
     58          6           0       13.655345    0.442496   -0.639158
     59          6           0       14.504083   -0.818706   -0.456772
     60          6           0       14.335070    1.842246   -0.230188
     61          6           0       15.519119    2.234083   -1.040744
     62          6           0       16.020718    3.545151   -0.523705
     63          6           0       17.298533    4.092048   -1.326825
     64          6           0       16.930648    4.144268   -2.920155
     65          6           0       17.594809    5.469163   -0.752547
     66          1           0       -2.766127    1.371069    3.591267
     67          1           0       -6.339547    5.559252    0.936156
     68          1           0       -8.583941    1.189030   -3.154704
     69          1           0       -3.934978   -3.183996    1.957365
     70          1           0       -1.807537   -1.219956    2.714744
     71          1           0       -3.022261   -2.723891    4.441190
     72          1           0       -3.231059   -1.097208    4.845079
     73          1           0       -4.540874   -2.092292    3.844729
     74          1           0       -2.411380   -3.346500   -0.198120
     75          1           0       -1.384950   -1.810092    0.486560
     76          1           0       -0.580085   -3.044846    2.343555
     77          1           0       -1.331721   -4.661952    1.845331
     78          1           0       -1.883343    3.523048    4.008201
     79          1           0       -2.879412    4.605366    4.698363
     80          1           0       -3.053854    2.928804    5.082901
     81          1           0       -5.600700    6.618966    2.528951
     82          1           0      -10.218642    2.696255   -3.082781
     83          1           0      -10.061295    4.665331   -2.863872
     84          1           0       -9.531892    4.026977   -5.369063
     85          1           0       -8.258495    4.922884   -4.380310
     86          1           0       -8.078785    3.086411   -4.760250
     87          1           0       -8.264782   -1.171905   -4.950465
     88          1           0       -8.209034   -2.526919   -4.168399
     89          1           0       -9.507695   -1.239216   -3.436590
     90          1           0       -4.097002   -3.601493   -1.643329
     91          1           0        2.411502   -6.336353    0.986709
     92          1           0        2.307324   -5.324414   -0.468638
     93          1           0        3.655335   -4.294011    2.040370
     94          1           0        2.836986   -3.500881   -1.779968
     95          1           0        4.028179   -2.277324   -1.447496
     96          1           0        4.530249   -3.703295   -1.999309
     97          1           0        5.002712   -1.425491    0.466735
     98          1           0        5.340993   -3.019711    1.915257
     99          1           0        6.930251   -3.824076    0.164147
    100          1           0        6.262092   -2.414585   -0.935423
    101          1           0        7.199200   -0.676324    0.380769
    102          1           0        7.722572   -1.844086    1.808908
    103          1           0        8.851534   -2.104436   -1.149482
    104          1           0        8.803641   -4.202172   -0.190209
    105          1           0       10.471031   -3.499358   -0.305059
    106          1           0        9.752133   -3.606036    1.297542
    107          1           0        9.359963   -0.021274    0.228912
    108          1           0       10.124777   -0.868272    1.579528
    109          1           0       11.957124   -1.873735   -0.237241
    110          1           0       11.321408   -0.683052   -1.514775
    111          1           0       11.577569    1.187851   -0.041254
    112          1           0       12.398808    0.139077    1.435530
    113          1           0       13.333842    0.743966   -1.754786
    114          1           0       14.857185   -0.855563    0.637849
    115          1           0       13.872723   -1.694949   -0.648297
    116          1           0       15.354143   -0.854421   -1.086118
    117          1           0       13.508577    2.451936   -0.446368
    118          1           0       14.701437    1.681247    0.718054
    119          1           0       16.239659    1.434851   -0.780579
    120          1           0       15.264625    2.116596   -2.106285
    121          1           0       15.202775    4.363089   -0.607309
    122          1           0       16.090307    3.481480    0.504554
    123          1           0       18.121968    3.376236   -1.036169
    124          1           0       16.128034    4.868050   -3.238571
    125          1           0       17.662814    4.621892   -3.534543
    126          1           0       16.803406    3.168565   -3.411449
    127          1           0       17.731684    5.426989    0.269920
    128          1           0       18.636045    5.777460   -1.078123
    129          1           0       16.770742    6.262031   -1.192393
    130          1           0       -5.209306   -7.927191   -0.122826
    131          1           0       -6.526092   -6.888376    0.672149
    132          1           0       -5.026139   -7.071566    1.456215
    133          8           0       -7.742780    6.791262   -0.191189
    134          1           0       -9.268016    6.420769   -1.643670
 ---------------------------------------------------------------------

 SCF Done:  E(RCAM-B3LYP) =  -3043.46919132     A.U. after   16 cycles

 Excitation energies and oscillator strengths:

 Excited State   1:      Singlet-A      2.0112 eV  616.48 nm  f=0.1578  <S**2>=0.000
     243 -> 245       -0.13513
     243 -> 246       -0.27467
     244 -> 245        0.62413
 This state for optimization and/or second-order correction.
 Total Energy, E(TD-HF/TD-KS) =  -3043.39528204
 Copying the excited state density for this state as the 1-particle RhoCI density.

 The electronic state is 1-A.
 Alpha  occ. eigenvalues --  -46.80824 -19.23258 -19.21959 -19.18242 -19.17901
 Alpha  occ. eigenvalues --  -19.17407 -19.17406 -19.16889 -14.39173 -14.37626
 Alpha  occ. eigenvalues --  -14.36270 -14.35626 -10.36292 -10.35305 -10.31688
 Alpha  occ. eigenvalues --  -10.31313 -10.30606 -10.28544 -10.28368 -10.28199
 Alpha  occ. eigenvalues --  -10.27388 -10.27188 -10.26448 -10.26080 -10.25978
 Alpha  occ. eigenvalues --  -10.25949 -10.25236 -10.25142 -10.25076 -10.24845
 Alpha  occ. eigenvalues --  -10.24761 -10.24734 -10.24582 -10.24488 -10.24312
 Alpha  occ. eigenvalues --  -10.24242 -10.24175 -10.23986 -10.23821 -10.23649
 Alpha  occ. eigenvalues --  -10.23462 -10.23398 -10.23140 -10.23025 -10.22943
 Alpha  occ. eigenvalues --  -10.22911 -10.22816 -10.22762 -10.22704 -10.22693
 Alpha  occ. eigenvalues --  -10.22605 -10.22485 -10.22397 -10.22224 -10.22208
 Alpha  occ. eigenvalues --  -10.21442 -10.21151 -10.20922 -10.20862 -10.20683
 Alpha  occ. eigenvalues --  -10.20589 -10.20543 -10.20156 -10.20147 -10.19617
 Alpha  occ. eigenvalues --  -10.18838  -3.09576  -1.84499  -1.84079  -1.83973
 Alpha  occ. eigenvalues --   -1.12621  -1.12311  -1.09860  -1.09538  -1.05601
 Alpha  occ. eigenvalues --   -1.03420  -1.02653  -1.01339  -0.99306  -0.98889
 Alpha  occ. eigenvalues --   -0.98126  -0.87881  -0.86376  -0.86239  -0.85868
 Alpha  occ. eigenvalues --   -0.84901  -0.84611  -0.83761  -0.83692  -0.82824
 Alpha  occ. eigenvalues --   -0.82753  -0.82105  -0.81307  -0.79943  -0.79425
 Alpha  occ. eigenvalues --   -0.79084  -0.78270  -0.77206  -0.76676  -0.76194
 Alpha  occ. eigenvalues --   -0.75372  -0.74941  -0.73976  -0.73150  -0.72508
 Alpha  occ. eigenvalues --   -0.71265  -0.70975  -0.70274  -0.70078  -0.69924
 Alpha  occ. eigenvalues --   -0.69142  -0.68548  -0.67451  -0.66193  -0.65805
 Alpha  occ. eigenvalues --   -0.64937  -0.63732  -0.63690  -0.62174  -0.61436
 Alpha  occ. eigenvalues --   -0.61193  -0.60837  -0.59491  -0.59021  -0.58778
 Alpha  occ. eigenvalues --   -0.57665  -0.57247  -0.56883  -0.56524  -0.56409
 Alpha  occ. eigenvalues --   -0.56147  -0.55873  -0.55306  -0.54969  -0.54705
 Alpha  occ. eigenvalues --   -0.54092  -0.52953  -0.52453  -0.51978  -0.51707
 Alpha  occ. eigenvalues --   -0.51671  -0.51307  -0.51068  -0.50939  -0.50612
 Alpha  occ. eigenvalues --   -0.50217  -0.49893  -0.49419  -0.49367  -0.49222
 Alpha  occ. eigenvalues --   -0.48835  -0.48601  -0.48227  -0.48086  -0.47674
 Alpha  occ. eigenvalues --   -0.47459  -0.47316  -0.47021  -0.47013  -0.46743
 Alpha  occ. eigenvalues --   -0.46364  -0.46278  -0.46037  -0.45897  -0.45836
 Alpha  occ. eigenvalues --   -0.45724  -0.45253  -0.45083  -0.44679  -0.44382
 Alpha  occ. eigenvalues --   -0.44322  -0.44192  -0.44174  -0.44019  -0.43685
 Alpha  occ. eigenvalues --   -0.43581  -0.43203  -0.43118  -0.42983  -0.42872
 Alpha  occ. eigenvalues --   -0.42651  -0.42530  -0.42354  -0.42136  -0.42074
 Alpha  occ. eigenvalues --   -0.41722  -0.41367  -0.41133  -0.41052  -0.40907
 Alpha  occ. eigenvalues --   -0.40870  -0.40708  -0.40469  -0.40141  -0.39971
 Alpha  occ. eigenvalues --   -0.39854  -0.39647  -0.39531  -0.39035  -0.38920
 Alpha  occ. eigenvalues --   -0.38828  -0.38694  -0.38574  -0.38410  -0.38127
 Alpha  occ. eigenvalues --   -0.38003  -0.37783  -0.37427  -0.37342  -0.36924
 Alpha  occ. eigenvalues --   -0.36632  -0.36569  -0.36440  -0.36166  -0.35784
 Alpha  occ. eigenvalues --   -0.35482  -0.35235  -0.34872  -0.34727  -0.34514
 Alpha  occ. eigenvalues --   -0.34435  -0.34300  -0.33937  -0.33330  -0.33066
 Alpha  occ. eigenvalues --   -0.32925  -0.32519  -0.32119  -0.32060  -0.31421
 Alpha  occ. eigenvalues --   -0.31138  -0.30841  -0.30605  -0.29835  -0.29325
 Alpha  occ. eigenvalues --   -0.29067  -0.27873  -0.27738  -0.27612  -0.27417
 Alpha  occ. eigenvalues --   -0.27140  -0.26648  -0.22499  -0.21132
 Alpha virt. eigenvalues --   -0.08175  -0.06607  -0.01605  -0.00572   0.00870
 Alpha virt. eigenvalues --    0.01930   0.02149   0.03665   0.03818   0.04403
 Alpha virt. eigenvalues --    0.05058   0.06041   0.07972   0.08318   0.08803

 Mulliken charges:
               1
     1  Mg   0.828970
     2  C    0.052938
     3  C   -0.196543
     4  C   -0.134126
     5  C   -0.105592
     6  N   -0.598017
     7  C    0.311839
     8  C   -0.161664
     9  C   -0.149976
    10  C    0.330729
    11  C   -0.307524
    12  C   -0.157110
    13  C   -0.270051
    14  C    0.588989
    15  O   -0.431932
    16  O   -0.469990
    17  N   -0.736134
    18  C    0.322148
    19  C    0.025300
    20  C   -0.094310
    21  C    0.305489
    22  C   -0.301786
    23  C    0.239450
    24  O   -0.374941
    25  N   -0.664692
    26  C    0.248398
    27  C    0.083150
    28  C    0.013908
    29  C    0.291955
    30  C    0.195746
    31  C   -0.235908
    32  C   -0.301503
    33  N   -0.727456
    34  C    0.232347
    35  C   -0.006611
    36  C   -0.055414
    37  C    0.382905
    38  C   -0.360756
    39  C    0.364525
    40  O   -0.419805
    41  C   -0.353473
    42  C    0.629113
    43  O   -0.487978
    44  O   -0.444771
    45  C   -0.091036
    46  C   -0.009323
    47  C   -0.120333
    48  C    0.197385
    49  C   -0.393065
    50  C   -0.245974
    51  C   -0.189836
    52  C   -0.148269
    53  C   -0.063201
    54  C   -0.314620
    55  C   -0.165334
    56  C   -0.156461
    57  C   -0.142457
    58  C   -0.074285
    59  C   -0.313901
    60  C   -0.161452
    61  C   -0.172170
    62  C   -0.151672
    63  C   -0.051084
    64  C   -0.328744
    65  C   -0.293941
    66  H    0.058159
    67  H    0.123738
    68  H    0.066061
    69  H    0.148247
    70  H    0.107405
    71  H    0.127893
    72  H    0.111255
    73  H    0.119393
    74  H    0.122255
    75  H    0.127932
    76  H    0.142271
    77  H    0.129032
    78  H    0.144423
    79  H    0.129332
    80  H    0.111442
    81  H    0.072650
    82  H    0.093167
    83  H    0.117249
    84  H    0.092484
    85  H    0.115023
    86  H    0.115247
    87  H    0.116480
    88  H    0.154106
    89  H    0.121140
    90  H    0.169111
    91  H    0.104460
    92  H    0.088847
    93  H    0.068971
    94  H    0.129953
    95  H    0.121468
    96  H    0.109656
    97  H    0.097147
    98  H    0.093735
    99  H    0.105908
   100  H    0.095825
   101  H    0.064781
   102  H    0.075548
   103  H    0.076959
   104  H    0.100184
   105  H    0.106015
   106  H    0.107202
   107  H    0.094351
   108  H    0.056323
   109  H    0.086284
   110  H    0.078074
   111  H    0.087220
   112  H    0.053592
   113  H    0.056928
   114  H    0.093868
   115  H    0.105018
   116  H    0.112538
   117  H    0.094239
   118  H    0.092408
   119  H    0.081811
   120  H    0.087482
   121  H    0.069526
   122  H    0.093047
   123  H    0.084230
   124  H    0.097442
   125  H    0.102257
   126  H    0.108423
   127  H    0.112506
   128  H    0.087422
   129  H    0.084388
   130  H    0.126332
   131  H    0.135383
   132  H    0.126134
   133  O   -0.455970
   134  H    0.056523
 Sum of Mulliken charges =   0.00000

 Dipole moment (field-independent basis, Debye):
    X=              2.4706    Y=             -4.9094    Z=             -0.5867  Tot=              5.5272
 Quadrupole moment (field-independent basis, Debye-Ang):
   XX=           -371.9072   YY=           -437.4792   ZZ=           -388.2106
   XY=              9.5643   XZ=             15.2473   YZ=            -29.8115

 Normal termination of Gaussian 09 at Mon Oct  7 13:03:40 2019.
