 Gaussian 09, Revision D.01,
 Gaussian 09:  ES64L-G09RevD.01 24-Apr-2013

 ----------------------------------------------------------------------
 # td=(NStates=1) iop(3/107=0140000000,3/108=0140000000) iop(3/107=0140
 000000,3/108=0140000000) CAM-B3LYP/6-31G(d,p)
 ----------------------------------------------------------------------

 --
 TD
 --
 Symbolic Z-matrix:
 Charge =  0 Multiplicity = 1

                         Standard orientation:
 ---------------------------------------------------------------------
 Center     Atomic      Atomic             Coordinates (Angstroms)
 Number     Number       Type             X           Y           Z
 ---------------------------------------------------------------------
      1         12           0       -5.785244    1.160211    0.230193
      2          6           0       -5.034015   -2.130113   -0.317549
      3          6           0       -3.491205    1.174263    2.749875
      4          6           0       -6.296119    4.616919    0.633816
      5          6           0       -8.075132    1.104151   -2.304437
      6          7           0       -4.444022   -0.208194    1.085430
      7          6           0       -4.320620   -1.561692    0.731369
      8          6           0       -3.179814   -2.312716    1.568927
      9          6           0       -2.908417   -1.223091    2.680968
     10          6           0       -3.674684    0.008811    2.178500
     11          6           0       -3.444378   -1.578523    3.991395
     12          6           0       -2.014623   -2.668021    0.697062
     13          6           0       -0.923765   -3.520182    1.479848
     14          6           0        0.368539   -3.864538    0.708930
     15          8           0        0.523752   -3.372015   -0.365249
     16          8           0        1.201611   -4.612675    1.351452
     17          7           0       -4.963835    2.590098    1.417830
     18          6           0       -4.057733    2.496754    2.484376
     19          6           0       -3.748360    3.777421    3.013592
     20          6           0       -4.634175    4.665042    2.568743
     21          6           0       -5.298526    3.950748    1.421351
     22          6           0       -2.798975    3.865797    4.172942
     23          6           0       -4.638807    6.107763    2.799488
     24          8           0       -4.071767    6.760685    3.618846
     25          7           0       -6.929410    2.527174   -0.698042
     26          6           0       -7.035994    3.886939   -0.386186
     27          6           0       -8.006988    4.504591   -1.258199
     28          6           0       -8.611768    3.516406   -2.028113
     29          6           0       -7.861807    2.346557   -1.720499
     30          6           0       -8.547453    5.951398   -1.286920
     31          6           0       -9.607757    3.706369   -3.228438
     32          6           0       -8.825784    3.738292   -4.532869
     33          7           0       -6.483627   -0.195671   -0.989858
     34          6           0       -7.486195   -0.106371   -2.031158
     35          6           0       -7.666236   -1.456262   -2.622372
     36          6           0       -6.772477   -2.218154   -1.940121
     37          6           0       -6.074674   -1.471164   -0.993623
     38          6           0       -8.638362   -1.715796   -3.759146
     39          6           0       -6.179973   -3.578145   -1.966171
     40          8           0       -6.395890   -4.581118   -2.556620
     41          6           0       -5.052331   -3.550192   -0.846564
     42          6           0       -5.181963   -4.614180    0.107924
     43          8           0       -5.652768   -4.557545    1.204354
     44          8           0       -4.991862   -5.933319   -0.485585
     45          6           0       -5.235894   -7.013534    0.390159
     46          6           0        2.413715   -4.985158    0.673758
     47          6           0        3.461717   -4.077685    0.977110
     48          6           0        3.994167   -3.209130    0.139398
     49          6           0        3.647595   -3.007916   -1.323853
     50          6           0        5.084753   -2.267084    0.642558
     51          6           0        6.478809   -2.548833   -0.040910
     52          6           0        7.667941   -1.716415    0.535226
     53          6           0        9.038362   -1.900740   -0.091520
     54          6           0        9.611964   -3.364968    0.169397
     55          6           0        9.996787   -0.793422    0.394791
     56          6           0       11.406338   -0.712238   -0.284222
     57          6           0       12.301815    0.301404    0.286473
     58          6           0       13.710090    0.378565   -0.501512
     59          6           0       14.611018   -0.844931   -0.206925
     60          6           0       14.369992    1.817043   -0.111163
     61          6           0       15.600876    2.130238   -1.116164
     62          6           0       16.169344    3.463319   -0.750504
     63          6           0       17.567970    3.792429   -1.408716
     64          6           0       17.347040    3.991091   -2.904827
     65          6           0       18.071519    5.050981   -0.817664
     66          1           0       -2.682913    1.082837    3.567666
     67          1           0       -6.418126    5.706871    0.769181
     68          1           0       -8.803769    0.846834   -3.042379
     69          1           0       -3.533081   -3.178704    1.862214
     70          1           0       -1.842874   -1.002139    2.803021
     71          1           0       -2.991480   -2.456855    4.234479
     72          1           0       -3.415086   -0.775327    4.867326
     73          1           0       -4.543160   -1.869170    3.972254
     74          1           0       -2.150284   -3.363867    0.055551
     75          1           0       -1.415631   -1.811487    0.264743
     76          1           0       -0.467752   -3.143496    2.546896
     77          1           0       -1.452685   -4.496114    1.870467
     78          1           0       -1.965012    3.366818    3.963789
     79          1           0       -2.302458    4.872478    4.526450
     80          1           0       -3.381813    3.263368    4.971416
     81          1           0       -5.218683    6.720107    1.940941
     82          1           0      -10.327004    3.095597   -3.144657
     83          1           0      -10.305334    4.597515   -3.182909
     84          1           0       -9.500281    3.872194   -5.381896
     85          1           0       -8.257498    4.715316   -4.389032
     86          1           0       -8.260794    2.785567   -4.724204
     87          1           0       -8.676164   -0.932714   -4.542292
     88          1           0       -8.686238   -2.634214   -4.008260
     89          1           0       -9.622906   -1.709292   -3.399140
     90          1           0       -4.030338   -3.871330   -1.396274
     91          1           0        2.777268   -5.849786    1.244285
     92          1           0        2.241569   -5.256931   -0.298572
     93          1           0        3.969246   -3.994062    1.972363
     94          1           0        2.720210   -3.406470   -1.260294
     95          1           0        3.571545   -1.890654   -1.711606
     96          1           0        4.323944   -3.436384   -2.152998
     97          1           0        4.794169   -1.128023    0.364252
     98          1           0        5.301095   -2.443234    1.801439
     99          1           0        6.652177   -3.574455    0.115100
    100          1           0        6.446786   -2.448869   -1.072380
    101          1           0        7.336732   -0.720293    0.573236
    102          1           0        7.870736   -1.826144    1.479125
    103          1           0        8.941098   -1.676867   -1.185355
    104          1           0        8.939475   -4.118923   -0.115585
    105          1           0       10.634162   -3.461016   -0.129326
    106          1           0        9.422001   -3.476735    1.312728
    107          1           0        9.531132    0.118895    0.339679
    108          1           0       10.087149   -0.760899    1.555756
    109          1           0       11.914635   -1.723480   -0.306016
    110          1           0       11.419467   -0.504905   -1.480963
    111          1           0       11.946105    1.334333    0.139814
    112          1           0       12.626027   -0.041667    1.359890
    113          1           0       13.501941    0.501056   -1.620260
    114          1           0       14.949880   -0.839720    0.688757
    115          1           0       14.090712   -1.790213   -0.861127
    116          1           0       15.503099   -0.633277   -0.776636
    117          1           0       13.566716    2.554495   -0.099122
    118          1           0       14.845728    1.728540    1.045843
    119          1           0       16.318425    1.277681   -0.974247
    120          1           0       15.286258    1.959088   -2.228325
    121          1           0       15.455667    4.153115   -1.098927
    122          1           0       16.199692    3.537444    0.366746
    123          1           0       18.306857    3.033458   -0.922927
    124          1           0       16.594675    4.795231   -3.306026
    125          1           0       18.279939    4.095881   -3.325559
    126          1           0       16.944066    3.243070   -3.488156
    127          1           0       18.400341    4.933588    0.336710
    128          1           0       19.093533    5.333069   -1.181455
    129          1           0       17.607838    6.092198   -0.858907
    130          1           0       -4.580870   -8.006803   -0.137816
    131          1           0       -6.278470   -7.259617    0.536427
    132          1           0       -4.640950   -6.746846    1.378437
    133          8           0       -8.085279    6.722202   -0.524340
    134          1           0       -9.285706    6.325672   -1.941849
 ---------------------------------------------------------------------

 SCF Done:  E(RCAM-B3LYP) =  -3043.42366155     A.U. after   15 cycles

 Excitation energies and oscillator strengths:

 Excited State   1:      Singlet-A      2.0943 eV  592.00 nm  f=0.1713  <S**2>=0.000
     243 -> 246        0.28741
     244 -> 245        0.63946
 This state for optimization and/or second-order correction.
 Total Energy, E(TD-HF/TD-KS) =  -3043.34669642
 Copying the excited state density for this state as the 1-particle RhoCI density.

 The electronic state is 1-A.
 Alpha  occ. eigenvalues --  -46.79983 -19.23163 -19.20284 -19.17888 -19.17848
 Alpha  occ. eigenvalues --  -19.17421 -19.17113 -19.16475 -14.38440 -14.37544
 Alpha  occ. eigenvalues --  -14.37132 -14.36129 -10.34772 -10.34696 -10.32036
 Alpha  occ. eigenvalues --  -10.30800 -10.30245 -10.28172 -10.27978 -10.27391
 Alpha  occ. eigenvalues --  -10.27380 -10.26954 -10.26794 -10.26122 -10.26121
 Alpha  occ. eigenvalues --  -10.26094 -10.25955 -10.25568 -10.25482 -10.25203
 Alpha  occ. eigenvalues --  -10.24575 -10.24162 -10.23978 -10.23933 -10.23887
 Alpha  occ. eigenvalues --  -10.23709 -10.23685 -10.23382 -10.23068 -10.23041
 Alpha  occ. eigenvalues --  -10.22809 -10.22807 -10.22790 -10.22653 -10.22613
 Alpha  occ. eigenvalues --  -10.22580 -10.22552 -10.22277 -10.22199 -10.22193
 Alpha  occ. eigenvalues --  -10.22012 -10.21803 -10.21770 -10.21705 -10.21561
 Alpha  occ. eigenvalues --  -10.21184 -10.21105 -10.21000 -10.20952 -10.20616
 Alpha  occ. eigenvalues --  -10.20338 -10.20335 -10.20316 -10.19832 -10.19756
 Alpha  occ. eigenvalues --  -10.18788  -3.08884  -1.83795  -1.83374  -1.83310
 Alpha  occ. eigenvalues --   -1.16026  -1.12080  -1.09393  -1.09355  -1.08216
 Alpha  occ. eigenvalues --   -1.06250  -1.03939  -0.99935  -0.99066  -0.98631
 Alpha  occ. eigenvalues --   -0.97837  -0.88684  -0.86949  -0.86136  -0.84977
 Alpha  occ. eigenvalues --   -0.84713  -0.84601  -0.84249  -0.84154  -0.83850
 Alpha  occ. eigenvalues --   -0.83243  -0.82684  -0.81619  -0.80685  -0.79412
 Alpha  occ. eigenvalues --   -0.78741  -0.78531  -0.78032  -0.76872  -0.76533
 Alpha  occ. eigenvalues --   -0.76038  -0.75281  -0.74315  -0.72713  -0.71608
 Alpha  occ. eigenvalues --   -0.71464  -0.70997  -0.70747  -0.70092  -0.69660
 Alpha  occ. eigenvalues --   -0.68865  -0.68612  -0.67402  -0.67147  -0.66316
 Alpha  occ. eigenvalues --   -0.65820  -0.64096  -0.63609  -0.62930  -0.62396
 Alpha  occ. eigenvalues --   -0.62118  -0.60224  -0.60061  -0.59786  -0.58946
 Alpha  occ. eigenvalues --   -0.58914  -0.58666  -0.57368  -0.57281  -0.56785
 Alpha  occ. eigenvalues --   -0.56633  -0.56183  -0.55719  -0.55357  -0.54826
 Alpha  occ. eigenvalues --   -0.53782  -0.53446  -0.53087  -0.52708  -0.52567
 Alpha  occ. eigenvalues --   -0.51886  -0.51671  -0.51302  -0.50967  -0.50188
 Alpha  occ. eigenvalues --   -0.49890  -0.49824  -0.49511  -0.49313  -0.49223
 Alpha  occ. eigenvalues --   -0.49088  -0.48247  -0.48150  -0.47951  -0.47809
 Alpha  occ. eigenvalues --   -0.47600  -0.47568  -0.47435  -0.47361  -0.47203
 Alpha  occ. eigenvalues --   -0.46797  -0.46393  -0.46356  -0.46219  -0.46018
 Alpha  occ. eigenvalues --   -0.45769  -0.45601  -0.45379  -0.45225  -0.44830
 Alpha  occ. eigenvalues --   -0.44581  -0.44295  -0.44205  -0.43947  -0.43840
 Alpha  occ. eigenvalues --   -0.43387  -0.43232  -0.43095  -0.42988  -0.42749
 Alpha  occ. eigenvalues --   -0.42420  -0.42341  -0.41973  -0.41874  -0.41762
 Alpha  occ. eigenvalues --   -0.41695  -0.41622  -0.41475  -0.41433  -0.41395
 Alpha  occ. eigenvalues --   -0.40877  -0.40638  -0.40402  -0.40240  -0.39965
 Alpha  occ. eigenvalues --   -0.39806  -0.39629  -0.39614  -0.39299  -0.39081
 Alpha  occ. eigenvalues --   -0.38974  -0.38595  -0.38380  -0.38120  -0.37940
 Alpha  occ. eigenvalues --   -0.37816  -0.37675  -0.37530  -0.36853  -0.36690
 Alpha  occ. eigenvalues --   -0.36226  -0.36039  -0.35855  -0.35768  -0.35626
 Alpha  occ. eigenvalues --   -0.35418  -0.35341  -0.35112  -0.35065  -0.34933
 Alpha  occ. eigenvalues --   -0.34401  -0.34244  -0.33988  -0.33527  -0.33320
 Alpha  occ. eigenvalues --   -0.32906  -0.32477  -0.32310  -0.31932  -0.31833
 Alpha  occ. eigenvalues --   -0.31161  -0.30801  -0.30337  -0.30083  -0.29415
 Alpha  occ. eigenvalues --   -0.29304  -0.28592  -0.28307  -0.28065  -0.27812
 Alpha  occ. eigenvalues --   -0.27758  -0.27429  -0.22918  -0.21851
 Alpha virt. eigenvalues --   -0.08389  -0.06217  -0.00923  -0.00174   0.01006
 Alpha virt. eigenvalues --    0.02526   0.03243   0.03807   0.04505   0.05158
 Alpha virt. eigenvalues --    0.05359   0.06025   0.08062   0.08668   0.09476

 Mulliken charges:
               1
     1  Mg   0.818124
     2  C    0.090381
     3  C   -0.221546
     4  C   -0.156688
     5  C   -0.155591
     6  N   -0.646053
     7  C    0.267228
     8  C   -0.107928
     9  C   -0.146776
    10  C    0.402229
    11  C   -0.304846
    12  C   -0.148468
    13  C   -0.299132
    14  C    0.596888
    15  O   -0.460991
    16  O   -0.426685
    17  N   -0.667221
    18  C    0.302949
    19  C    0.044776
    20  C   -0.019978
    21  C    0.278499
    22  C   -0.366524
    23  C    0.247781
    24  O   -0.395638
    25  N   -0.695446
    26  C    0.294849
    27  C   -0.082225
    28  C    0.028606
    29  C    0.292552
    30  C    0.260383
    31  C   -0.221212
    32  C   -0.297717
    33  N   -0.751640
    34  C    0.215811
    35  C    0.045031
    36  C   -0.003540
    37  C    0.329456
    38  C   -0.364615
    39  C    0.375041
    40  O   -0.412784
    41  C   -0.342540
    42  C    0.609440
    43  O   -0.446072
    44  O   -0.472235
    45  C   -0.050552
    46  C   -0.007138
    47  C   -0.139937
    48  C    0.159774
    49  C   -0.368401
    50  C   -0.230814
    51  C   -0.179675
    52  C   -0.173143
    53  C   -0.060524
    54  C   -0.313465
    55  C   -0.171126
    56  C   -0.164305
    57  C   -0.151931
    58  C   -0.073494
    59  C   -0.290882
    60  C   -0.177734
    61  C   -0.175850
    62  C   -0.152866
    63  C   -0.045629
    64  C   -0.317775
    65  C   -0.304656
    66  H    0.072734
    67  H    0.144817
    68  H    0.075726
    69  H    0.108535
    70  H    0.114420
    71  H    0.118392
    72  H    0.100566
    73  H    0.116044
    74  H    0.125374
    75  H    0.125950
    76  H    0.102311
    77  H    0.107958
    78  H    0.132071
    79  H    0.135863
    80  H    0.125068
    81  H    0.043804
    82  H    0.115566
    83  H    0.093870
    84  H    0.107602
    85  H    0.114151
    86  H    0.112866
    87  H    0.131150
    88  H    0.141467
    89  H    0.138895
    90  H    0.150934
    91  H    0.119084
    92  H    0.139390
    93  H    0.086250
    94  H    0.146090
    95  H    0.100707
    96  H    0.111278
    97  H    0.084490
    98  H    0.072779
    99  H    0.097211
   100  H    0.103147
   101  H    0.086600
   102  H    0.096066
   103  H    0.075836
   104  H    0.111190
   105  H    0.112631
   106  H    0.081972
   107  H    0.101034
   108  H    0.066239
   109  H    0.086749
   110  H    0.059283
   111  H    0.087271
   112  H    0.079089
   113  H    0.071355
   114  H    0.115243
   115  H    0.082455
   116  H    0.103530
   117  H    0.095907
   118  H    0.055287
   119  H    0.086449
   120  H    0.079238
   121  H    0.098792
   122  H    0.083303
   123  H    0.089612
   124  H    0.095097
   125  H    0.111148
   126  H    0.109813
   127  H    0.069384
   128  H    0.089988
   129  H    0.099994
   130  H    0.079195
   131  H    0.132944
   132  H    0.101714
   133  O   -0.384977
   134  H    0.078196
 Sum of Mulliken charges =   0.00000

 Dipole moment (field-independent basis, Debye):
    X=              1.0413    Y=             -3.2737    Z=             -1.7319  Tot=              3.8472
 Quadrupole moment (field-independent basis, Debye-Ang):
   XX=           -350.6707   YY=           -441.1249   ZZ=           -390.1405
   XY=             -1.3508   XZ=             24.6091   YZ=            -32.8046

 Normal termination of Gaussian 09 at Tue Oct  8 22:35:39 2019.
