 Gaussian 09, Revision D.01,
 Gaussian 09:  ES64L-G09RevD.01 24-Apr-2013

 ----------------------------------------------------------------------
 # td=(NStates=1) iop(3/107=0140000000,3/108=0140000000) iop(3/107=0140
 000000,3/108=0140000000) CAM-B3LYP/6-31G(d,p)
 ----------------------------------------------------------------------

 --
 TD
 --
 Symbolic Z-matrix:
 Charge =  0 Multiplicity = 1

                         Standard orientation:
 ---------------------------------------------------------------------
 Center     Atomic      Atomic             Coordinates (Angstroms)
 Number     Number       Type             X           Y           Z
 ---------------------------------------------------------------------
      1         12           0       -5.769712    1.253689    0.226688
      2          6           0       -5.054301   -2.083602   -0.369548
      3          6           0       -3.471406    1.156484    2.832285
      4          6           0       -6.216710    4.620080    0.701248
      5          6           0       -7.846229    1.238786   -2.403712
      6          7           0       -4.352106   -0.268524    1.130429
      7          6           0       -4.280363   -1.562054    0.713545
      8          6           0       -3.217673   -2.313533    1.507819
      9          6           0       -2.776536   -1.323675    2.710233
     10          6           0       -3.449970   -0.042006    2.108341
     11          6           0       -3.208865   -1.713808    4.026838
     12          6           0       -2.021954   -2.744761    0.593839
     13          6           0       -0.994137   -3.480242    1.397013
     14          6           0        0.253847   -3.851721    0.636938
     15          8           0        0.423778   -3.394374   -0.483465
     16          8           0        1.037171   -4.673247    1.331722
     17          7           0       -5.007249    2.683228    1.515141
     18          6           0       -4.035055    2.405167    2.405574
     19          6           0       -3.835148    3.649090    3.220816
     20          6           0       -4.505934    4.589524    2.640045
     21          6           0       -5.277949    3.957697    1.560401
     22          6           0       -2.789616    3.723690    4.279023
     23          6           0       -4.450033    6.096552    2.890559
     24          8           0       -3.850038    6.568325    3.788219
     25          7           0       -6.876114    2.597783   -0.666025
     26          6           0       -6.981053    3.950797   -0.283988
     27          6           0       -7.906018    4.587527   -1.209958
     28          6           0       -8.340376    3.743817   -2.060868
     29          6           0       -7.623116    2.467719   -1.796256
     30          6           0       -8.302185    6.015451   -1.166228
     31          6           0       -9.441321    3.752160   -3.165614
     32          6           0       -8.734763    4.039695   -4.587805
     33          7           0       -6.306874   -0.086080   -1.155360
     34          6           0       -7.298250    0.024470   -2.130384
     35          6           0       -7.476365   -1.272071   -2.786429
     36          6           0       -6.739598   -2.184397   -2.059897
     37          6           0       -5.963182   -1.301708   -1.109403
     38          6           0       -8.476052   -1.571471   -3.796025
     39          6           0       -6.190339   -3.524430   -1.911612
     40          8           0       -6.586463   -4.531351   -2.558638
     41          6           0       -4.993539   -3.562334   -0.907821
     42          6           0       -5.222407   -4.723938    0.098792
     43          8           0       -5.742406   -4.504695    1.180317
     44          8           0       -4.862320   -5.962571   -0.318783
     45          6           0       -5.213788   -6.944775    0.656610
     46          6           0        2.301408   -5.095745    0.581319
     47          6           0        3.378966   -4.185304    0.860418
     48          6           0        4.044592   -3.385674    0.109643
     49          6           0        3.598935   -3.199776   -1.378034
     50          6           0        5.142220   -2.521766    0.565012
     51          6           0        6.486266   -2.758091   -0.085259
     52          6           0        7.688986   -1.903875    0.427991
     53          6           0        9.052129   -2.167060   -0.156178
     54          6           0        9.589656   -3.613740    0.147258
     55          6           0       10.101491   -1.094433    0.553096
     56          6           0       11.333738   -0.894819   -0.315387
     57          6           0       12.152533    0.281770    0.270749
     58          6           0       13.400495    0.460670   -0.567821
     59          6           0       14.339024   -0.724666   -0.525540
     60          6           0       14.199444    1.789096   -0.133748
     61          6           0       15.321234    2.304284   -1.015723
     62          6           0       15.816232    3.729739   -0.607707
     63          6           0       17.190173    4.058294   -1.189864
     64          6           0       17.112368    4.129890   -2.779539
     65          6           0       17.695131    5.386467   -0.720223
     66          1           0       -2.721348    1.099482    3.658031
     67          1           0       -6.692278    5.585789    0.823314
     68          1           0       -8.764578    0.997936   -3.190477
     69          1           0       -3.610905   -3.326379    2.073374
     70          1           0       -1.648117   -1.176244    2.534952
     71          1           0       -2.804532   -2.675847    4.204295
     72          1           0       -2.881761   -1.300962    4.955300
     73          1           0       -4.267734   -1.935095    4.129550
     74          1           0       -2.620353   -3.361220   -0.282774
     75          1           0       -1.461751   -1.917839    0.267315
     76          1           0       -0.721423   -2.816522    2.233774
     77          1           0       -1.296066   -4.454287    1.646031
     78          1           0       -1.859908    3.338697    4.132514
     79          1           0       -2.750417    4.622004    4.786745
     80          1           0       -3.023931    2.976371    5.047254
     81          1           0       -4.936765    6.679346    2.176463
     82          1           0      -10.043492    2.773977   -3.415366
     83          1           0      -10.134213    4.632766   -3.093587
     84          1           0       -9.714038    3.797049   -5.285205
     85          1           0       -8.080133    4.831671   -4.684946
     86          1           0       -7.942060    2.963278   -4.533903
     87          1           0       -8.222380   -1.060071   -4.739173
     88          1           0       -8.488124   -2.690410   -3.825248
     89          1           0       -9.456512   -1.439204   -3.583300
     90          1           0       -4.077841   -3.729849   -1.217040
     91          1           0        2.568334   -6.065692    1.007990
     92          1           0        1.811382   -5.061759   -0.532380
     93          1           0        3.822457   -4.385929    1.958185
     94          1           0        2.689633   -3.540104   -1.344266
     95          1           0        4.056886   -2.199599   -1.673519
     96          1           0        4.083780   -3.803663   -2.239148
     97          1           0        4.950224   -1.428637    0.398088
     98          1           0        5.415195   -2.697994    1.613287
     99          1           0        6.490823   -3.874686   -0.074648
    100          1           0        6.528818   -2.680181   -1.208777
    101          1           0        7.459975   -0.790825    0.238673
    102          1           0        7.537770   -2.269375    1.414067
    103          1           0        8.913487   -1.879987   -1.250115
    104          1           0        8.942300   -4.298448   -0.503789
    105          1           0       10.391526   -3.832305   -0.302142
    106          1           0        9.688260   -3.839964    1.232341
    107          1           0        9.553123    0.046459    0.793855
    108          1           0       10.304145   -1.599061    1.361608
    109          1           0       11.872434   -1.860043   -0.441894
    110          1           0       10.967884   -0.761759   -1.394525
    111          1           0       11.481696    1.251898    0.372321
    112          1           0       12.571001   -0.022324    1.309232
    113          1           0       13.188455    0.764305   -1.745298
    114          1           0       14.565162   -1.011602    0.564828
    115          1           0       13.803005   -1.623467   -1.074594
    116          1           0       15.278103   -0.307525   -1.035311
    117          1           0       13.417315    2.626713    0.000557
    118          1           0       14.598088    1.633058    0.767856
    119          1           0       16.256184    1.659627   -0.980955
    120          1           0       15.201102    2.309730   -2.063292
    121          1           0       15.220509    4.660175   -0.802164
    122          1           0       16.039343    3.700474    0.542452
    123          1           0       17.871482    3.274810   -0.909707
    124          1           0       16.283030    4.731859   -3.067424
    125          1           0       18.085701    4.549164   -3.359216
    126          1           0       16.873855    3.246746   -3.223960
    127          1           0       17.643748    5.493060    0.370468
    128          1           0       18.695570    5.505228   -1.142260
    129          1           0       17.208280    6.301124   -1.186199
    130          1           0       -4.874935   -7.945777    0.178609
    131          1           0       -6.224462   -6.887523    0.810783
    132          1           0       -4.608844   -6.909054    1.706181
    133          8           0       -7.841646    6.908574   -0.458434
    134          1           0       -9.180657    6.113374   -1.889764
 ---------------------------------------------------------------------

 SCF Done:  E(RCAM-B3LYP) =  -3043.41190400     A.U. after   16 cycles

 Excitation energies and oscillator strengths:

 Excited State   1:      Singlet-A      2.0613 eV  601.49 nm  f=0.1830  <S**2>=0.000
     243 -> 246        0.26349
     244 -> 245        0.64803
 This state for optimization and/or second-order correction.
 Total Energy, E(TD-HF/TD-KS) =  -3043.33615328
 Copying the excited state density for this state as the 1-particle RhoCI density.

 The electronic state is 1-A.
 Alpha  occ. eigenvalues --  -46.81758 -19.23758 -19.22806 -19.18459 -19.17305
 Alpha  occ. eigenvalues --  -19.17159 -19.16890 -19.16590 -14.38880 -14.36968
 Alpha  occ. eigenvalues --  -14.36966 -14.36566 -10.35554 -10.34598 -10.31823
 Alpha  occ. eigenvalues --  -10.31447 -10.29618 -10.29168 -10.28262 -10.27576
 Alpha  occ. eigenvalues --  -10.26863 -10.26590 -10.26215 -10.26061 -10.26002
 Alpha  occ. eigenvalues --  -10.25798 -10.25722 -10.25497 -10.25203 -10.25191
 Alpha  occ. eigenvalues --  -10.25136 -10.25130 -10.24831 -10.24613 -10.24298
 Alpha  occ. eigenvalues --  -10.24222 -10.23693 -10.23141 -10.23136 -10.23113
 Alpha  occ. eigenvalues --  -10.22936 -10.22849 -10.22740 -10.22713 -10.22560
 Alpha  occ. eigenvalues --  -10.22499 -10.22248 -10.22027 -10.21929 -10.21885
 Alpha  occ. eigenvalues --  -10.21483 -10.21461 -10.21460 -10.21421 -10.21367
 Alpha  occ. eigenvalues --  -10.21363 -10.21310 -10.21230 -10.21215 -10.20994
 Alpha  occ. eigenvalues --  -10.20694 -10.20332 -10.20164 -10.19896 -10.19861
 Alpha  occ. eigenvalues --  -10.19682  -3.10435  -1.85359  -1.84905  -1.84850
 Alpha  occ. eigenvalues --   -1.14279  -1.12972  -1.08907  -1.07047  -1.05009
 Alpha  occ. eigenvalues --   -1.04512  -1.04405  -1.01852  -1.01533  -0.99643
 Alpha  occ. eigenvalues --   -0.99177  -0.87780  -0.87418  -0.85951  -0.85247
 Alpha  occ. eigenvalues --   -0.85179  -0.85118  -0.84293  -0.84206  -0.83543
 Alpha  occ. eigenvalues --   -0.83304  -0.83207  -0.81986  -0.80799  -0.79829
 Alpha  occ. eigenvalues --   -0.78871  -0.78429  -0.77278  -0.77037  -0.76576
 Alpha  occ. eigenvalues --   -0.75525  -0.75176  -0.74523  -0.73022  -0.72860
 Alpha  occ. eigenvalues --   -0.72380  -0.70869  -0.70483  -0.69673  -0.69543
 Alpha  occ. eigenvalues --   -0.69434  -0.69161  -0.67693  -0.66471  -0.66149
 Alpha  occ. eigenvalues --   -0.65021  -0.64639  -0.64490  -0.62805  -0.61822
 Alpha  occ. eigenvalues --   -0.61166  -0.60894  -0.60652  -0.59198  -0.59170
 Alpha  occ. eigenvalues --   -0.58518  -0.58090  -0.57957  -0.57080  -0.56828
 Alpha  occ. eigenvalues --   -0.56455  -0.56126  -0.55584  -0.55387  -0.55142
 Alpha  occ. eigenvalues --   -0.54605  -0.53856  -0.53366  -0.52903  -0.52616
 Alpha  occ. eigenvalues --   -0.51942  -0.51629  -0.51384  -0.51323  -0.50729
 Alpha  occ. eigenvalues --   -0.50484  -0.50055  -0.49933  -0.49742  -0.49352
 Alpha  occ. eigenvalues --   -0.49206  -0.48888  -0.48719  -0.48178  -0.48010
 Alpha  occ. eigenvalues --   -0.47850  -0.47282  -0.47229  -0.46902  -0.46775
 Alpha  occ. eigenvalues --   -0.46604  -0.46595  -0.46358  -0.46076  -0.45964
 Alpha  occ. eigenvalues --   -0.45862  -0.45377  -0.45275  -0.44986  -0.44741
 Alpha  occ. eigenvalues --   -0.44487  -0.44378  -0.44231  -0.43906  -0.43835
 Alpha  occ. eigenvalues --   -0.43717  -0.43491  -0.43362  -0.43077  -0.42767
 Alpha  occ. eigenvalues --   -0.42646  -0.42505  -0.42364  -0.42107  -0.41708
 Alpha  occ. eigenvalues --   -0.41599  -0.41471  -0.41345  -0.41234  -0.41155
 Alpha  occ. eigenvalues --   -0.40586  -0.40457  -0.40335  -0.40086  -0.39822
 Alpha  occ. eigenvalues --   -0.39729  -0.39661  -0.39514  -0.39456  -0.39250
 Alpha  occ. eigenvalues --   -0.39144  -0.38734  -0.38623  -0.38596  -0.38429
 Alpha  occ. eigenvalues --   -0.37956  -0.37502  -0.37331  -0.37226  -0.37101
 Alpha  occ. eigenvalues --   -0.36994  -0.36388  -0.36201  -0.35573  -0.35551
 Alpha  occ. eigenvalues --   -0.35018  -0.34907  -0.34606  -0.34439  -0.34215
 Alpha  occ. eigenvalues --   -0.34121  -0.33996  -0.33922  -0.33717  -0.33488
 Alpha  occ. eigenvalues --   -0.33332  -0.33065  -0.32683  -0.31786  -0.31671
 Alpha  occ. eigenvalues --   -0.30985  -0.30691  -0.30166  -0.29916  -0.29835
 Alpha  occ. eigenvalues --   -0.29726  -0.28774  -0.28638  -0.28396  -0.28203
 Alpha  occ. eigenvalues --   -0.27666  -0.27469  -0.22704  -0.20850
 Alpha virt. eigenvalues --   -0.07727  -0.05856  -0.01629  -0.00358   0.00655
 Alpha virt. eigenvalues --    0.02641   0.02840   0.02944   0.04319   0.04611
 Alpha virt. eigenvalues --    0.05113   0.05916   0.07153   0.07623   0.09469

 Mulliken charges:
               1
     1  Mg   0.858090
     2  C    0.041224
     3  C   -0.168231
     4  C   -0.161307
     5  C   -0.186417
     6  N   -0.590027
     7  C    0.337518
     8  C   -0.183583
     9  C   -0.123888
    10  C    0.270069
    11  C   -0.323110
    12  C   -0.151864
    13  C   -0.256787
    14  C    0.600651
    15  O   -0.476146
    16  O   -0.470150
    17  N   -0.670966
    18  C    0.274502
    19  C    0.028656
    20  C   -0.052008
    21  C    0.301518
    22  C   -0.385461
    23  C    0.278143
    24  O   -0.388694
    25  N   -0.712380
    26  C    0.269875
    27  C   -0.031397
    28  C    0.066851
    29  C    0.266586
    30  C    0.265211
    31  C   -0.250133
    32  C   -0.279095
    33  N   -0.741459
    34  C    0.278402
    35  C    0.011287
    36  C    0.052113
    37  C    0.323892
    38  C   -0.396609
    39  C    0.351474
    40  O   -0.484584
    41  C   -0.264894
    42  C    0.605587
    43  O   -0.464923
    44  O   -0.433186
    45  C   -0.079946
    46  C   -0.031625
    47  C   -0.123386
    48  C    0.171117
    49  C   -0.344369
    50  C   -0.235916
    51  C   -0.208613
    52  C   -0.141492
    53  C   -0.082974
    54  C   -0.315133
    55  C   -0.143378
    56  C   -0.175672
    57  C   -0.150939
    58  C   -0.048134
    59  C   -0.293502
    60  C   -0.170258
    61  C   -0.189945
    62  C   -0.161898
    63  C   -0.053310
    64  C   -0.319723
    65  C   -0.305938
    66  H    0.081805
    67  H    0.132266
    68  H    0.083058
    69  H    0.104231
    70  H    0.098970
    71  H    0.117628
    72  H    0.121395
    73  H    0.133407
    74  H    0.085341
    75  H    0.128757
    76  H    0.132172
    77  H    0.131838
    78  H    0.132885
    79  H    0.148138
    80  H    0.108676
    81  H    0.085161
    82  H    0.116651
    83  H    0.112878
    84  H    0.096707
    85  H    0.138058
    86  H    0.056789
    87  H    0.128136
    88  H    0.144714
    89  H    0.141697
    90  H    0.158517
    91  H    0.128722
    92  H    0.130032
    93  H    0.067671
    94  H    0.140732
    95  H    0.107910
    96  H    0.098014
    97  H    0.104790
    98  H    0.094956
    99  H    0.091099
   100  H    0.072273
   101  H    0.086011
   102  H    0.093039
   103  H    0.075838
   104  H    0.094385
   105  H    0.119646
   106  H    0.108058
   107  H    0.046132
   108  H    0.105278
   109  H    0.094136
   110  H    0.086037
   111  H    0.084882
   112  H    0.082855
   113  H    0.054368
   114  H    0.092335
   115  H    0.092770
   116  H    0.101162
   117  H    0.078002
   118  H    0.100826
   119  H    0.083332
   120  H    0.101375
   121  H    0.089671
   122  H    0.070465
   123  H    0.090354
   124  H    0.105516
   125  H    0.074872
   126  H    0.107950
   127  H    0.095257
   128  H    0.101410
   129  H    0.092050
   130  H    0.115816
   131  H    0.151029
   132  H    0.104799
   133  O   -0.427719
   134  H    0.062675
 Sum of Mulliken charges =   0.00000

 Dipole moment (field-independent basis, Debye):
    X=              2.7580    Y=             -5.0264    Z=              0.3109  Tot=              5.7418
 Quadrupole moment (field-independent basis, Debye-Ang):
   XX=           -370.6356   YY=           -434.1833   ZZ=           -396.7548
   XY=             -6.5671   XZ=             17.4177   YZ=            -36.2901

 Normal termination of Gaussian 09 at Tue Oct  8 09:52:59 2019.
