 Gaussian 09, Revision D.01,
 Gaussian 09:  ES64L-G09RevD.01 24-Apr-2013

 ----------------------------------------------------------------------
 # td=(NStates=1) iop(3/107=0140000000,3/108=0140000000) iop(3/107=0140
 000000,3/108=0140000000) CAM-B3LYP/6-31G(d,p)
 ----------------------------------------------------------------------

 --
 TD
 --
 Symbolic Z-matrix:
 Charge =  0 Multiplicity = 1

                         Standard orientation:
 ---------------------------------------------------------------------
 Center     Atomic      Atomic             Coordinates (Angstroms)
 Number     Number       Type             X           Y           Z
 ---------------------------------------------------------------------
      1         12           0       -5.602020    1.139996    0.235787
      2          6           0       -5.048330   -2.125259   -0.287537
      3          6           0       -3.410550    1.241578    2.696831
      4          6           0       -6.244695    4.486157    0.636473
      5          6           0       -7.974252    1.063479   -2.379084
      6          7           0       -4.394309   -0.291504    1.054576
      7          6           0       -4.233551   -1.600969    0.658075
      8          6           0       -3.253956   -2.338605    1.553989
      9          6           0       -2.874322   -1.321046    2.609241
     10          6           0       -3.552155    0.013955    2.075388
     11          6           0       -3.517333   -1.700697    4.035546
     12          6           0       -1.911607   -2.553878    0.721622
     13          6           0       -0.903665   -3.336398    1.681470
     14          6           0        0.261766   -3.850833    0.679834
     15          8           0        0.433306   -3.333221   -0.441315
     16          8           0        1.071898   -4.699726    1.261612
     17          7           0       -4.978867    2.702736    1.507297
     18          6           0       -4.034217    2.468927    2.417959
     19          6           0       -3.628962    3.764677    3.072467
     20          6           0       -4.414268    4.632384    2.503509
     21          6           0       -5.355217    3.997137    1.516970
     22          6           0       -2.775331    3.923667    4.253230
     23          6           0       -4.637940    5.974296    2.865129
     24          8           0       -4.097774    6.559818    3.784129
     25          7           0       -7.018918    2.577433   -0.657088
     26          6           0       -7.020151    3.930297   -0.426872
     27          6           0       -8.024049    4.559954   -1.289375
     28          6           0       -8.514374    3.550140   -2.156288
     29          6           0       -7.888419    2.395569   -1.774448
     30          6           0       -8.476168    6.050905   -1.292745
     31          6           0       -9.522973    3.641324   -3.166462
     32          6           0       -8.870314    3.742547   -4.575043
     33          7           0       -6.345483   -0.179743   -1.044390
     34          6           0       -7.371898   -0.132356   -2.038505
     35          6           0       -7.536072   -1.402955   -2.632261
     36          6           0       -6.734818   -2.283559   -1.937957
     37          6           0       -6.030304   -1.459217   -1.044180
     38          6           0       -8.312430   -1.861002   -3.840420
     39          6           0       -6.210638   -3.657546   -1.961902
     40          8           0       -6.549900   -4.645138   -2.585240
     41          6           0       -5.017188   -3.560349   -0.914242
     42          6           0       -5.297964   -4.597263    0.221571
     43          8           0       -5.803434   -4.388148    1.216552
     44          8           0       -5.073574   -5.852218   -0.366816
     45          6           0       -5.365883   -6.914904    0.489444
     46          6           0        2.355755   -4.925157    0.495917
     47          6           0        3.389973   -3.977698    0.936335
     48          6           0        4.173694   -3.156793    0.143282
     49          6           0        3.740873   -2.989243   -1.322364
     50          6           0        5.177265   -2.245747    0.766770
     51          6           0        6.535875   -2.542964    0.167245
     52          6           0        7.631922   -1.629645    0.673321
     53          6           0        9.068492   -1.935321   -0.017449
     54          6           0        9.637680   -3.370679    0.350345
     55          6           0        9.941652   -0.822334    0.470961
     56          6           0       11.336752   -0.740762   -0.284852
     57          6           0       12.201889    0.459149    0.086777
     58          6           0       13.593728    0.441172   -0.625993
     59          6           0       14.273861   -0.824350   -0.290406
     60          6           0       14.282690    1.744152   -0.205552
     61          6           0       15.628279    1.976431   -1.011280
     62          6           0       15.995608    3.410884   -0.654381
     63          6           0       17.420815    3.853927   -1.383796
     64          6           0       17.185919    3.849015   -2.959277
     65          6           0       18.168608    5.080032   -0.807611
     66          1           0       -2.659953    1.371811    3.546873
     67          1           0       -6.532759    5.558646    0.684569
     68          1           0       -8.627181    0.931689   -3.090738
     69          1           0       -3.670571   -3.262218    1.811687
     70          1           0       -1.840341   -1.149544    2.723740
     71          1           0       -3.037196   -2.621047    4.343486
     72          1           0       -2.932133   -1.076999    4.944387
     73          1           0       -4.710465   -1.779239    4.081551
     74          1           0       -2.201904   -3.134652   -0.123670
     75          1           0       -1.413299   -1.644266    0.238052
     76          1           0       -0.505377   -2.663585    2.469134
     77          1           0       -1.317264   -4.264948    2.148228
     78          1           0       -1.821137    3.516835    3.931793
     79          1           0       -2.876193    4.855676    4.653334
     80          1           0       -3.210326    3.106760    5.120228
     81          1           0       -5.413342    6.568182    2.288406
     82          1           0      -10.057164    2.724454   -3.127420
     83          1           0      -10.020226    4.498428   -3.100610
     84          1           0       -9.587086    3.709476   -5.368554
     85          1           0       -8.224073    4.519035   -4.589171
     86          1           0       -8.190257    2.984422   -4.766746
     87          1           0       -8.185815   -1.278186   -4.850971
     88          1           0       -8.303164   -2.884386   -4.127279
     89          1           0       -9.400488   -1.518447   -3.697768
     90          1           0       -4.097700   -3.884515   -1.558764
     91          1           0        2.509669   -5.806554    0.724015
     92          1           0        2.169081   -5.183213   -0.589213
     93          1           0        3.754573   -3.934076    1.997236
     94          1           0        2.782446   -3.361429   -1.383841
     95          1           0        3.706973   -1.936746   -1.722361
     96          1           0        4.495843   -3.437849   -2.012095
     97          1           0        5.077073   -1.161554    0.495095
     98          1           0        5.339440   -2.434056    1.883060
     99          1           0        6.662915   -3.455115    0.328712
    100          1           0        6.515890   -2.400079   -0.854420
    101          1           0        7.275850   -0.601920    0.391515
    102          1           0        7.566802   -1.921321    1.764675
    103          1           0        8.848574   -1.928930   -0.924754
    104          1           0        9.057997   -4.287138    0.118681
    105          1           0       10.439365   -3.787648   -0.230692
    106          1           0        9.757403   -3.260601    1.390011
    107          1           0        9.460147    0.167623    0.312415
    108          1           0       10.428958   -0.920463    1.363858
    109          1           0       11.795413   -1.579608   -0.182968
    110          1           0       11.093847   -0.649017   -1.532493
    111          1           0       11.731740    1.356176   -0.152555
    112          1           0       12.484951    0.141291    1.177223
    113          1           0       13.395740    0.617369   -1.761891
    114          1           0       14.435547   -0.881097    0.808966
    115          1           0       13.649560   -1.652820   -0.877236
    116          1           0       15.288486   -1.057374   -0.973827
    117          1           0       13.921966    2.566168   -0.220661
    118          1           0       14.705240    1.559170    0.817332
    119          1           0       16.392253    1.371137   -0.859940
    120          1           0       15.411853    1.638725   -2.104293
    121          1           0       15.266551    4.148363   -1.110023
    122          1           0       16.326300    3.547717    0.344721
    123          1           0       18.073445    2.971809   -1.355005
    124          1           0       16.344928    4.465113   -3.291431
    125          1           0       18.118093    4.029469   -3.289697
    126          1           0       17.056002    2.764031   -3.257390
    127          1           0       18.428265    5.095410    0.328134
    128          1           0       18.902160    5.280050   -1.414590
    129          1           0       17.462371    5.770896   -0.923997
    130          1           0       -5.352562   -7.865490    0.061530
    131          1           0       -6.315200   -7.018752    0.977770
    132          1           0       -4.549541   -6.875160    1.269267
    133          8           0       -7.940836    6.959506   -0.630072
    134          1           0       -9.245798    6.209367   -1.872161
 ---------------------------------------------------------------------

 SCF Done:  E(RCAM-B3LYP) =  -3043.35438479     A.U. after   15 cycles

 Excitation energies and oscillator strengths:

 Excited State   1:      Singlet-A      2.2191 eV  558.71 nm  f=0.1118  <S**2>=0.000
     243 -> 246        0.34060
     244 -> 245        0.60591
 This state for optimization and/or second-order correction.
 Total Energy, E(TD-HF/TD-KS) =  -3043.27283326
 Copying the excited state density for this state as the 1-particle RhoCI density.

 The electronic state is 1-A.
 Alpha  occ. eigenvalues --  -46.81778 -19.23354 -19.21679 -19.19137 -19.17540
 Alpha  occ. eigenvalues --  -19.16961 -19.16559 -19.16241 -14.38365 -14.36732
 Alpha  occ. eigenvalues --  -14.36379 -14.36103 -10.35091 -10.35077 -10.31818
 Alpha  occ. eigenvalues --  -10.29799 -10.29022 -10.27942 -10.27183 -10.27036
 Alpha  occ. eigenvalues --  -10.26932 -10.25920 -10.25897 -10.25856 -10.25841
 Alpha  occ. eigenvalues --  -10.25485 -10.25451 -10.25344 -10.25149 -10.24959
 Alpha  occ. eigenvalues --  -10.24641 -10.24593 -10.24116 -10.24076 -10.24032
 Alpha  occ. eigenvalues --  -10.23643 -10.23526 -10.23403 -10.22948 -10.22898
 Alpha  occ. eigenvalues --  -10.22857 -10.22818 -10.22813 -10.22784 -10.22756
 Alpha  occ. eigenvalues --  -10.22540 -10.22262 -10.22092 -10.21832 -10.21795
 Alpha  occ. eigenvalues --  -10.21585 -10.21528 -10.21275 -10.21124 -10.20851
 Alpha  occ. eigenvalues --  -10.20788 -10.20766 -10.20421 -10.20131 -10.20109
 Alpha  occ. eigenvalues --  -10.19919 -10.19598 -10.19288 -10.18553 -10.18504
 Alpha  occ. eigenvalues --  -10.18034  -3.10260  -1.85206  -1.84708  -1.84686
 Alpha  occ. eigenvalues --   -1.15761  -1.13480  -1.07694  -1.07037  -1.06303
 Alpha  occ. eigenvalues --   -1.04811  -1.03104  -1.01068  -1.00705  -0.99283
 Alpha  occ. eigenvalues --   -0.97438  -0.87866  -0.86874  -0.86367  -0.85705
 Alpha  occ. eigenvalues --   -0.85269  -0.85131  -0.84696  -0.84380  -0.83671
 Alpha  occ. eigenvalues --   -0.82631  -0.82547  -0.81778  -0.80125  -0.79350
 Alpha  occ. eigenvalues --   -0.78522  -0.77869  -0.77811  -0.77108  -0.76760
 Alpha  occ. eigenvalues --   -0.75624  -0.75394  -0.73785  -0.73058  -0.71992
 Alpha  occ. eigenvalues --   -0.71966  -0.71805  -0.70760  -0.70250  -0.69820
 Alpha  occ. eigenvalues --   -0.69474  -0.69017  -0.68081  -0.67399  -0.66748
 Alpha  occ. eigenvalues --   -0.66055  -0.65164  -0.64196  -0.63245  -0.62754
 Alpha  occ. eigenvalues --   -0.62023  -0.61493  -0.61082  -0.61003  -0.59460
 Alpha  occ. eigenvalues --   -0.58966  -0.58377  -0.58305  -0.57052  -0.57015
 Alpha  occ. eigenvalues --   -0.56470  -0.56400  -0.55977  -0.55338  -0.54862
 Alpha  occ. eigenvalues --   -0.53844  -0.53573  -0.53335  -0.53001  -0.52676
 Alpha  occ. eigenvalues --   -0.52362  -0.52104  -0.52013  -0.51536  -0.51348
 Alpha  occ. eigenvalues --   -0.50599  -0.50445  -0.50278  -0.49644  -0.49061
 Alpha  occ. eigenvalues --   -0.48821  -0.48567  -0.48430  -0.48350  -0.48225
 Alpha  occ. eigenvalues --   -0.47831  -0.47691  -0.47292  -0.47043  -0.46888
 Alpha  occ. eigenvalues --   -0.46516  -0.46363  -0.46330  -0.46229  -0.45911
 Alpha  occ. eigenvalues --   -0.45821  -0.45670  -0.45114  -0.44929  -0.44806
 Alpha  occ. eigenvalues --   -0.44606  -0.44398  -0.44260  -0.44015  -0.43814
 Alpha  occ. eigenvalues --   -0.43733  -0.43136  -0.43059  -0.42972  -0.42770
 Alpha  occ. eigenvalues --   -0.42654  -0.42583  -0.42129  -0.42053  -0.41973
 Alpha  occ. eigenvalues --   -0.41719  -0.41469  -0.41362  -0.41182  -0.41120
 Alpha  occ. eigenvalues --   -0.40952  -0.40933  -0.40740  -0.40502  -0.40246
 Alpha  occ. eigenvalues --   -0.40046  -0.39874  -0.39531  -0.39404  -0.39245
 Alpha  occ. eigenvalues --   -0.39182  -0.39057  -0.38951  -0.38697  -0.38590
 Alpha  occ. eigenvalues --   -0.38452  -0.38146  -0.38019  -0.37853  -0.37762
 Alpha  occ. eigenvalues --   -0.37252  -0.36822  -0.36492  -0.36119  -0.35938
 Alpha  occ. eigenvalues --   -0.35585  -0.35278  -0.34955  -0.34872  -0.34550
 Alpha  occ. eigenvalues --   -0.34163  -0.34086  -0.33600  -0.33390  -0.32899
 Alpha  occ. eigenvalues --   -0.32786  -0.32515  -0.32142  -0.32096  -0.32010
 Alpha  occ. eigenvalues --   -0.31142  -0.30776  -0.29989  -0.29903  -0.29020
 Alpha  occ. eigenvalues --   -0.28561  -0.28412  -0.28112  -0.27708  -0.27101
 Alpha  occ. eigenvalues --   -0.27042  -0.26566  -0.22735  -0.21947
 Alpha virt. eigenvalues --   -0.07612  -0.06420  -0.01478  -0.00282   0.00804
 Alpha virt. eigenvalues --    0.01827   0.03625   0.03757   0.03959   0.04418
 Alpha virt. eigenvalues --    0.05452   0.06304   0.08406   0.08590   0.09649

 Mulliken charges:
               1
     1  Mg   0.822409
     2  C    0.055071
     3  C   -0.203474
     4  C   -0.208660
     5  C   -0.139857
     6  N   -0.664323
     7  C    0.317032
     8  C   -0.143893
     9  C   -0.118923
    10  C    0.351506
    11  C   -0.306513
    12  C   -0.183913
    13  C   -0.273679
    14  C    0.592414
    15  O   -0.483065
    16  O   -0.453371
    17  N   -0.704833
    18  C    0.333252
    19  C    0.056580
    20  C   -0.008109
    21  C    0.342120
    22  C   -0.353898
    23  C    0.217732
    24  O   -0.426718
    25  N   -0.658485
    26  C    0.292916
    27  C   -0.097599
    28  C    0.066216
    29  C    0.253094
    30  C    0.287938
    31  C   -0.231292
    32  C   -0.332637
    33  N   -0.734716
    34  C    0.256232
    35  C    0.050435
    36  C    0.036564
    37  C    0.309147
    38  C   -0.393522
    39  C    0.378230
    40  O   -0.450126
    41  C   -0.347161
    42  C    0.616724
    43  O   -0.393568
    44  O   -0.455609
    45  C   -0.088890
    46  C    0.013256
    47  C   -0.149886
    48  C    0.154001
    49  C   -0.376648
    50  C   -0.233709
    51  C   -0.178903
    52  C   -0.186576
    53  C   -0.020002
    54  C   -0.335906
    55  C   -0.159650
    56  C   -0.185736
    57  C   -0.148905
    58  C   -0.058381
    59  C   -0.299981
    60  C   -0.124891
    61  C   -0.181424
    62  C   -0.184757
    63  C   -0.102140
    64  C   -0.316207
    65  C   -0.305937
    66  H    0.074411
    67  H    0.124757
    68  H    0.056884
    69  H    0.120514
    70  H    0.108834
    71  H    0.118865
    72  H    0.076622
    73  H    0.127272
    74  H    0.118337
    75  H    0.129264
    76  H    0.137124
    77  H    0.124765
    78  H    0.130877
    79  H    0.165361
    80  H    0.096615
    81  H    0.075597
    82  H    0.115503
    83  H    0.112432
    84  H    0.109324
    85  H    0.122407
    86  H    0.114711
    87  H    0.116094
    88  H    0.159923
    89  H    0.115348
    90  H    0.153629
    91  H    0.117103
    92  H    0.133300
    93  H    0.082214
    94  H    0.152909
    95  H    0.108784
    96  H    0.108550
    97  H    0.102318
    98  H    0.085992
    99  H    0.103601
   100  H    0.092500
   101  H    0.084819
   102  H    0.079565
   103  H    0.085686
   104  H    0.093169
   105  H    0.108776
   106  H    0.114287
   107  H    0.087482
   108  H    0.100469
   109  H    0.107772
   110  H    0.020580
   111  H    0.096419
   112  H    0.068149
   113  H    0.069734
   114  H    0.109330
   115  H    0.106542
   116  H    0.071924
   117  H    0.086192
   118  H    0.074666
   119  H    0.103877
   120  H    0.069161
   121  H    0.088542
   122  H    0.105654
   123  H    0.075457
   124  H    0.099622
   125  H    0.107884
   126  H    0.097122
   127  H    0.088197
   128  H    0.110248
   129  H    0.117287
   130  H    0.124378
   131  H    0.123885
   132  H    0.094650
   133  O   -0.437036
   134  H    0.076367
 Sum of Mulliken charges =   0.00000

 Dipole moment (field-independent basis, Debye):
    X=              3.7841    Y=             -6.0226    Z=             -1.0045  Tot=              7.1833
 Quadrupole moment (field-independent basis, Debye-Ang):
   XX=           -374.1244   YY=           -441.2913   ZZ=           -391.3467
   XY=              7.7607   XZ=             24.4234   YZ=            -32.9135

 Normal termination of Gaussian 09 at Wed Oct  9 08:27:25 2019.
