 Gaussian 09, Revision D.01,
 Gaussian 09:  ES64L-G09RevD.01 24-Apr-2013

 ----------------------------------------------------------------------
 # td=(NStates=1) iop(3/107=0140000000,3/108=0140000000) iop(3/107=0140
 000000,3/108=0140000000) CAM-B3LYP/6-31G(d,p)
 ----------------------------------------------------------------------

 --
 TD
 --
 Symbolic Z-matrix:
 Charge =  0 Multiplicity = 1

                         Standard orientation:
 ---------------------------------------------------------------------
 Center     Atomic      Atomic             Coordinates (Angstroms)
 Number     Number       Type             X           Y           Z
 ---------------------------------------------------------------------
      1         12           0       -5.626175    1.252415    0.126489
      2          6           0       -4.960237   -2.084191   -0.338539
      3          6           0       -3.307636    1.223951    2.723187
      4          6           0       -6.159524    4.514030    0.673615
      5          6           0       -8.053525    1.215287   -2.348102
      6          7           0       -4.371849   -0.289802    1.044332
      7          6           0       -4.264426   -1.545399    0.681699
      8          6           0       -3.262754   -2.350401    1.423180
      9          6           0       -2.882940   -1.317398    2.613112
     10          6           0       -3.477362   -0.006824    2.143951
     11          6           0       -3.372317   -1.766814    3.978740
     12          6           0       -1.919114   -2.591582    0.632347
     13          6           0       -0.958194   -3.576679    1.320308
     14          6           0        0.325027   -3.918984    0.540607
     15          8           0        0.482749   -3.573224   -0.659742
     16          8           0        1.157613   -4.638923    1.240189
     17          7           0       -4.890295    2.629717    1.405494
     18          6           0       -3.985470    2.467887    2.450958
     19          6           0       -3.756950    3.637340    3.126665
     20          6           0       -4.611044    4.566988    2.596651
     21          6           0       -5.274967    3.980478    1.553349
     22          6           0       -2.754488    3.864782    4.270115
     23          6           0       -4.660785    6.095887    2.883011
     24          8           0       -4.022080    6.540931    3.800748
     25          7           0       -6.961228    2.566642   -0.627992
     26          6           0       -7.016737    3.961783   -0.321876
     27          6           0       -8.068404    4.548376   -1.157335
     28          6           0       -8.544367    3.602146   -1.994838
     29          6           0       -7.843271    2.358992   -1.634822
     30          6           0       -8.373526    6.002236   -1.212940
     31          6           0       -9.587989    3.815466   -3.073526
     32          6           0       -9.029982    4.014483   -4.539320
     33          7           0       -6.340201   -0.087312   -1.086741
     34          6           0       -7.369320   -0.085069   -2.008906
     35          6           0       -7.580128   -1.398887   -2.684723
     36          6           0       -6.556141   -2.187130   -2.042249
     37          6           0       -5.898596   -1.472766   -1.038735
     38          6           0       -8.550294   -1.870058   -3.819059
     39          6           0       -6.223420   -3.604114   -2.051082
     40          8           0       -6.716431   -4.541672   -2.617274
     41          6           0       -5.070319   -3.533907   -0.874948
     42          6           0       -5.435733   -4.593926    0.082537
     43          8           0       -5.811117   -4.380790    1.241581
     44          8           0       -5.084484   -5.912472   -0.315309
     45          6           0       -5.421384   -7.008613    0.564641
     46          6           0        2.274319   -5.078173    0.537500
     47          6           0        3.358693   -4.115608    0.992615
     48          6           0        4.053320   -3.172086    0.265930
     49          6           0        3.768720   -3.077409   -1.183654
     50          6           0        5.232426   -2.398229    0.767284
     51          6           0        6.592142   -2.628744    0.031746
     52          6           0        7.642216   -1.672444    0.594880
     53          6           0        9.073857   -1.974750   -0.036299
     54          6           0        9.601132   -3.392553    0.201743
     55          6           0       10.001644   -0.888288    0.561408
     56          6           0       11.379558   -0.828229   -0.128257
     57          6           0       12.355983    0.379240    0.188600
     58          6           0       13.780640    0.393676   -0.585679
     59          6           0       14.601527   -0.832254   -0.152729
     60          6           0       14.272574    1.754075   -0.101596
     61          6           0       15.590792    2.149434   -0.936408
     62          6           0       16.114428    3.577703   -0.644776
     63          6           0       17.375776    3.938142   -1.447307
     64          6           0       17.158445    3.796121   -3.026722
     65          6           0       17.980468    5.295818   -1.079954
     66          1           0       -2.655722    1.440289    3.614512
     67          1           0       -6.485393    5.659181    0.649336
     68          1           0       -8.689611    1.245629   -3.219677
     69          1           0       -3.654246   -3.419658    1.680883
     70          1           0       -1.750419   -1.239720    2.670482
     71          1           0       -2.870837   -2.740968    4.309897
     72          1           0       -3.243100   -0.967810    4.874694
     73          1           0       -4.535171   -1.883166    4.090598
     74          1           0       -2.122966   -3.034936   -0.305042
     75          1           0       -1.469640   -1.596162    0.476368
     76          1           0       -0.703962   -3.329688    2.342330
     77          1           0       -1.471392   -4.652266    1.398745
     78          1           0       -1.743430    3.304872    4.057156
     79          1           0       -2.576423    5.088572    4.313682
     80          1           0       -3.297988    3.289396    5.131469
     81          1           0       -5.300943    6.718094    2.198212
     82          1           0      -10.121120    3.016896   -3.244485
     83          1           0      -10.312370    4.520717   -2.863473
     84          1           0      -10.042221    4.399170   -5.126423
     85          1           0       -8.273931    4.722909   -4.793014
     86          1           0       -8.675717    3.209795   -5.005620
     87          1           0       -8.389095   -1.209378   -4.599913
     88          1           0       -8.650390   -2.864640   -3.873849
     89          1           0       -9.708139   -1.512622   -3.453118
     90          1           0       -4.170255   -3.887535   -1.293132
     91          1           0        2.462802   -6.135583    0.758542
     92          1           0        2.152244   -5.140854   -0.697714
     93          1           0        3.641896   -4.269815    1.930933
     94          1           0        2.805296   -3.265449   -1.524040
     95          1           0        3.875308   -2.013235   -1.673231
     96          1           0        4.403092   -3.788468   -1.785832
     97          1           0        5.034087   -1.289374    0.491194
     98          1           0        5.453418   -2.429852    1.876494
     99          1           0        6.816856   -3.715126    0.226775
    100          1           0        6.364778   -2.193263   -1.030069
    101          1           0        7.505391   -0.537856    0.471860
    102          1           0        7.533287   -1.957863    1.663377
    103          1           0        9.136510   -1.862139   -1.152036
    104          1           0        8.807026   -4.111843   -0.291665
    105          1           0       10.335727   -3.437482   -0.388139
    106          1           0        9.532915   -3.532757    1.309029
    107          1           0        9.724591    0.193783    0.469014
    108          1           0       10.316650   -1.099253    1.682476
    109          1           0       11.785487   -1.917310    0.222924
    110          1           0       10.986689   -0.799591   -1.096391
    111          1           0       11.736587    1.143167   -0.245591
    112          1           0       12.512311    0.449140    1.242438
    113          1           0       13.478920    0.369799   -1.602167
    114          1           0       14.716100   -0.830945    1.057351
    115          1           0       13.847161   -1.542715   -0.570989
    116          1           0       15.589804   -0.564073   -0.684272
    117          1           0       13.609307    2.619158   -0.257730
    118          1           0       14.250030    1.487330    0.918322
    119          1           0       16.632919    1.477645   -0.883011
    120          1           0       15.489190    1.883199   -2.170656
    121          1           0       15.295502    4.335347   -0.668805
    122          1           0       16.304690    3.685113    0.481177
    123          1           0       17.984603    3.324805   -1.115810
    124          1           0       16.347691    4.450345   -3.429325
    125          1           0       18.222850    3.913809   -3.566606
    126          1           0       16.808623    2.732501   -3.303251
    127          1           0       18.487584    5.324752    0.038818
    128          1           0       18.653663    5.695485   -1.934986
    129          1           0       17.137654    6.021089   -1.087907
    130          1           0       -4.916549   -7.938599    0.202152
    131          1           0       -6.581437   -7.342627    0.453870
    132          1           0       -5.360097   -6.725263    1.560370
    133          8           0       -7.907576    6.886553   -0.453333
    134          1           0       -9.151027    6.154136   -2.101889
 ---------------------------------------------------------------------

 SCF Done:  E(RCAM-B3LYP) =  -3043.40040511     A.U. after   16 cycles

 Excitation energies and oscillator strengths:

 Excited State   1:      Singlet-A      1.9235 eV  644.58 nm  f=0.2539  <S**2>=0.000
     243 -> 246       -0.20545
     244 -> 245        0.67159
 This state for optimization and/or second-order correction.
 Total Energy, E(TD-HF/TD-KS) =  -3043.32971773
 Copying the excited state density for this state as the 1-particle RhoCI density.

 The electronic state is 1-A.
 Alpha  occ. eigenvalues --  -46.80165 -19.24188 -19.21749 -19.18877 -19.18559
 Alpha  occ. eigenvalues --  -19.17965 -19.17142 -19.16402 -14.38981 -14.36980
 Alpha  occ. eigenvalues --  -14.36692 -14.36088 -10.35413 -10.35352 -10.32453
 Alpha  occ. eigenvalues --  -10.32206 -10.31372 -10.28682 -10.27883 -10.27655
 Alpha  occ. eigenvalues --  -10.27472 -10.27026 -10.26910 -10.26519 -10.26281
 Alpha  occ. eigenvalues --  -10.25509 -10.25488 -10.25227 -10.25134 -10.25035
 Alpha  occ. eigenvalues --  -10.24921 -10.24814 -10.24628 -10.24540 -10.24224
 Alpha  occ. eigenvalues --  -10.24064 -10.24047 -10.24032 -10.23808 -10.23673
 Alpha  occ. eigenvalues --  -10.23536 -10.23299 -10.23229 -10.23144 -10.23054
 Alpha  occ. eigenvalues --  -10.23001 -10.22741 -10.22486 -10.22450 -10.22426
 Alpha  occ. eigenvalues --  -10.22362 -10.22204 -10.22187 -10.22029 -10.21914
 Alpha  occ. eigenvalues --  -10.21769 -10.21339 -10.21261 -10.21207 -10.21069
 Alpha  occ. eigenvalues --  -10.20818 -10.20628 -10.20576 -10.20354 -10.20320
 Alpha  occ. eigenvalues --  -10.20085  -3.08975  -1.83889  -1.83460  -1.83402
 Alpha  occ. eigenvalues --   -1.16367  -1.10834  -1.08660  -1.08221  -1.05949
 Alpha  occ. eigenvalues --   -1.03214  -1.03128  -1.00206  -0.99308  -0.98776
 Alpha  occ. eigenvalues --   -0.97432  -0.89329  -0.85823  -0.85802  -0.85133
 Alpha  occ. eigenvalues --   -0.84808  -0.84634  -0.84068  -0.83644  -0.83087
 Alpha  occ. eigenvalues --   -0.82422  -0.82077  -0.81522  -0.80576  -0.79512
 Alpha  occ. eigenvalues --   -0.79319  -0.78203  -0.77474  -0.77200  -0.76459
 Alpha  occ. eigenvalues --   -0.75050  -0.74650  -0.73415  -0.72394  -0.71528
 Alpha  occ. eigenvalues --   -0.71192  -0.70563  -0.70282  -0.69689  -0.69343
 Alpha  occ. eigenvalues --   -0.69137  -0.68803  -0.68178  -0.67542  -0.65981
 Alpha  occ. eigenvalues --   -0.65481  -0.64112  -0.63858  -0.62605  -0.61915
 Alpha  occ. eigenvalues --   -0.61492  -0.60275  -0.59645  -0.59303  -0.58764
 Alpha  occ. eigenvalues --   -0.58612  -0.58114  -0.57943  -0.57732  -0.57015
 Alpha  occ. eigenvalues --   -0.56414  -0.55951  -0.55055  -0.54814  -0.54525
 Alpha  occ. eigenvalues --   -0.54235  -0.53724  -0.53317  -0.52742  -0.52166
 Alpha  occ. eigenvalues --   -0.51870  -0.51515  -0.51367  -0.50842  -0.50562
 Alpha  occ. eigenvalues --   -0.50259  -0.50031  -0.49809  -0.49485  -0.49143
 Alpha  occ. eigenvalues --   -0.48867  -0.48280  -0.47906  -0.47844  -0.47570
 Alpha  occ. eigenvalues --   -0.47551  -0.47443  -0.47259  -0.46993  -0.46663
 Alpha  occ. eigenvalues --   -0.46620  -0.46534  -0.46318  -0.46060  -0.45955
 Alpha  occ. eigenvalues --   -0.45399  -0.45064  -0.45020  -0.44794  -0.44608
 Alpha  occ. eigenvalues --   -0.44350  -0.44120  -0.43492  -0.43472  -0.43376
 Alpha  occ. eigenvalues --   -0.43193  -0.43062  -0.42932  -0.42750  -0.42476
 Alpha  occ. eigenvalues --   -0.42405  -0.42030  -0.41944  -0.41811  -0.41678
 Alpha  occ. eigenvalues --   -0.41585  -0.41317  -0.41081  -0.40894  -0.40768
 Alpha  occ. eigenvalues --   -0.40504  -0.40454  -0.40214  -0.40163  -0.39830
 Alpha  occ. eigenvalues --   -0.39560  -0.39389  -0.39217  -0.38945  -0.38753
 Alpha  occ. eigenvalues --   -0.38661  -0.38334  -0.38273  -0.38229  -0.38115
 Alpha  occ. eigenvalues --   -0.37872  -0.37791  -0.37636  -0.37445  -0.37135
 Alpha  occ. eigenvalues --   -0.36632  -0.36509  -0.36127  -0.35771  -0.35616
 Alpha  occ. eigenvalues --   -0.35454  -0.35223  -0.34933  -0.34612  -0.34469
 Alpha  occ. eigenvalues --   -0.34369  -0.33994  -0.33969  -0.33730  -0.33367
 Alpha  occ. eigenvalues --   -0.32521  -0.32402  -0.31810  -0.31628  -0.31552
 Alpha  occ. eigenvalues --   -0.31090  -0.30714  -0.30360  -0.29810  -0.29323
 Alpha  occ. eigenvalues --   -0.29276  -0.28921  -0.28235  -0.27979  -0.27873
 Alpha  occ. eigenvalues --   -0.27357  -0.26308  -0.23476  -0.21286
 Alpha virt. eigenvalues --   -0.09042  -0.06397  -0.01997  -0.01062   0.00694
 Alpha virt. eigenvalues --    0.02321   0.02920   0.03860   0.03933   0.04578
 Alpha virt. eigenvalues --    0.04959   0.05682   0.08115   0.08390   0.09414

 Mulliken charges:
               1
     1  Mg   0.822860
     2  C    0.102106
     3  C   -0.188039
     4  C   -0.223382
     5  C   -0.181364
     6  N   -0.646040
     7  C    0.380563
     8  C   -0.172389
     9  C   -0.142704
    10  C    0.321173
    11  C   -0.298616
    12  C   -0.164653
    13  C   -0.264099
    14  C    0.601761
    15  O   -0.496942
    16  O   -0.395648
    17  N   -0.708754
    18  C    0.314998
    19  C    0.021556
    20  C   -0.034645
    21  C    0.333190
    22  C   -0.368564
    23  C    0.265585
    24  O   -0.398557
    25  N   -0.701864
    26  C    0.260153
    27  C   -0.014265
    28  C    0.030655
    29  C    0.347097
    30  C    0.263807
    31  C   -0.243483
    32  C   -0.324684
    33  N   -0.715749
    34  C    0.256300
    35  C    0.023694
    36  C   -0.018637
    37  C    0.290014
    38  C   -0.343556
    39  C    0.377159
    40  O   -0.434890
    41  C   -0.358313
    42  C    0.626116
    43  O   -0.477041
    44  O   -0.476237
    45  C   -0.080086
    46  C   -0.031570
    47  C   -0.124455
    48  C    0.166118
    49  C   -0.391538
    50  C   -0.245379
    51  C   -0.174267
    52  C   -0.156079
    53  C   -0.071574
    54  C   -0.283729
    55  C   -0.172992
    56  C   -0.204204
    57  C   -0.188163
    58  C   -0.094348
    59  C   -0.278865
    60  C   -0.142696
    61  C   -0.167026
    62  C   -0.180872
    63  C   -0.013005
    64  C   -0.315118
    65  C   -0.313855
    66  H    0.083059
    67  H    0.130622
    68  H    0.089229
    69  H    0.122687
    70  H    0.107074
    71  H    0.107025
    72  H    0.088085
    73  H    0.116615
    74  H    0.121956
    75  H    0.117456
    76  H    0.129879
    77  H    0.119813
    78  H    0.104780
    79  H    0.155718
    80  H    0.124417
    81  H    0.101478
    82  H    0.127481
    83  H    0.126926
    84  H    0.080669
    85  H    0.123940
    86  H    0.127164
    87  H    0.147434
    88  H    0.161745
    89  H    0.088674
    90  H    0.165266
    91  H    0.116150
    92  H    0.121535
    93  H    0.078098
    94  H    0.154355
    95  H    0.082987
    96  H    0.113226
    97  H    0.091263
    98  H    0.086774
    99  H    0.105094
   100  H    0.095583
   101  H    0.092255
   102  H    0.086107
   103  H    0.078527
   104  H    0.081830
   105  H    0.118010
   106  H    0.107078
   107  H    0.079053
   108  H    0.069274
   109  H    0.067911
   110  H    0.090560
   111  H    0.093304
   112  H    0.093790
   113  H    0.091808
   114  H    0.081299
   115  H    0.122641
   116  H    0.105170
   117  H    0.097298
   118  H    0.096462
   119  H    0.060845
   120  H    0.062395
   121  H    0.079982
   122  H    0.083163
   123  H    0.103440
   124  H    0.109722
   125  H    0.085187
   126  H    0.093108
   127  H    0.080605
   128  H    0.093952
   129  H    0.100948
   130  H    0.127758
   131  H    0.095798
   132  H    0.144616
   133  O   -0.435495
   134  H    0.065378
 Sum of Mulliken charges =   0.00000

 Dipole moment (field-independent basis, Debye):
    X=              0.7667    Y=             -3.4639    Z=             -2.0468  Tot=              4.0958
 Quadrupole moment (field-independent basis, Debye-Ang):
   XX=           -383.6379   YY=           -431.4713   ZZ=           -393.5363
   XY=             -0.2947   XZ=             29.8000   YZ=            -33.3968

 Normal termination of Gaussian 09 at Tue Oct  8 18:10:50 2019.
