 Gaussian 09, Revision D.01,
 Gaussian 09:  ES64L-G09RevD.01 24-Apr-2013

 ----------------------------------------------------------------------
 # td=(NStates=1) iop(3/107=0140000000,3/108=0140000000) iop(3/107=0140
 000000,3/108=0140000000) CAM-B3LYP/6-31G(d,p)
 ----------------------------------------------------------------------

 --
 TD
 --
 Symbolic Z-matrix:
 Charge =  0 Multiplicity = 1

                         Standard orientation:
 ---------------------------------------------------------------------
 Center     Atomic      Atomic             Coordinates (Angstroms)
 Number     Number       Type             X           Y           Z
 ---------------------------------------------------------------------
      1         12           0       -5.563720    1.210056    0.169425
      2          6           0       -5.002293   -2.099366   -0.399502
      3          6           0       -3.501215    1.004103    2.880010
      4          6           0       -6.059015    4.516654    0.648420
      5          6           0       -8.083183    1.186429   -2.352264
      6          7           0       -4.420213   -0.329323    0.994853
      7          6           0       -4.238763   -1.663415    0.602080
      8          6           0       -3.209713   -2.314559    1.367540
      9          6           0       -2.990660   -1.383819    2.620584
     10          6           0       -3.626743   -0.133979    2.110868
     11          6           0       -3.607749   -2.001923    3.890925
     12          6           0       -1.983342   -2.655054    0.671456
     13          6           0       -0.831155   -3.591031    1.398728
     14          6           0        0.261376   -3.920210    0.540493
     15          8           0        0.438579   -3.431680   -0.552993
     16          8           0        1.062868   -4.762705    1.171844
     17          7           0       -5.015117    2.562801    1.644342
     18          6           0       -4.160805    2.319078    2.569388
     19          6           0       -3.792754    3.534960    3.307113
     20          6           0       -4.512435    4.522133    2.783568
     21          6           0       -5.288128    3.915890    1.646361
     22          6           0       -2.743458    3.671991    4.455984
     23          6           0       -4.592123    6.019068    3.013804
     24          8           0       -3.833859    6.545724    3.716841
     25          7           0       -6.728598    2.640136   -0.740929
     26          6           0       -6.814849    3.914968   -0.427393
     27          6           0       -7.756371    4.700232   -1.176855
     28          6           0       -8.346272    3.796437   -2.033701
     29          6           0       -7.724836    2.479192   -1.711164
     30          6           0       -8.051998    6.131145   -1.130209
     31          6           0       -9.462830    3.977881   -3.076270
     32          6           0       -8.870790    4.332649   -4.541594
     33          7           0       -6.400938   -0.163240   -1.121024
     34          6           0       -7.391997   -0.043449   -2.045907
     35          6           0       -7.612911   -1.271807   -2.782120
     36          6           0       -6.708094   -2.080854   -2.226488
     37          6           0       -6.034826   -1.455787   -1.120813
     38          6           0       -8.559001   -1.510164   -3.785124
     39          6           0       -6.290511   -3.592377   -2.058524
     40          8           0       -6.671824   -4.601644   -2.615548
     41          6           0       -5.141986   -3.599344   -0.997614
     42          6           0       -5.451758   -4.653212    0.160983
     43          8           0       -5.735497   -4.386074    1.261451
     44          8           0       -5.190819   -5.857572   -0.416754
     45          6           0       -5.653201   -6.944385    0.354572
     46          6           0        2.439508   -5.086052    0.537132
     47          6           0        3.522289   -4.107573    0.960720
     48          6           0        4.077631   -3.211163    0.173928
     49          6           0        3.656795   -2.895364   -1.272228
     50          6           0        5.162215   -2.291379    0.751747
     51          6           0        6.454734   -2.625486    0.052657
     52          6           0        7.586454   -1.771326    0.528192
     53          6           0        9.077036   -1.929880   -0.138721
     54          6           0        9.524988   -3.424797    0.018566
     55          6           0        9.990449   -0.847277    0.528274
     56          6           0       11.382127   -0.882620   -0.128230
     57          6           0       12.249745    0.291650    0.268219
     58          6           0       13.605103    0.435092   -0.536926
     59          6           0       14.457173   -0.763217   -0.333276
     60          6           0       14.321121    1.743289   -0.109959
     61          6           0       15.426702    2.036846   -0.978375
     62          6           0       16.110714    3.427721   -0.620682
     63          6           0       17.355437    3.807959   -1.441159
     64          6           0       17.010560    3.983007   -2.876099
     65          6           0       18.007736    5.146772   -0.902479
     66          1           0       -2.543950    1.008025    3.691762
     67          1           0       -6.219164    5.512406    0.668244
     68          1           0       -8.747027    1.269386   -3.260678
     69          1           0       -3.511443   -3.386120    1.603143
     70          1           0       -1.922258   -1.179133    2.630654
     71          1           0       -3.031042   -2.916999    4.322424
     72          1           0       -3.640831   -1.233088    4.697474
     73          1           0       -4.640226   -2.363542    3.597574
     74          1           0       -2.350321   -3.539018   -0.132984
     75          1           0       -1.278258   -1.856183    0.233733
     76          1           0       -0.508169   -3.241834    2.378117
     77          1           0       -1.255001   -4.565524    1.831900
     78          1           0       -1.785973    3.316151    4.000858
     79          1           0       -2.705176    4.730627    4.666935
     80          1           0       -2.729063    2.952143    5.408863
     81          1           0       -5.241027    6.648028    2.493649
     82          1           0      -10.303128    3.329059   -3.010552
     83          1           0      -10.029087    4.914175   -2.707447
     84          1           0       -9.653797    4.418656   -5.386883
     85          1           0       -8.141037    5.168874   -4.558591
     86          1           0       -8.150602    3.551178   -4.774276
     87          1           0       -8.352109   -0.932323   -4.702311
     88          1           0       -8.455680   -2.532493   -4.019886
     89          1           0       -9.646037   -1.126465   -3.489966
     90          1           0       -4.010876   -3.898986   -1.408751
     91          1           0        2.706963   -6.064603    1.157202
     92          1           0        2.291292   -5.245849   -0.541787
     93          1           0        3.695075   -3.990846    1.961197
     94          1           0        2.664207   -3.490969   -1.567302
     95          1           0        3.433454   -1.812449   -1.441963
     96          1           0        4.471205   -3.151616   -2.197206
     97          1           0        4.976324   -1.231051    0.476719
     98          1           0        5.353016   -2.467824    1.821043
     99          1           0        6.711479   -3.682143    0.254052
    100          1           0        6.372544   -2.426980   -0.980533
    101          1           0        7.454605   -0.593296    0.512516
    102          1           0        7.858679   -1.994066    1.609712
    103          1           0        8.847497   -1.673604   -1.257699
    104          1           0        8.967580   -4.074388   -0.641543
    105          1           0       10.525938   -3.475272   -0.506105
    106          1           0        9.669880   -3.713268    0.995655
    107          1           0        9.292165    0.036243    0.490539
    108          1           0       10.185338   -0.988533    1.562664
    109          1           0       11.710438   -1.970537   -0.023971
    110          1           0       11.198676   -0.705426   -1.149801
    111          1           0       11.698832    1.264307    0.169064
    112          1           0       12.557116    0.192044    1.331395
    113          1           0       13.541407    0.705265   -1.623528
    114          1           0       14.457352   -0.923269    0.841173
    115          1           0       13.807597   -1.538832   -0.700961
    116          1           0       15.404335   -0.580991   -0.663955
    117          1           0       13.490507    2.331219   -0.164057
    118          1           0       14.711098    1.768273    0.923432
    119          1           0       16.183927    1.156159   -1.201537
    120          1           0       15.132308    2.359094   -1.979228
    121          1           0       15.367380    4.163985   -0.760725
    122          1           0       16.268836    3.455966    0.298999
    123          1           0       18.163370    3.050390   -1.217873
    124          1           0       16.173518    4.709547   -3.083551
    125          1           0       17.814699    4.456978   -3.197513
    126          1           0       16.734719    3.079148   -3.472440
    127          1           0       18.359521    5.167290    0.115638
    128          1           0       19.012464    5.356770   -1.307998
    129          1           0       17.144445    5.831152   -0.775724
    130          1           0       -5.280875   -7.855638    0.003756
    131          1           0       -6.744649   -6.893329    0.689227
    132          1           0       -5.173459   -6.973000    1.435685
    133          8           0       -7.589818    6.947776   -0.368315
    134          1           0       -8.982650    6.397402   -1.843461
 ---------------------------------------------------------------------

 SCF Done:  E(RCAM-B3LYP) =  -3043.49968746     A.U. after   15 cycles

 Excitation energies and oscillator strengths:

 Excited State   1:      Singlet-A      2.1189 eV  585.14 nm  f=0.1725  <S**2>=0.000
     243 -> 246        0.28489
     244 -> 245        0.63363
 This state for optimization and/or second-order correction.
 Total Energy, E(TD-HF/TD-KS) =  -3043.42182003
 Copying the excited state density for this state as the 1-particle RhoCI density.

 The electronic state is 1-A.
 Alpha  occ. eigenvalues --  -46.81794 -19.23442 -19.21827 -19.19149 -19.17640
 Alpha  occ. eigenvalues --  -19.17440 -19.17356 -19.16187 -14.38047 -14.37362
 Alpha  occ. eigenvalues --  -14.37103 -14.36094 -10.35832 -10.33864 -10.32080
 Alpha  occ. eigenvalues --  -10.31166 -10.29917 -10.29527 -10.27763 -10.27096
 Alpha  occ. eigenvalues --  -10.26687 -10.26545 -10.26448 -10.26353 -10.26099
 Alpha  occ. eigenvalues --  -10.26049 -10.25797 -10.25666 -10.25408 -10.24888
 Alpha  occ. eigenvalues --  -10.24845 -10.24518 -10.24210 -10.23825 -10.23779
 Alpha  occ. eigenvalues --  -10.23671 -10.23604 -10.23553 -10.23459 -10.23315
 Alpha  occ. eigenvalues --  -10.23161 -10.23151 -10.23074 -10.23018 -10.22975
 Alpha  occ. eigenvalues --  -10.22943 -10.22673 -10.22588 -10.22473 -10.22144
 Alpha  occ. eigenvalues --  -10.21936 -10.21661 -10.21626 -10.21275 -10.21232
 Alpha  occ. eigenvalues --  -10.20872 -10.20747 -10.20720 -10.20695 -10.20533
 Alpha  occ. eigenvalues --  -10.20247 -10.20128 -10.19080 -10.18919 -10.18710
 Alpha  occ. eigenvalues --  -10.17958  -3.10296  -1.85241  -1.84750  -1.84717
 Alpha  occ. eigenvalues --   -1.15279  -1.12521  -1.10576  -1.08249  -1.07602
 Alpha  occ. eigenvalues --   -1.07067  -1.03921  -1.01639  -1.00606  -0.99945
 Alpha  occ. eigenvalues --   -0.98820  -0.86749  -0.86582  -0.85982  -0.85559
 Alpha  occ. eigenvalues --   -0.85046  -0.84341  -0.84133  -0.83331  -0.83179
 Alpha  occ. eigenvalues --   -0.83108  -0.82561  -0.81592  -0.80240  -0.79416
 Alpha  occ. eigenvalues --   -0.78457  -0.78130  -0.76894  -0.76325  -0.76260
 Alpha  occ. eigenvalues --   -0.75541  -0.74287  -0.73599  -0.71942  -0.71789
 Alpha  occ. eigenvalues --   -0.71665  -0.71106  -0.71011  -0.70270  -0.69309
 Alpha  occ. eigenvalues --   -0.68743  -0.68645  -0.67338  -0.66826  -0.66135
 Alpha  occ. eigenvalues --   -0.65780  -0.64934  -0.63287  -0.62213  -0.61729
 Alpha  occ. eigenvalues --   -0.61124  -0.60609  -0.60029  -0.59050  -0.58772
 Alpha  occ. eigenvalues --   -0.58251  -0.58114  -0.57874  -0.57395  -0.57235
 Alpha  occ. eigenvalues --   -0.56521  -0.56152  -0.55153  -0.54920  -0.54202
 Alpha  occ. eigenvalues --   -0.53703  -0.52985  -0.52655  -0.52158  -0.52077
 Alpha  occ. eigenvalues --   -0.51852  -0.51505  -0.51180  -0.50824  -0.50794
 Alpha  occ. eigenvalues --   -0.50563  -0.50214  -0.49476  -0.49391  -0.49343
 Alpha  occ. eigenvalues --   -0.48753  -0.48624  -0.48318  -0.48106  -0.47897
 Alpha  occ. eigenvalues --   -0.47863  -0.47425  -0.47260  -0.47048  -0.46939
 Alpha  occ. eigenvalues --   -0.46586  -0.46308  -0.46201  -0.46070  -0.45830
 Alpha  occ. eigenvalues --   -0.45414  -0.45129  -0.44977  -0.44929  -0.44873
 Alpha  occ. eigenvalues --   -0.44495  -0.44179  -0.44159  -0.43879  -0.43577
 Alpha  occ. eigenvalues --   -0.43446  -0.43126  -0.42987  -0.42801  -0.42687
 Alpha  occ. eigenvalues --   -0.42558  -0.42307  -0.42263  -0.42187  -0.41983
 Alpha  occ. eigenvalues --   -0.41689  -0.41621  -0.41570  -0.41184  -0.41129
 Alpha  occ. eigenvalues --   -0.40931  -0.40650  -0.40532  -0.40331  -0.40179
 Alpha  occ. eigenvalues --   -0.39902  -0.39853  -0.39802  -0.39500  -0.39032
 Alpha  occ. eigenvalues --   -0.38934  -0.38648  -0.38616  -0.38420  -0.38237
 Alpha  occ. eigenvalues --   -0.38040  -0.37868  -0.37681  -0.37505  -0.37100
 Alpha  occ. eigenvalues --   -0.36994  -0.36872  -0.35947  -0.35609  -0.35482
 Alpha  occ. eigenvalues --   -0.34979  -0.34931  -0.34685  -0.34378  -0.34300
 Alpha  occ. eigenvalues --   -0.34225  -0.34004  -0.33834  -0.33345  -0.33216
 Alpha  occ. eigenvalues --   -0.32944  -0.32727  -0.32203  -0.31964  -0.31809
 Alpha  occ. eigenvalues --   -0.30930  -0.30481  -0.30192  -0.29758  -0.29694
 Alpha  occ. eigenvalues --   -0.29229  -0.28583  -0.28135  -0.28132  -0.28000
 Alpha  occ. eigenvalues --   -0.27965  -0.27493  -0.22473  -0.21311
 Alpha virt. eigenvalues --   -0.07688  -0.05993  -0.00687  -0.00179   0.00957
 Alpha virt. eigenvalues --    0.02445   0.03070   0.03526   0.04447   0.04721
 Alpha virt. eigenvalues --    0.05369   0.05525   0.07540   0.08213   0.09128

 Mulliken charges:
               1
     1  Mg   0.830747
     2  C    0.021475
     3  C   -0.198086
     4  C   -0.162057
     5  C   -0.171371
     6  N   -0.661328
     7  C    0.383657
     8  C   -0.167532
     9  C   -0.137442
    10  C    0.350564
    11  C   -0.299576
    12  C   -0.165260
    13  C   -0.303410
    14  C    0.638412
    15  O   -0.482924
    16  O   -0.482815
    17  N   -0.682152
    18  C    0.324954
    19  C    0.014577
    20  C   -0.023528
    21  C    0.265320
    22  C   -0.379662
    23  C    0.261316
    24  O   -0.368358
    25  N   -0.669305
    26  C    0.306879
    27  C    0.019029
    28  C    0.003357
    29  C    0.229191
    30  C    0.243748
    31  C   -0.251052
    32  C   -0.321253
    33  N   -0.699052
    34  C    0.273053
    35  C    0.080836
    36  C   -0.044764
    37  C    0.277392
    38  C   -0.405872
    39  C    0.403676
    40  O   -0.445239
    41  C   -0.314184
    42  C    0.608491
    43  O   -0.417489
    44  O   -0.414882
    45  C   -0.097320
    46  C   -0.006394
    47  C   -0.134369
    48  C    0.174457
    49  C   -0.372658
    50  C   -0.226640
    51  C   -0.168162
    52  C   -0.177092
    53  C   -0.067752
    54  C   -0.317468
    55  C   -0.172574
    56  C   -0.182738
    57  C   -0.182328
    58  C   -0.076175
    59  C   -0.282424
    60  C   -0.148673
    61  C   -0.197255
    62  C   -0.162059
    63  C   -0.063288
    64  C   -0.291381
    65  C   -0.335687
    66  H    0.076779
    67  H    0.097948
    68  H    0.104696
    69  H    0.114191
    70  H    0.108549
    71  H    0.100817
    72  H    0.112729
    73  H    0.133573
    74  H    0.077004
    75  H    0.120583
    76  H    0.140143
    77  H    0.123266
    78  H    0.120280
    79  H    0.155695
    80  H    0.111499
    81  H    0.092953
    82  H    0.124800
    83  H    0.099856
    84  H    0.108753
    85  H    0.120134
    86  H    0.117072
    87  H    0.131391
    88  H    0.149326
    89  H    0.116818
    90  H    0.145074
    91  H    0.111406
    92  H    0.138904
    93  H    0.089218
    94  H    0.131399
    95  H    0.127361
    96  H    0.083493
    97  H    0.102149
    98  H    0.097226
    99  H    0.100928
   100  H    0.103459
   101  H    0.061767
   102  H    0.074547
   103  H    0.069497
   104  H    0.110351
   105  H    0.090190
   106  H    0.115467
   107  H    0.084192
   108  H    0.096204
   109  H    0.097321
   110  H    0.103760
   111  H    0.086752
   112  H    0.088125
   113  H    0.074377
   114  H    0.072409
   115  H    0.106329
   116  H    0.103488
   117  H    0.093609
   118  H    0.078738
   119  H    0.076216
   120  H    0.095816
   121  H    0.085095
   122  H    0.087448
   123  H    0.079120
   124  H    0.089742
   125  H    0.108910
   126  H    0.100468
   127  H    0.099390
   128  H    0.103817
   129  H    0.102727
   130  H    0.133619
   131  H    0.129298
   132  H    0.094629
   133  O   -0.412944
   134  H    0.049963
 Sum of Mulliken charges =   0.00000

 Dipole moment (field-independent basis, Debye):
    X=              2.1440    Y=             -4.1054    Z=             -0.3279  Tot=              4.6431
 Quadrupole moment (field-independent basis, Debye-Ang):
   XX=           -377.5824   YY=           -430.4148   ZZ=           -393.9461
   XY=              5.4819   XZ=             22.1376   YZ=            -32.5349

 Normal termination of Gaussian 09 at Tue Oct  8 01:12:17 2019.
