 Gaussian 09, Revision D.01,
 Gaussian 09:  ES64L-G09RevD.01 24-Apr-2013

 ----------------------------------------------------------------------
 # td=(NStates=1) iop(3/107=0140000000,3/108=0140000000) iop(3/107=0140
 000000,3/108=0140000000) CAM-B3LYP/6-31G(d,p)
 ----------------------------------------------------------------------

 --
 TD
 --
 Symbolic Z-matrix:
 Charge =  0 Multiplicity = 1

                         Standard orientation:
 ---------------------------------------------------------------------
 Center     Atomic      Atomic             Coordinates (Angstroms)
 Number     Number       Type             X           Y           Z
 ---------------------------------------------------------------------
      1         12           0       -5.638206    1.256956    0.162497
      2          6           0       -4.993666   -2.078470   -0.523048
      3          6           0       -3.398406    1.090055    2.845029
      4          6           0       -6.136312    4.570822    0.737650
      5          6           0       -8.085128    1.239468   -2.315054
      6          7           0       -4.427797   -0.341419    1.006925
      7          6           0       -4.236585   -1.571774    0.645173
      8          6           0       -3.220397   -2.322679    1.432094
      9          6           0       -2.883769   -1.422431    2.548126
     10          6           0       -3.681021   -0.083927    2.163842
     11          6           0       -3.483738   -1.852506    3.970892
     12          6           0       -2.029864   -2.775906    0.631585
     13          6           0       -0.990268   -3.542892    1.401893
     14          6           0        0.182303   -3.893108    0.574594
     15          8           0        0.417725   -3.514307   -0.576395
     16          8           0        0.969133   -4.885675    1.155701
     17          7           0       -4.817791    2.584410    1.434518
     18          6           0       -3.877345    2.383147    2.429918
     19          6           0       -3.652965    3.532529    3.145609
     20          6           0       -4.421837    4.571340    2.592412
     21          6           0       -5.128946    3.941473    1.474383
     22          6           0       -2.655704    3.682368    4.316548
     23          6           0       -4.391457    6.082603    2.828112
     24          8           0       -3.804978    6.640490    3.789023
     25          7           0       -6.806747    2.654419   -0.688997
     26          6           0       -6.914426    3.989229   -0.369703
     27          6           0       -7.878328    4.728528   -1.108793
     28          6           0       -8.310393    3.673366   -2.033984
     29          6           0       -7.702009    2.486941   -1.638866
     30          6           0       -8.284959    6.071120   -1.151060
     31          6           0       -9.406134    3.917643   -3.075731
     32          6           0       -8.787506    4.190993   -4.427064
     33          7           0       -6.377519   -0.051455   -1.134477
     34          6           0       -7.350798    0.064217   -2.085093
     35          6           0       -7.628181   -1.316872   -2.634078
     36          6           0       -6.782899   -2.073956   -2.034533
     37          6           0       -5.973443   -1.362523   -1.122493
     38          6           0       -8.615078   -1.684400   -3.622821
     39          6           0       -6.334972   -3.512958   -2.039595
     40          8           0       -6.732578   -4.468489   -2.616315
     41          6           0       -5.117066   -3.512054   -1.004519
     42          6           0       -5.493653   -4.576340    0.133646
     43          8           0       -5.781530   -4.337942    1.276831
     44          8           0       -5.151541   -5.847940   -0.351496
     45          6           0       -5.453113   -6.885801    0.441340
     46          6           0        2.176513   -5.094342    0.468710
     47          6           0        3.330518   -4.130792    0.999105
     48          6           0        4.039391   -3.434342    0.233981
     49          6           0        3.702622   -3.147229   -1.234624
     50          6           0        5.146035   -2.517937    0.710030
     51          6           0        6.506558   -2.758568    0.049199
     52          6           0        7.634650   -1.874801    0.690716
     53          6           0        9.010544   -1.979691    0.034870
     54          6           0        9.626875   -3.354731    0.053294
     55          6           0        9.912037   -0.964105    0.453713
     56          6           0       11.358670   -0.954391   -0.261340
     57          6           0       12.200688    0.370681    0.152938
     58          6           0       13.540648    0.444607   -0.695535
     59          6           0       14.457916   -0.738955   -0.299446
     60          6           0       14.158228    1.825855   -0.263684
     61          6           0       15.547898    2.135276   -0.978067
     62          6           0       16.098507    3.417406   -0.579049
     63          6           0       17.402963    3.829699   -1.296617
     64          6           0       17.236013    4.052652   -2.846275
     65          6           0       17.955499    5.087110   -0.793849
     66          1           0       -2.920014    1.233110    3.854653
     67          1           0       -6.355263    5.591231    1.020677
     68          1           0       -8.693111    1.404752   -3.178895
     69          1           0       -3.723876   -3.295451    1.776142
     70          1           0       -1.805504   -1.262445    2.613654
     71          1           0       -2.929391   -2.722785    4.523919
     72          1           0       -3.277280   -1.062554    4.810247
     73          1           0       -4.524058   -2.129760    3.929522
     74          1           0       -2.205895   -3.282163   -0.306724
     75          1           0       -1.507738   -1.885705    0.164266
     76          1           0       -0.439884   -3.006468    2.246607
     77          1           0       -1.523930   -4.327851    1.871264
     78          1           0       -1.798361    3.103496    3.951141
     79          1           0       -2.364671    4.751729    4.478404
     80          1           0       -3.136074    3.048779    5.000681
     81          1           0       -4.920752    6.792008    2.238769
     82          1           0       -9.821008    2.852506   -3.201996
     83          1           0      -10.240041    4.603072   -2.721508
     84          1           0       -9.713122    4.197696   -5.347208
     85          1           0       -8.084219    5.017107   -4.403341
     86          1           0       -8.153286    3.408910   -4.688730
     87          1           0       -8.401388   -1.144709   -4.666951
     88          1           0       -8.608601   -2.463804   -3.941765
     89          1           0       -9.705803   -1.221453   -3.412783
     90          1           0       -4.163580   -3.695236   -1.354371
     91          1           0        2.334048   -6.212883    0.646503
     92          1           0        2.072982   -4.903980   -0.655320
     93          1           0        3.589872   -4.360116    1.987035
     94          1           0        2.843451   -3.622574   -1.673809
     95          1           0        3.548560   -2.030850   -1.596706
     96          1           0        4.408109   -3.586779   -1.948879
     97          1           0        4.688663   -1.425165    0.374295
     98          1           0        5.113264   -2.592110    1.715145
     99          1           0        6.951468   -3.863652    0.183051
    100          1           0        6.344573   -2.624287   -0.980172
    101          1           0        7.311146   -0.719072    0.813241
    102          1           0        7.649803   -2.406556    1.644466
    103          1           0        8.799792   -1.603224   -1.144638
    104          1           0        9.049017   -4.240577   -0.764860
    105          1           0       10.723323   -3.402877   -0.299434
    106          1           0        9.565599   -3.616839    1.194482
    107          1           0        9.349571   -0.017849    0.443756
    108          1           0       10.179016   -0.927917    1.603064
    109          1           0       11.977797   -1.783302   -0.140756
    110          1           0       11.286412   -0.885255   -1.296781
    111          1           0       11.529492    1.019857    0.102839
    112          1           0       12.450453    0.239243    1.122341
    113          1           0       13.389313    0.652340   -1.656247
    114          1           0       14.809044   -0.684103    0.701855
    115          1           0       14.182279   -1.740561   -0.632403
    116          1           0       15.397637   -0.620996   -1.106851
    117          1           0       13.500891    2.590061   -0.416977
    118          1           0       14.334622    1.894639    0.961562
    119          1           0       16.184704    1.318468   -0.588458
    120          1           0       15.472529    2.048383   -2.041248
    121          1           0       15.451232    4.196317   -0.903308
    122          1           0       16.187130    3.667725    0.585239
    123          1           0       18.271603    3.093151   -1.332136
    124          1           0       16.509465    5.144893   -3.140320
    125          1           0       18.240563    4.439436   -3.227477
    126          1           0       16.685931    3.218759   -3.270657
    127          1           0       17.861517    5.100131    0.421105
    128          1           0       19.023103    5.396358   -1.219173
    129          1           0       17.170667    5.989560   -1.019972
    130          1           0       -5.468636   -7.912501    0.062558
    131          1           0       -6.545769   -6.722445    0.747582
    132          1           0       -4.738712   -6.766824    1.314995
    133          8           0       -7.760208    6.867193   -0.348724
    134          1           0       -8.797666    6.364274   -2.075846
 ---------------------------------------------------------------------

 SCF Done:  E(RCAM-B3LYP) =  -3043.35900740     A.U. after   16 cycles

 Excitation energies and oscillator strengths:

 Excited State   1:      Singlet-A      2.0669 eV  599.85 nm  f=0.1275  <S**2>=0.000
     243 -> 245       -0.12412
     243 -> 246        0.27522
     244 -> 245        0.61513
     244 -> 246        0.14586
 This state for optimization and/or second-order correction.
 Total Energy, E(TD-HF/TD-KS) =  -3043.28304989
 Copying the excited state density for this state as the 1-particle RhoCI density.

 The electronic state is 1-A.
 Alpha  occ. eigenvalues --  -46.81117 -19.22856 -19.22146 -19.19926 -19.19064
 Alpha  occ. eigenvalues --  -19.17899 -19.16578 -19.16513 -14.39939 -14.36925
 Alpha  occ. eigenvalues --  -14.36901 -14.36609 -10.37120 -10.35702 -10.32820
 Alpha  occ. eigenvalues --  -10.30345 -10.29822 -10.29065 -10.28225 -10.27609
 Alpha  occ. eigenvalues --  -10.27495 -10.27016 -10.26351 -10.25942 -10.25880
 Alpha  occ. eigenvalues --  -10.25812 -10.25585 -10.25466 -10.24975 -10.24788
 Alpha  occ. eigenvalues --  -10.24747 -10.24533 -10.24286 -10.24098 -10.24064
 Alpha  occ. eigenvalues --  -10.24031 -10.23964 -10.23782 -10.23748 -10.23716
 Alpha  occ. eigenvalues --  -10.23488 -10.23448 -10.23391 -10.22914 -10.22643
 Alpha  occ. eigenvalues --  -10.22571 -10.22494 -10.22401 -10.22274 -10.22273
 Alpha  occ. eigenvalues --  -10.22221 -10.22002 -10.21928 -10.21888 -10.21855
 Alpha  occ. eigenvalues --  -10.21832 -10.21726 -10.21581 -10.21432 -10.21297
 Alpha  occ. eigenvalues --  -10.21146 -10.20933 -10.20492 -10.20420 -10.19816
 Alpha  occ. eigenvalues --  -10.18293  -3.09876  -1.84801  -1.84369  -1.84280
 Alpha  occ. eigenvalues --   -1.14994  -1.13007  -1.10290  -1.07805  -1.05104
 Alpha  occ. eigenvalues --   -1.04445  -1.04155  -1.02100  -1.01134  -1.00302
 Alpha  occ. eigenvalues --   -0.98792  -0.89076  -0.87832  -0.86544  -0.85722
 Alpha  occ. eigenvalues --   -0.85596  -0.85132  -0.84820  -0.84285  -0.83305
 Alpha  occ. eigenvalues --   -0.82903  -0.82505  -0.82279  -0.80101  -0.79614
 Alpha  occ. eigenvalues --   -0.79043  -0.78306  -0.77768  -0.76977  -0.76308
 Alpha  occ. eigenvalues --   -0.75501  -0.74828  -0.73664  -0.73054  -0.72405
 Alpha  occ. eigenvalues --   -0.71586  -0.70603  -0.70056  -0.69809  -0.69700
 Alpha  occ. eigenvalues --   -0.69435  -0.68702  -0.67873  -0.67114  -0.66132
 Alpha  occ. eigenvalues --   -0.65580  -0.65411  -0.64048  -0.62859  -0.62562
 Alpha  occ. eigenvalues --   -0.62039  -0.61564  -0.61117  -0.60013  -0.59756
 Alpha  occ. eigenvalues --   -0.59086  -0.57925  -0.57901  -0.57206  -0.57066
 Alpha  occ. eigenvalues --   -0.56943  -0.56884  -0.56168  -0.55607  -0.55217
 Alpha  occ. eigenvalues --   -0.54804  -0.53836  -0.53418  -0.53105  -0.52828
 Alpha  occ. eigenvalues --   -0.52492  -0.51922  -0.51716  -0.51340  -0.51186
 Alpha  occ. eigenvalues --   -0.50610  -0.50422  -0.50057  -0.49700  -0.49610
 Alpha  occ. eigenvalues --   -0.49398  -0.49223  -0.48649  -0.48384  -0.48132
 Alpha  occ. eigenvalues --   -0.47925  -0.47686  -0.47474  -0.47080  -0.47012
 Alpha  occ. eigenvalues --   -0.46905  -0.46760  -0.46483  -0.46327  -0.46088
 Alpha  occ. eigenvalues --   -0.45811  -0.45468  -0.45312  -0.45228  -0.45182
 Alpha  occ. eigenvalues --   -0.44681  -0.44447  -0.44196  -0.43936  -0.43616
 Alpha  occ. eigenvalues --   -0.43363  -0.43292  -0.43160  -0.43060  -0.42919
 Alpha  occ. eigenvalues --   -0.42815  -0.42708  -0.42412  -0.42207  -0.42044
 Alpha  occ. eigenvalues --   -0.41862  -0.41641  -0.41313  -0.41230  -0.41152
 Alpha  occ. eigenvalues --   -0.40833  -0.40754  -0.40540  -0.40378  -0.39963
 Alpha  occ. eigenvalues --   -0.39943  -0.39560  -0.39485  -0.39338  -0.38967
 Alpha  occ. eigenvalues --   -0.38784  -0.38410  -0.38214  -0.38075  -0.37846
 Alpha  occ. eigenvalues --   -0.37618  -0.37369  -0.37335  -0.37154  -0.36806
 Alpha  occ. eigenvalues --   -0.36404  -0.36196  -0.36079  -0.36002  -0.35821
 Alpha  occ. eigenvalues --   -0.35753  -0.35209  -0.35176  -0.35005  -0.34846
 Alpha  occ. eigenvalues --   -0.34832  -0.34652  -0.33739  -0.33513  -0.33138
 Alpha  occ. eigenvalues --   -0.33095  -0.32940  -0.32562  -0.32088  -0.31618
 Alpha  occ. eigenvalues --   -0.31462  -0.31292  -0.30930  -0.29906  -0.29654
 Alpha  occ. eigenvalues --   -0.29389  -0.29083  -0.28820  -0.28153  -0.27635
 Alpha  occ. eigenvalues --   -0.27327  -0.27178  -0.23213  -0.21618
 Alpha virt. eigenvalues --   -0.08216  -0.06972  -0.02105  -0.01360   0.00463
 Alpha virt. eigenvalues --    0.01596   0.02187   0.03476   0.03978   0.04780
 Alpha virt. eigenvalues --    0.04955   0.05165   0.07532   0.08465   0.08656

 Mulliken charges:
               1
     1  Mg   0.833569
     2  C   -0.025927
     3  C   -0.165066
     4  C   -0.150427
     5  C   -0.169852
     6  N   -0.604095
     7  C    0.365015
     8  C   -0.145860
     9  C   -0.134774
    10  C    0.285521
    11  C   -0.319455
    12  C   -0.200230
    13  C   -0.250155
    14  C    0.605555
    15  O   -0.474274
    16  O   -0.466005
    17  N   -0.698918
    18  C    0.318716
    19  C   -0.022606
    20  C   -0.031644
    21  C    0.283720
    22  C   -0.363865
    23  C    0.236059
    24  O   -0.430622
    25  N   -0.688649
    26  C    0.236012
    27  C    0.052597
    28  C   -0.038169
    29  C    0.338391
    30  C    0.206261
    31  C   -0.244496
    32  C   -0.288677
    33  N   -0.745432
    34  C    0.272983
    35  C    0.006916
    36  C    0.039067
    37  C    0.342688
    38  C   -0.313462
    39  C    0.385157
    40  O   -0.414917
    41  C   -0.296282
    42  C    0.588668
    43  O   -0.430565
    44  O   -0.423071
    45  C   -0.075048
    46  C   -0.011897
    47  C   -0.154752
    48  C    0.181673
    49  C   -0.381656
    50  C   -0.210821
    51  C   -0.171855
    52  C   -0.170225
    53  C   -0.006286
    54  C   -0.286102
    55  C   -0.167185
    56  C   -0.211721
    57  C   -0.162054
    58  C   -0.055238
    59  C   -0.307694
    60  C   -0.181170
    61  C   -0.180152
    62  C   -0.155656
    63  C   -0.042157
    64  C   -0.281375
    65  C   -0.280654
    66  H    0.094094
    67  H    0.131764
    68  H    0.092410
    69  H    0.129168
    70  H    0.113255
    71  H    0.091569
    72  H    0.101083
    73  H    0.137653
    74  H    0.127915
    75  H    0.117587
    76  H    0.137524
    77  H    0.147270
    78  H    0.117015
    79  H    0.160340
    80  H    0.136589
    81  H    0.106413
    82  H    0.097918
    83  H    0.114574
    84  H    0.067955
    85  H    0.116571
    86  H    0.123172
    87  H    0.102124
    88  H    0.108202
    89  H    0.115892
    90  H    0.162952
    91  H    0.101708
    92  H    0.126464
    93  H    0.081577
    94  H    0.129593
    95  H    0.102279
    96  H    0.113341
    97  H    0.081246
    98  H    0.094569
    99  H    0.083212
   100  H    0.106221
   101  H    0.072546
   102  H    0.094973
   103  H    0.047927
   104  H    0.059637
   105  H    0.108230
   106  H    0.092108
   107  H    0.089790
   108  H    0.061212
   109  H    0.099801
   110  H    0.095357
   111  H    0.092863
   112  H    0.097282
   113  H    0.094616
   114  H    0.121353
   115  H    0.111372
   116  H    0.068400
   117  H    0.101400
   118  H    0.051012
   119  H    0.102319
   120  H    0.092162
   121  H    0.100739
   122  H    0.073030
   123  H    0.087200
   124  H    0.033244
   125  H    0.105928
   126  H    0.105997
   127  H    0.070875
   128  H    0.090753
   129  H    0.077081
   130  H    0.129296
   131  H    0.105296
   132  H    0.100394
   133  O   -0.438013
   134  H    0.085223
 Sum of Mulliken charges =   0.00000

 Dipole moment (field-independent basis, Debye):
    X=              1.5455    Y=             -6.2482    Z=             -1.6384  Tot=              6.6418
 Quadrupole moment (field-independent basis, Debye-Ang):
   XX=           -383.3645   YY=           -448.5133   ZZ=           -397.0036
   XY=             11.9690   XZ=             19.8687   YZ=            -32.0902

 Normal termination of Gaussian 09 at Mon Oct  7 23:23:24 2019.
