 Gaussian 09, Revision D.01,
 Gaussian 09:  ES64L-G09RevD.01 24-Apr-2013

 ----------------------------------------------------------------------
 # td=(NStates=1) iop(3/107=0140000000,3/108=0140000000) iop(3/107=0140
 000000,3/108=0140000000) CAM-B3LYP/6-31G(d,p)
 ----------------------------------------------------------------------

 --
 TD
 --
 Symbolic Z-matrix:
 Charge =  0 Multiplicity = 1

                         Standard orientation:
 ---------------------------------------------------------------------
 Center     Atomic      Atomic             Coordinates (Angstroms)
 Number     Number       Type             X           Y           Z
 ---------------------------------------------------------------------
      1         12           0       -5.634509    1.127065    0.219252
      2          6           0       -4.934633   -2.107008   -0.491791
      3          6           0       -3.569356    0.983274    2.777099
      4          6           0       -6.267014    4.458330    0.718404
      5          6           0       -8.074700    1.182301   -2.375339
      6          7           0       -4.401944   -0.376480    0.965346
      7          6           0       -4.330177   -1.703532    0.655365
      8          6           0       -3.264755   -2.478290    1.456239
      9          6           0       -2.972389   -1.475849    2.565733
     10          6           0       -3.655701   -0.186234    2.166657
     11          6           0       -3.536026   -1.938370    3.987409
     12          6           0       -1.904280   -2.725723    0.704569
     13          6           0       -1.061094   -3.633730    1.380871
     14          6           0        0.295359   -3.862035    0.616213
     15          8           0        0.523608   -3.345570   -0.471343
     16          8           0        1.137425   -4.628539    1.270392
     17          7           0       -5.091005    2.511278    1.551917
     18          6           0       -4.060030    2.264951    2.577644
     19          6           0       -3.820325    3.485521    3.276694
     20          6           0       -4.578139    4.512129    2.709663
     21          6           0       -5.308705    3.911779    1.546123
     22          6           0       -2.887770    3.724349    4.463366
     23          6           0       -4.589261    5.955695    2.967703
     24          8           0       -4.095976    6.481573    3.973303
     25          7           0       -6.860440    2.659731   -0.803115
     26          6           0       -6.935598    3.887306   -0.325325
     27          6           0       -7.874877    4.579144   -1.201090
     28          6           0       -8.415247    3.684335   -2.078016
     29          6           0       -7.756956    2.483806   -1.804840
     30          6           0       -8.367809    6.076168   -1.120811
     31          6           0       -9.424265    3.921042   -3.221532
     32          6           0       -8.820065    4.158499   -4.551622
     33          7           0       -6.364393   -0.150452   -1.110548
     34          6           0       -7.383951    0.044411   -2.057434
     35          6           0       -7.575866   -1.204824   -2.685731
     36          6           0       -6.705179   -2.157441   -2.163588
     37          6           0       -5.971536   -1.414589   -1.182926
     38          6           0       -8.512474   -1.600060   -3.901355
     39          6           0       -6.221990   -3.521992   -2.117924
     40          8           0       -6.511246   -4.440492   -2.762951
     41          6           0       -5.025163   -3.575326   -1.075749
     42          6           0       -5.257187   -4.572839   -0.002553
     43          8           0       -5.601381   -4.407274    1.204887
     44          8           0       -5.023481   -5.809403   -0.489202
     45          6           0       -5.533220   -6.919186    0.259507
     46          6           0        2.400248   -5.019171    0.715288
     47          6           0        3.462234   -3.909743    1.012484
     48          6           0        4.021154   -3.141124    0.213160
     49          6           0        3.685951   -2.936114   -1.243313
     50          6           0        5.025198   -2.251177    0.794382
     51          6           0        6.587132   -2.521306    0.188162
     52          6           0        7.594359   -1.645596    0.675626
     53          6           0        9.008841   -1.938113    0.033953
     54          6           0        9.521120   -3.316835    0.432164
     55          6           0        9.980411   -0.830553    0.504457
     56          6           0       11.397446   -0.772983   -0.229402
     57          6           0       12.292772    0.353888    0.265754
     58          6           0       13.639034    0.517614   -0.554817
     59          6           0       14.499942   -0.763356   -0.540766
     60          6           0       14.312980    1.809612   -0.101665
     61          6           0       15.559883    2.139371   -1.012288
     62          6           0       16.251875    3.443916   -0.624980
     63          6           0       17.504357    3.759668   -1.454192
     64          6           0       17.245979    3.743927   -2.922897
     65          6           0       18.206402    5.124028   -0.975526
     66          1           0       -2.822520    0.921006    3.577294
     67          1           0       -6.466815    5.676245    0.628292
     68          1           0       -8.944256    0.990831   -3.048586
     69          1           0       -3.683977   -3.407069    1.843502
     70          1           0       -1.908397   -1.072162    2.827608
     71          1           0       -3.144229   -2.952059    4.209291
     72          1           0       -3.291557   -1.333095    4.855959
     73          1           0       -4.682903   -1.896509    3.927932
     74          1           0       -2.298906   -2.878011   -0.443879
     75          1           0       -1.478112   -1.608667    0.292904
     76          1           0       -0.887487   -3.318938    2.463856
     77          1           0       -1.627162   -4.607859    1.659956
     78          1           0       -1.752935    3.603104    4.163245
     79          1           0       -3.021679    4.662897    4.822604
     80          1           0       -3.035427    2.973947    5.372194
     81          1           0       -5.380048    6.760544    2.368566
     82          1           0      -10.019019    2.891611   -3.206411
     83          1           0      -10.132482    4.587778   -2.693707
     84          1           0       -9.584141    4.196738   -5.346219
     85          1           0       -8.271740    5.053443   -4.648563
     86          1           0       -8.060432    3.179844   -4.935935
     87          1           0       -7.830351   -1.330715   -4.929343
     88          1           0       -8.532377   -2.734108   -3.744034
     89          1           0       -9.560649   -0.887014   -4.044470
     90          1           0       -4.278564   -3.840060   -1.711965
     91          1           0        2.730775   -5.896465    1.326347
     92          1           0        2.460366   -5.123650   -0.425971
     93          1           0        3.538105   -3.961387    2.040779
     94          1           0        2.537306   -3.247259   -1.473169
     95          1           0        3.343446   -1.837516   -1.550818
     96          1           0        4.390544   -3.107432   -2.137377
     97          1           0        4.878346   -1.168090    0.542539
     98          1           0        5.065746   -2.546674    1.893788
     99          1           0        6.813569   -3.710674    0.294866
    100          1           0        6.643781   -2.370469   -1.052608
    101          1           0        7.327709   -0.494654    0.385929
    102          1           0        7.650320   -1.827131    1.809666
    103          1           0        8.759448   -1.754353   -0.955135
    104          1           0        8.829402   -4.223853    0.166427
    105          1           0       10.471989   -3.534926   -0.169254
    106          1           0        9.865983   -3.309065    1.483976
    107          1           0        9.699759    0.197574    0.356120
    108          1           0       10.217771   -0.969074    1.640326
    109          1           0       11.922249   -1.831908   -0.281215
    110          1           0       11.395093   -0.633911   -1.359006
    111          1           0       11.616412    1.287263    0.207272
    112          1           0       12.317347    0.170479    1.402566
    113          1           0       13.475843    0.605691   -1.590512
    114          1           0       14.805785   -1.137522    0.386350
    115          1           0       13.702263   -1.581573   -0.841173
    116          1           0       15.272581   -0.758857   -1.204103
    117          1           0       13.380578    2.442044   -0.131932
    118          1           0       14.859165    1.893054    1.018340
    119          1           0       16.219565    1.207430   -0.975396
    120          1           0       15.053827    2.381011   -2.001547
    121          1           0       15.660758    4.142862   -0.825598
    122          1           0       16.118243    3.494705    0.460891
    123          1           0       18.368283    3.102309   -1.274843
    124          1           0       16.578140    4.505288   -3.485502
    125          1           0       18.207927    3.746417   -3.675960
    126          1           0       16.740278    2.788038   -3.263587
    127          1           0       18.402618    5.008586    0.038918
    128          1           0       19.088894    5.624373   -1.510111
    129          1           0       17.459182    5.953741   -1.062158
    130          1           0       -5.418863   -7.672587   -0.352283
    131          1           0       -6.621266   -6.781380    0.626244
    132          1           0       -4.997001   -7.094544    1.345650
    133          8           0       -7.913801    6.849558   -0.327262
    134          1           0       -9.000337    6.268444   -2.009944
 ---------------------------------------------------------------------

 SCF Done:  E(RCAM-B3LYP) =  -3043.39554349     A.U. after   15 cycles

 Excitation energies and oscillator strengths:

 Excited State   1:      Singlet-A      2.0414 eV  607.34 nm  f=0.1818  <S**2>=0.000
     243 -> 246        0.26600
     244 -> 245        0.64811
 This state for optimization and/or second-order correction.
 Total Energy, E(TD-HF/TD-KS) =  -3043.32052188
 Copying the excited state density for this state as the 1-particle RhoCI density.

 The electronic state is 1-A.
 Alpha  occ. eigenvalues --  -46.80733 -19.23556 -19.23278 -19.18700 -19.17843
 Alpha  occ. eigenvalues --  -19.17326 -19.17201 -19.16832 -14.38278 -14.37024
 Alpha  occ. eigenvalues --  -14.36198 -14.36096 -10.35866 -10.35723 -10.31750
 Alpha  occ. eigenvalues --  -10.31602 -10.31339 -10.28669 -10.27894 -10.27283
 Alpha  occ. eigenvalues --  -10.27246 -10.26817 -10.26779 -10.26674 -10.25937
 Alpha  occ. eigenvalues --  -10.25852 -10.25720 -10.25683 -10.25477 -10.25347
 Alpha  occ. eigenvalues --  -10.25155 -10.25122 -10.24961 -10.24844 -10.24832
 Alpha  occ. eigenvalues --  -10.24423 -10.24181 -10.24151 -10.23965 -10.23778
 Alpha  occ. eigenvalues --  -10.23447 -10.23370 -10.22972 -10.22654 -10.22547
 Alpha  occ. eigenvalues --  -10.22535 -10.22493 -10.22397 -10.22226 -10.22140
 Alpha  occ. eigenvalues --  -10.22099 -10.22051 -10.22046 -10.22033 -10.21972
 Alpha  occ. eigenvalues --  -10.21951 -10.21842 -10.21832 -10.21811 -10.21715
 Alpha  occ. eigenvalues --  -10.21678 -10.21500 -10.20147 -10.20045 -10.19308
 Alpha  occ. eigenvalues --  -10.19060  -3.09382  -1.84316  -1.83848  -1.83804
 Alpha  occ. eigenvalues --   -1.14794  -1.13439  -1.11162  -1.08998  -1.05397
 Alpha  occ. eigenvalues --   -1.04884  -1.02940  -1.01044  -1.00267  -0.98637
 Alpha  occ. eigenvalues --   -0.96269  -0.88274  -0.87070  -0.86009  -0.85538
 Alpha  occ. eigenvalues --   -0.85263  -0.84669  -0.84600  -0.83525  -0.83253
 Alpha  occ. eigenvalues --   -0.83197  -0.82167  -0.81424  -0.80317  -0.79440
 Alpha  occ. eigenvalues --   -0.78452  -0.78138  -0.77779  -0.77318  -0.76586
 Alpha  occ. eigenvalues --   -0.74982  -0.74231  -0.73263  -0.73184  -0.71757
 Alpha  occ. eigenvalues --   -0.70992  -0.70929  -0.70327  -0.69798  -0.69613
 Alpha  occ. eigenvalues --   -0.69242  -0.68812  -0.67009  -0.66638  -0.65846
 Alpha  occ. eigenvalues --   -0.65102  -0.64425  -0.63953  -0.62453  -0.61867
 Alpha  occ. eigenvalues --   -0.61301  -0.60804  -0.59650  -0.59341  -0.59231
 Alpha  occ. eigenvalues --   -0.59095  -0.58134  -0.57621  -0.57444  -0.57182
 Alpha  occ. eigenvalues --   -0.56701  -0.56278  -0.54996  -0.54905  -0.54681
 Alpha  occ. eigenvalues --   -0.54444  -0.53170  -0.52415  -0.52050  -0.51832
 Alpha  occ. eigenvalues --   -0.51446  -0.51260  -0.50821  -0.50785  -0.50691
 Alpha  occ. eigenvalues --   -0.50147  -0.49681  -0.49371  -0.49174  -0.48863
 Alpha  occ. eigenvalues --   -0.48547  -0.48232  -0.47998  -0.47849  -0.47795
 Alpha  occ. eigenvalues --   -0.47651  -0.47182  -0.46855  -0.46736  -0.46553
 Alpha  occ. eigenvalues --   -0.46329  -0.46130  -0.45956  -0.45808  -0.45574
 Alpha  occ. eigenvalues --   -0.45528  -0.45387  -0.45188  -0.45141  -0.44709
 Alpha  occ. eigenvalues --   -0.44588  -0.44429  -0.44279  -0.43828  -0.43535
 Alpha  occ. eigenvalues --   -0.43434  -0.43365  -0.43167  -0.42939  -0.42861
 Alpha  occ. eigenvalues --   -0.42700  -0.42521  -0.42420  -0.42245  -0.41960
 Alpha  occ. eigenvalues --   -0.41225  -0.41058  -0.40969  -0.40666  -0.40648
 Alpha  occ. eigenvalues --   -0.40466  -0.40048  -0.40001  -0.39921  -0.39668
 Alpha  occ. eigenvalues --   -0.39245  -0.39120  -0.39068  -0.38851  -0.38700
 Alpha  occ. eigenvalues --   -0.38247  -0.38232  -0.38030  -0.37931  -0.37694
 Alpha  occ. eigenvalues --   -0.37488  -0.37432  -0.37378  -0.37116  -0.37038
 Alpha  occ. eigenvalues --   -0.36923  -0.36724  -0.36651  -0.35729  -0.35645
 Alpha  occ. eigenvalues --   -0.35323  -0.35131  -0.34680  -0.34434  -0.34204
 Alpha  occ. eigenvalues --   -0.34081  -0.33477  -0.32921  -0.32866  -0.32842
 Alpha  occ. eigenvalues --   -0.32430  -0.31903  -0.31774  -0.31672  -0.31564
 Alpha  occ. eigenvalues --   -0.31390  -0.30961  -0.30867  -0.30268  -0.30198
 Alpha  occ. eigenvalues --   -0.28762  -0.28445  -0.28233  -0.28078  -0.27860
 Alpha  occ. eigenvalues --   -0.27657  -0.27061  -0.22946  -0.22008
 Alpha virt. eigenvalues --   -0.08824  -0.06339  -0.01306  -0.00643   0.00622
 Alpha virt. eigenvalues --    0.01875   0.03157   0.03980   0.04311   0.04875
 Alpha virt. eigenvalues --    0.05040   0.06291   0.07194   0.08633   0.09243

 Mulliken charges:
               1
     1  Mg   0.821938
     2  C    0.005303
     3  C   -0.216898
     4  C   -0.177165
     5  C   -0.150144
     6  N   -0.640690
     7  C    0.316086
     8  C   -0.151468
     9  C   -0.148890
    10  C    0.374612
    11  C   -0.316452
    12  C   -0.133493
    13  C   -0.277195
    14  C    0.612409
    15  O   -0.466236
    16  O   -0.434272
    17  N   -0.698702
    18  C    0.310775
    19  C    0.051022
    20  C   -0.000160
    21  C    0.286902
    22  C   -0.373298
    23  C    0.215810
    24  O   -0.409965
    25  N   -0.680408
    26  C    0.339547
    27  C   -0.097296
    28  C    0.012496
    29  C    0.270903
    30  C    0.275239
    31  C   -0.219868
    32  C   -0.291103
    33  N   -0.757740
    34  C    0.327386
    35  C   -0.045423
    36  C    0.065340
    37  C    0.295760
    38  C   -0.346345
    39  C    0.331769
    40  O   -0.406989
    41  C   -0.290693
    42  C    0.623631
    43  O   -0.507956
    44  O   -0.431830
    45  C   -0.069644
    46  C   -0.020445
    47  C   -0.167329
    48  C    0.255912
    49  C   -0.418769
    50  C   -0.239951
    51  C   -0.162255
    52  C   -0.144398
    53  C   -0.038885
    54  C   -0.311711
    55  C   -0.172775
    56  C   -0.190569
    57  C   -0.174665
    58  C   -0.052918
    59  C   -0.318222
    60  C   -0.162397
    61  C   -0.188864
    62  C   -0.157531
    63  C   -0.047112
    64  C   -0.314348
    65  C   -0.327182
    66  H    0.074588
    67  H    0.142310
    68  H    0.100154
    69  H    0.139328
    70  H    0.106680
    71  H    0.106339
    72  H    0.113777
    73  H    0.119511
    74  H    0.095559
    75  H    0.098890
    76  H    0.134148
    77  H    0.134633
    78  H    0.110462
    79  H    0.165868
    80  H    0.102894
    81  H    0.069461
    82  H    0.090771
    83  H    0.116942
    84  H    0.117128
    85  H    0.129067
    86  H    0.080522
    87  H    0.112724
    88  H    0.152361
    89  H    0.095474
    90  H    0.167926
    91  H    0.116914
    92  H    0.128242
    93  H    0.089880
    94  H    0.136347
    95  H    0.103360
    96  H    0.117782
    97  H    0.101178
    98  H    0.091116
    99  H    0.074968
   100  H    0.050276
   101  H    0.071060
   102  H    0.076892
   103  H    0.094172
   104  H    0.096688
   105  H    0.100042
   106  H    0.109502
   107  H    0.096331
   108  H    0.078199
   109  H    0.075988
   110  H    0.078055
   111  H    0.078851
   112  H    0.088647
   113  H    0.100512
   114  H    0.112431
   115  H    0.076042
   116  H    0.111032
   117  H    0.085486
   118  H    0.055632
   119  H    0.095268
   120  H    0.090737
   121  H    0.112337
   122  H    0.082504
   123  H    0.097946
   124  H    0.092437
   125  H    0.078519
   126  H    0.101124
   127  H    0.111129
   128  H    0.095799
   129  H    0.089147
   130  H    0.134419
   131  H    0.126703
   132  H    0.100230
   133  O   -0.400982
   134  H    0.077346
 Sum of Mulliken charges =   0.00000

 Dipole moment (field-independent basis, Debye):
    X=              0.6276    Y=             -5.0304    Z=             -1.8516  Tot=              5.3970
 Quadrupole moment (field-independent basis, Debye-Ang):
   XX=           -385.9622   YY=           -429.9192   ZZ=           -395.8142
   XY=              3.8584   XZ=             28.0956   YZ=            -40.6297

 Normal termination of Gaussian 09 at Mon Oct  7 12:42:46 2019.
