 Gaussian 09, Revision D.01,
 Gaussian 09:  ES64L-G09RevD.01 24-Apr-2013

 ----------------------------------------------------------------------
 # td=(NStates=1) iop(3/107=0140000000,3/108=0140000000) iop(3/107=0140
 000000,3/108=0140000000) CAM-B3LYP/6-31G(d,p)
 ----------------------------------------------------------------------

 --
 TD
 --
 Symbolic Z-matrix:
 Charge =  0 Multiplicity = 1

                         Standard orientation:
 ---------------------------------------------------------------------
 Center     Atomic      Atomic             Coordinates (Angstroms)
 Number     Number       Type             X           Y           Z
 ---------------------------------------------------------------------
      1         12           0       -5.607550    1.240071    0.176370
      2          6           0       -5.128753   -2.213995   -0.264508
      3          6           0       -3.385649    1.257940    2.604461
      4          6           0       -6.260832    4.533586    0.670504
      5          6           0       -8.116785    1.104937   -2.336025
      6          7           0       -4.502914   -0.286837    1.098367
      7          6           0       -4.287321   -1.576442    0.667714
      8          6           0       -3.218590   -2.330049    1.422653
      9          6           0       -2.968920   -1.223481    2.603895
     10          6           0       -3.641577   -0.027951    2.132655
     11          6           0       -3.441850   -1.794779    3.996594
     12          6           0       -1.889322   -2.640226    0.634536
     13          6           0       -0.838856   -3.390130    1.484521
     14          6           0        0.349364   -3.797916    0.576627
     15          8           0        0.450256   -3.372965   -0.498706
     16          8           0        1.096372   -4.699737    1.246808
     17          7           0       -4.939541    2.704128    1.323208
     18          6           0       -3.985860    2.429702    2.333737
     19          6           0       -3.726065    3.626615    3.099237
     20          6           0       -4.456639    4.670808    2.550593
     21          6           0       -5.309917    4.065741    1.422188
     22          6           0       -2.706565    3.699083    4.104598
     23          6           0       -4.540116    6.118092    2.797295
     24          8           0       -3.858537    6.650981    3.678615
     25          7           0       -6.965123    2.552704   -0.696341
     26          6           0       -6.950050    3.908619   -0.411747
     27          6           0       -7.990783    4.628692   -1.224702
     28          6           0       -8.421749    3.640336   -2.060693
     29          6           0       -7.837968    2.381779   -1.713302
     30          6           0       -8.459850    6.080833   -1.088728
     31          6           0       -9.527789    3.772830   -3.100784
     32          6           0       -8.910809    4.008265   -4.518019
     33          7           0       -6.480881   -0.184815   -1.006218
     34          6           0       -7.447234   -0.119341   -1.986397
     35          6           0       -7.628100   -1.439510   -2.617124
     36          6           0       -6.776843   -2.235711   -1.945107
     37          6           0       -6.092082   -1.453567   -1.009959
     38          6           0       -8.513386   -1.817992   -3.733317
     39          6           0       -6.173125   -3.574042   -2.005484
     40          8           0       -6.486725   -4.607652   -2.665721
     41          6           0       -5.010627   -3.643229   -0.821977
     42          6           0       -5.364049   -4.621947    0.125136
     43          8           0       -5.835409   -4.436376    1.234273
     44          8           0       -5.179274   -5.947837   -0.355283
     45          6           0       -5.438644   -6.919129    0.552138
     46          6           0        2.381685   -5.004111    0.602325
     47          6           0        3.417662   -4.037043    0.952419
     48          6           0        4.142319   -3.267170    0.189540
     49          6           0        3.797632   -3.105158   -1.293367
     50          6           0        5.237436   -2.287370    0.776236
     51          6           0        6.597383   -2.547126    0.122389
     52          6           0        7.729431   -1.663030    0.755623
     53          6           0        9.004691   -1.905489   -0.070197
     54          6           0        9.451450   -3.333321    0.186545
     55          6           0        9.983854   -0.880089    0.458159
     56          6           0       11.352643   -0.821792   -0.269428
     57          6           0       12.176342    0.301241    0.086044
     58          6           0       13.565512    0.468716   -0.602584
     59          6           0       14.490095   -0.757326   -0.414612
     60          6           0       14.256661    1.706330   -0.114520
     61          6           0       15.505643    2.059684   -0.907446
     62          6           0       16.111766    3.522041   -0.639774
     63          6           0       17.458522    3.836927   -1.386283
     64          6           0       17.393358    3.839854   -2.914459
     65          6           0       18.136747    5.078776   -0.808693
     66          1           0       -2.570066    1.332345    3.290386
     67          1           0       -6.446047    5.611532    0.664142
     68          1           0       -9.035065    1.138995   -3.038365
     69          1           0       -3.510671   -3.387094    1.961760
     70          1           0       -1.819722   -1.151276    2.703869
     71          1           0       -3.006002   -2.667621    4.199258
     72          1           0       -3.351701   -1.066631    4.676810
     73          1           0       -4.556020   -1.880408    3.899733
     74          1           0       -2.031277   -3.133416   -0.346032
     75          1           0       -1.410362   -1.747659    0.083628
     76          1           0       -0.270244   -2.678634    2.208775
     77          1           0       -1.438898   -4.255698    1.859067
     78          1           0       -1.824213    3.337400    3.741834
     79          1           0       -2.438686    4.754004    4.397440
     80          1           0       -2.966065    3.414727    5.375490
     81          1           0       -5.121702    6.672688    2.054944
     82          1           0      -10.133597    2.986681   -3.149346
     83          1           0      -10.178507    4.604447   -2.958465
     84          1           0       -9.674534    4.007885   -5.396852
     85          1           0       -8.447085    4.961641   -4.729948
     86          1           0       -8.091598    3.173070   -4.839133
     87          1           0       -8.313334   -1.184556   -4.583270
     88          1           0       -8.394383   -2.977892   -3.889131
     89          1           0       -9.605872   -1.627914   -3.456586
     90          1           0       -4.072764   -3.955392   -1.394381
     91          1           0        2.494112   -6.108041    1.058664
     92          1           0        2.058045   -4.961940   -0.488588
     93          1           0        3.597650   -3.935397    2.121441
     94          1           0        2.506293   -3.274061   -1.357219
     95          1           0        3.913499   -2.121630   -1.639459
     96          1           0        4.377498   -3.754466   -1.873910
     97          1           0        4.616833   -1.204315    0.396863
     98          1           0        5.348213   -2.279656    1.940906
     99          1           0        6.656800   -3.724907    0.239942
    100          1           0        6.730662   -2.365427   -0.967501
    101          1           0        7.624791   -0.464550    0.763253
    102          1           0        7.811091   -1.829963    1.846513
    103          1           0        8.846154   -1.629379   -1.027544
    104          1           0        8.812737   -4.168635   -0.317149
    105          1           0       10.475132   -3.550222   -0.197027
    106          1           0        9.429746   -3.713607    1.284786
    107          1           0        9.460723    0.019176    0.428035
    108          1           0       10.194028   -0.942499    1.532164
    109          1           0       11.762214   -1.719761    0.030628
    110          1           0       11.211889   -0.914662   -1.348069
    111          1           0       11.599490    1.272844   -0.004276
    112          1           0       12.371998    0.331509    1.245423
    113          1           0       13.537928    0.586960   -1.722519
    114          1           0       14.703534   -1.144148    0.559539
    115          1           0       14.258561   -1.710605   -1.102455
    116          1           0       15.372351   -0.570958   -0.903029
    117          1           0       13.316968    2.351884   -0.151522
    118          1           0       14.375215    1.496243    1.008038
    119          1           0       16.391767    1.379769   -0.607600
    120          1           0       15.340844    1.834426   -2.035130
    121          1           0       15.426656    4.302070   -1.105647
    122          1           0       16.130803    3.592734    0.515196
    123          1           0       18.076911    3.069716   -1.177377
    124          1           0       16.718819    4.495636   -3.364490
    125          1           0       18.316554    4.043929   -3.329679
    126          1           0       16.890639    2.861116   -3.356317
    127          1           0       18.277800    4.974575    0.341579
    128          1           0       18.986515    5.190210   -1.592563
    129          1           0       17.474927    5.929154   -1.044376
    130          1           0       -4.998069   -7.851409    0.075178
    131          1           0       -6.742093   -7.320791    0.657145
    132          1           0       -5.106968   -6.700869    1.521381
    133          8           0       -7.918563    6.833151   -0.327911
    134          1           0       -9.136946    6.337303   -1.729771
 ---------------------------------------------------------------------

 SCF Done:  E(RCAM-B3LYP) =  -3043.48316214     A.U. after   15 cycles

 Excitation energies and oscillator strengths:

 Excited State   1:      Singlet-A      2.0448 eV  606.34 nm  f=0.1647  <S**2>=0.000
     243 -> 246       -0.28706
     244 -> 245        0.63628
 This state for optimization and/or second-order correction.
 Total Energy, E(TD-HF/TD-KS) =  -3043.40801750
 Copying the excited state density for this state as the 1-particle RhoCI density.

 The electronic state is 1-A.
 Alpha  occ. eigenvalues --  -46.81018 -19.22222 -19.21639 -19.18680 -19.18272
 Alpha  occ. eigenvalues --  -19.17899 -19.17496 -19.17063 -14.39277 -14.37008
 Alpha  occ. eigenvalues --  -14.36845 -14.36558 -10.35094 -10.34757 -10.32844
 Alpha  occ. eigenvalues --  -10.30666 -10.30313 -10.28744 -10.27786 -10.27670
 Alpha  occ. eigenvalues --  -10.27460 -10.26817 -10.26575 -10.26532 -10.26055
 Alpha  occ. eigenvalues --  -10.25847 -10.25845 -10.25812 -10.25714 -10.25652
 Alpha  occ. eigenvalues --  -10.25076 -10.24847 -10.24711 -10.24607 -10.24549
 Alpha  occ. eigenvalues --  -10.24308 -10.23966 -10.23864 -10.23533 -10.23486
 Alpha  occ. eigenvalues --  -10.23370 -10.23298 -10.23226 -10.22907 -10.22877
 Alpha  occ. eigenvalues --  -10.22730 -10.22566 -10.22373 -10.22197 -10.22118
 Alpha  occ. eigenvalues --  -10.22065 -10.21970 -10.21788 -10.21750 -10.21703
 Alpha  occ. eigenvalues --  -10.21699 -10.21392 -10.21360 -10.21154 -10.21104
 Alpha  occ. eigenvalues --  -10.20755 -10.20642 -10.19995 -10.19698 -10.19555
 Alpha  occ. eigenvalues --  -10.19361  -3.09709  -1.84638  -1.84178  -1.84131
 Alpha  occ. eigenvalues --   -1.15050  -1.12917  -1.08948  -1.07618  -1.05676
 Alpha  occ. eigenvalues --   -1.05015  -1.04776  -1.01375  -0.99967  -0.99290
 Alpha  occ. eigenvalues --   -0.97270  -0.88378  -0.86620  -0.86070  -0.85607
 Alpha  occ. eigenvalues --   -0.84825  -0.84579  -0.84426  -0.84337  -0.83336
 Alpha  occ. eigenvalues --   -0.83225  -0.82717  -0.81458  -0.80698  -0.80067
 Alpha  occ. eigenvalues --   -0.78757  -0.78205  -0.77442  -0.77179  -0.75954
 Alpha  occ. eigenvalues --   -0.75125  -0.75014  -0.73787  -0.72377  -0.71795
 Alpha  occ. eigenvalues --   -0.71182  -0.71027  -0.70746  -0.70207  -0.69778
 Alpha  occ. eigenvalues --   -0.69172  -0.68827  -0.68231  -0.67116  -0.66527
 Alpha  occ. eigenvalues --   -0.65846  -0.64798  -0.64464  -0.62156  -0.61881
 Alpha  occ. eigenvalues --   -0.61101  -0.60788  -0.60500  -0.60214  -0.59240
 Alpha  occ. eigenvalues --   -0.58832  -0.58238  -0.58019  -0.57879  -0.57366
 Alpha  occ. eigenvalues --   -0.56552  -0.55965  -0.55758  -0.55317  -0.55081
 Alpha  occ. eigenvalues --   -0.54357  -0.53518  -0.52934  -0.52745  -0.52689
 Alpha  occ. eigenvalues --   -0.52130  -0.51354  -0.51132  -0.50628  -0.50430
 Alpha  occ. eigenvalues --   -0.49800  -0.49720  -0.49471  -0.49255  -0.48848
 Alpha  occ. eigenvalues --   -0.48486  -0.48433  -0.48118  -0.48037  -0.47868
 Alpha  occ. eigenvalues --   -0.47556  -0.47538  -0.47168  -0.47084  -0.47043
 Alpha  occ. eigenvalues --   -0.46991  -0.46546  -0.46461  -0.46208  -0.45916
 Alpha  occ. eigenvalues --   -0.45761  -0.45596  -0.45223  -0.44852  -0.44761
 Alpha  occ. eigenvalues --   -0.44491  -0.44339  -0.44032  -0.43883  -0.43692
 Alpha  occ. eigenvalues --   -0.43595  -0.43362  -0.43260  -0.43009  -0.42930
 Alpha  occ. eigenvalues --   -0.42651  -0.42489  -0.42365  -0.42227  -0.42011
 Alpha  occ. eigenvalues --   -0.41747  -0.41048  -0.40971  -0.40893  -0.40721
 Alpha  occ. eigenvalues --   -0.40513  -0.40472  -0.40264  -0.40078  -0.39957
 Alpha  occ. eigenvalues --   -0.39740  -0.39626  -0.39432  -0.39165  -0.38799
 Alpha  occ. eigenvalues --   -0.38737  -0.38434  -0.38291  -0.38172  -0.38115
 Alpha  occ. eigenvalues --   -0.37827  -0.37602  -0.37562  -0.37313  -0.37221
 Alpha  occ. eigenvalues --   -0.37006  -0.36871  -0.36239  -0.36020  -0.35827
 Alpha  occ. eigenvalues --   -0.35467  -0.35397  -0.35128  -0.34856  -0.34568
 Alpha  occ. eigenvalues --   -0.34324  -0.34040  -0.33642  -0.33558  -0.33286
 Alpha  occ. eigenvalues --   -0.33210  -0.32584  -0.32267  -0.31943  -0.31563
 Alpha  occ. eigenvalues --   -0.31216  -0.31187  -0.30582  -0.30381  -0.29740
 Alpha  occ. eigenvalues --   -0.29205  -0.29066  -0.28436  -0.28118  -0.28032
 Alpha  occ. eigenvalues --   -0.27880  -0.27638  -0.23068  -0.21510
 Alpha virt. eigenvalues --   -0.08233  -0.06766  -0.02368  -0.01268  -0.00481
 Alpha virt. eigenvalues --    0.02088   0.03137   0.03373   0.03873   0.04890
 Alpha virt. eigenvalues --    0.05134   0.05909   0.08128   0.08488   0.09328

 Mulliken charges:
               1
     1  Mg   0.825264
     2  C    0.073558
     3  C   -0.201689
     4  C   -0.205255
     5  C   -0.173165
     6  N   -0.641669
     7  C    0.296663
     8  C   -0.149842
     9  C   -0.178885
    10  C    0.379619
    11  C   -0.302204
    12  C   -0.190554
    13  C   -0.254812
    14  C    0.597156
    15  O   -0.423736
    16  O   -0.466112
    17  N   -0.742837
    18  C    0.357515
    19  C    0.079835
    20  C   -0.006302
    21  C    0.322614
    22  C   -0.413350
    23  C    0.241871
    24  O   -0.423840
    25  N   -0.667379
    26  C    0.238964
    27  C   -0.049357
    28  C    0.001572
    29  C    0.311540
    30  C    0.307675
    31  C   -0.235976
    32  C   -0.322179
    33  N   -0.709182
    34  C    0.254805
    35  C    0.035585
    36  C    0.064829
    37  C    0.306644
    38  C   -0.394826
    39  C    0.343971
    40  O   -0.461635
    41  C   -0.344487
    42  C    0.663405
    43  O   -0.463285
    44  O   -0.438384
    45  C   -0.051850
    46  C   -0.029113
    47  C   -0.099949
    48  C    0.117347
    49  C   -0.376757
    50  C   -0.193804
    51  C   -0.167382
    52  C   -0.172601
    53  C   -0.037662
    54  C   -0.310633
    55  C   -0.193153
    56  C   -0.167569
    57  C   -0.171518
    58  C   -0.057094
    59  C   -0.316518
    60  C   -0.145462
    61  C   -0.184160
    62  C   -0.169626
    63  C   -0.051767
    64  C   -0.327285
    65  C   -0.299559
    66  H    0.084654
    67  H    0.127052
    68  H    0.101765
    69  H    0.108270
    70  H    0.098518
    71  H    0.124301
    72  H    0.121696
    73  H    0.120002
    74  H    0.114006
    75  H    0.107512
    76  H    0.129070
    77  H    0.129178
    78  H    0.135606
    79  H    0.157435
    80  H    0.092311
    81  H    0.097747
    82  H    0.120593
    83  H    0.110940
    84  H    0.091213
    85  H    0.122140
    86  H    0.091505
    87  H    0.135807
    88  H    0.146384
    89  H    0.123860
    90  H    0.166445
    91  H    0.113729
    92  H    0.124084
    93  H    0.068699
    94  H    0.119407
    95  H    0.119983
    96  H    0.127651
    97  H    0.060222
    98  H    0.094302
    99  H    0.097939
   100  H    0.102148
   101  H    0.071622
   102  H    0.095075
   103  H    0.099318
   104  H    0.087304
   105  H    0.100081
   106  H    0.097456
   107  H    0.085711
   108  H    0.084802
   109  H    0.111924
   110  H    0.083668
   111  H    0.078897
   112  H    0.068588
   113  H    0.076200
   114  H    0.104458
   115  H    0.065757
   116  H    0.111853
   117  H    0.083985
   118  H    0.079976
   119  H    0.093037
   120  H    0.081664
   121  H    0.082839
   122  H    0.082833
   123  H    0.100602
   124  H    0.109945
   125  H    0.110909
   126  H    0.083304
   127  H    0.100361
   128  H    0.086818
   129  H    0.102370
   130  H    0.111762
   131  H    0.041926
   132  H    0.127795
   133  O   -0.403323
   134  H    0.078279
 Sum of Mulliken charges =   0.00000

 Dipole moment (field-independent basis, Debye):
    X=              3.4325    Y=             -1.8253    Z=             -1.6997  Tot=              4.2429
 Quadrupole moment (field-independent basis, Debye-Ang):
   XX=           -372.6001   YY=           -447.1814   ZZ=           -393.6373
   XY=            -18.9160   XZ=             22.0738   YZ=            -35.3706

 Normal termination of Gaussian 09 at Fri Oct  4 08:58:36 2019.
