 Gaussian 09, Revision D.01,
 Gaussian 09:  ES64L-G09RevD.01 24-Apr-2013

 ----------------------------------------------------------------------
 # td=(NStates=1) iop(3/107=0140000000,3/108=0140000000) iop(3/107=0140
 000000,3/108=0140000000) CAM-B3LYP/6-31G(d,p)
 ----------------------------------------------------------------------

 --
 TD
 --
 Symbolic Z-matrix:
 Charge =  0 Multiplicity = 1

                         Standard orientation:
 ---------------------------------------------------------------------
 Center     Atomic      Atomic             Coordinates (Angstroms)
 Number     Number       Type             X           Y           Z
 ---------------------------------------------------------------------
      1         12           0       -5.548103    1.180433    0.161957
      2          6           0       -5.074078   -2.152652   -0.359671
      3          6           0       -3.415563    1.095280    2.782034
      4          6           0       -6.020631    4.606238    0.637323
      5          6           0       -8.050269    1.250610   -2.341487
      6          7           0       -4.471469   -0.332255    1.014968
      7          6           0       -4.332526   -1.641121    0.703009
      8          6           0       -3.309918   -2.423120    1.429900
      9          6           0       -2.970071   -1.360801    2.654231
     10          6           0       -3.614571   -0.110453    2.061365
     11          6           0       -3.666791   -1.796891    3.881382
     12          6           0       -2.048637   -2.723358    0.546924
     13          6           0       -1.040133   -3.544828    1.344131
     14          6           0        0.230612   -3.895850    0.557804
     15          8           0        0.394887   -3.570654   -0.639231
     16          8           0        1.021699   -4.677255    1.392840
     17          7           0       -4.739935    2.593202    1.496210
     18          6           0       -3.968963    2.288949    2.523572
     19          6           0       -3.698475    3.551371    3.218984
     20          6           0       -4.412553    4.511710    2.577957
     21          6           0       -5.152813    3.936764    1.545801
     22          6           0       -2.774528    3.673667    4.338018
     23          6           0       -4.492349    5.907589    3.012436
     24          8           0       -3.842951    6.396975    3.928737
     25          7           0       -6.769309    2.645915   -0.755332
     26          6           0       -6.786315    4.061358   -0.378125
     27          6           0       -7.793299    4.735762   -1.240887
     28          6           0       -8.277543    3.757559   -1.999482
     29          6           0       -7.724070    2.450671   -1.704087
     30          6           0       -8.301072    6.085318   -0.989236
     31          6           0       -9.293594    3.971365   -3.147401
     32          6           0       -8.675353    4.437157   -4.528879
     33          7           0       -6.426190   -0.072074   -1.124923
     34          6           0       -7.432283    0.023420   -1.941608
     35          6           0       -7.652893   -1.265421   -2.677468
     36          6           0       -6.759166   -2.058042   -1.976249
     37          6           0       -5.954428   -1.365703   -1.145343
     38          6           0       -8.637333   -1.563512   -3.700088
     39          6           0       -6.276587   -3.470246   -1.960501
     40          8           0       -6.641805   -4.439000   -2.696636
     41          6           0       -5.137718   -3.558289   -1.044991
     42          6           0       -5.353246   -4.729249    0.044231
     43          8           0       -5.711503   -4.499095    1.146112
     44          8           0       -4.980584   -5.812374   -0.500476
     45          6           0       -5.194071   -6.888783    0.392319
     46          6           0        2.235366   -5.154583    0.633102
     47          6           0        3.461717   -4.282603    1.031811
     48          6           0        4.014940   -3.405049    0.210227
     49          6           0        3.749663   -3.149498   -1.296827
     50          6           0        5.182931   -2.510241    0.705335
     51          6           0        6.525230   -2.815621    0.033787
     52          6           0        7.630548   -1.912397    0.575364
     53          6           0        9.004670   -2.081051   -0.059439
     54          6           0        9.548517   -3.447228   -0.153264
     55          6           0        9.938983   -1.001484    0.452790
     56          6           0       11.374392   -0.952220   -0.215484
     57          6           0       12.328723    0.126147    0.387631
     58          6           0       13.569201    0.410470   -0.535738
     59          6           0       14.550209   -0.751423   -0.445009
     60          6           0       14.173702    1.690919   -0.069878
     61          6           0       15.367621    2.197065   -1.117609
     62          6           0       15.944039    3.595626   -0.638820
     63          6           0       17.184543    4.094160   -1.397926
     64          6           0       16.989283    4.429450   -2.876949
     65          6           0       17.822636    5.273882   -0.663378
     66          1           0       -2.680197    1.065953    3.664387
     67          1           0       -6.059082    5.720869    0.833866
     68          1           0       -8.569777    1.156594   -3.371850
     69          1           0       -3.629377   -3.197607    1.948761
     70          1           0       -1.823420   -1.099613    2.659854
     71          1           0       -3.421991   -2.937294    4.131926
     72          1           0       -3.332163   -1.213481    4.753534
     73          1           0       -4.751109   -1.801311    3.595825
     74          1           0       -2.358981   -3.254982   -0.332422
     75          1           0       -1.531415   -1.762150    0.227019
     76          1           0       -0.795253   -2.996845    2.304210
     77          1           0       -1.770076   -4.423673    1.692409
     78          1           0       -1.788446    3.545348    4.147691
     79          1           0       -2.747160    4.660749    4.825818
     80          1           0       -2.958232    2.997008    5.193435
     81          1           0       -5.209258    6.437589    2.444365
     82          1           0      -10.119476    3.035189   -3.216200
     83          1           0       -9.882703    4.865082   -2.968119
     84          1           0       -9.545554    4.649679   -5.246442
     85          1           0       -8.188243    5.413723   -4.341433
     86          1           0       -7.980007    3.743419   -4.706802
     87          1           0       -8.355217   -1.248131   -4.693807
     88          1           0       -8.612262   -2.629647   -3.817186
     89          1           0       -9.642453   -1.273797   -3.446636
     90          1           0       -4.275003   -3.755669   -1.646686
     91          1           0        2.483882   -6.119764    0.918519
     92          1           0        2.162054   -5.054252   -0.489713
     93          1           0        3.613967   -4.110363    2.204457
     94          1           0        2.768731   -3.431615   -1.806900
     95          1           0        3.964069   -2.046408   -1.428281
     96          1           0        4.444478   -3.587441   -1.903655
     97          1           0        5.184031   -1.498317    0.485414
     98          1           0        5.198396   -2.532411    1.742879
     99          1           0        6.809571   -3.881569    0.010409
    100          1           0        6.415708   -2.767053   -1.048349
    101          1           0        7.556515   -0.794027    0.571954
    102          1           0        7.849327   -2.007591    1.850085
    103          1           0        8.949704   -1.751015   -1.173967
    104          1           0        8.942549   -4.329044   -0.309435
    105          1           0       10.436623   -3.318800   -0.909083
    106          1           0       10.147431   -3.889882    0.925343
    107          1           0        9.319236    0.046678    0.472274
    108          1           0        9.990818   -1.149651    1.630426
    109          1           0       11.720524   -2.086651   -0.138060
    110          1           0       10.954866   -1.105710   -1.207395
    111          1           0       11.632535    1.070268    0.353051
    112          1           0       12.310942   -0.016379    1.406606
    113          1           0       13.298459    0.642736   -1.563485
    114          1           0       14.725109   -1.127280    0.536337
    115          1           0       14.239985   -1.733085   -0.965303
    116          1           0       15.339031   -0.469259   -1.053086
    117          1           0       13.569828    2.608059   -0.013246
    118          1           0       14.592272    1.678156    0.963058
    119          1           0       16.249826    1.525215   -1.191226
    120          1           0       14.904490    2.362356   -1.954410
    121          1           0       15.309144    4.464889   -0.730951
    122          1           0       16.352117    3.409869    0.460265
    123          1           0       17.986549    3.311310   -1.456427
    124          1           0       16.341304    5.210278   -2.919136
    125          1           0       17.910885    4.627528   -3.454120
    126          1           0       16.433619    3.570588   -3.322046
    127          1           0       18.047591    5.185038    0.511163
    128          1           0       18.782901    5.228516   -1.142053
    129          1           0       17.417751    6.341846   -0.894945
    130          1           0       -5.243986   -8.002698   -0.251589
    131          1           0       -6.200487   -6.782016    0.718710
    132          1           0       -4.491466   -7.060686    1.271322
    133          8           0       -7.837794    6.904205   -0.272069
    134          1           0       -9.398208    6.336771   -1.628958
 ---------------------------------------------------------------------

 SCF Done:  E(RCAM-B3LYP) =  -3043.47065000     A.U. after   16 cycles

 Excitation energies and oscillator strengths:

 Excited State   1:      Singlet-A      1.9961 eV  621.13 nm  f=0.2132  <S**2>=0.000
     243 -> 246       -0.24241
     244 -> 245        0.65315
 This state for optimization and/or second-order correction.
 Total Energy, E(TD-HF/TD-KS) =  -3043.39729397
 Copying the excited state density for this state as the 1-particle RhoCI density.

 The electronic state is 1-A.
 Alpha  occ. eigenvalues --  -46.81140 -19.25827 -19.23981 -19.18782 -19.18580
 Alpha  occ. eigenvalues --  -19.18376 -19.16609 -19.16237 -14.39780 -14.36875
 Alpha  occ. eigenvalues --  -14.35976 -14.35917 -10.36700 -10.36311 -10.32010
 Alpha  occ. eigenvalues --  -10.30609 -10.30032 -10.29275 -10.27988 -10.27664
 Alpha  occ. eigenvalues --  -10.27339 -10.26883 -10.26050 -10.26006 -10.25668
 Alpha  occ. eigenvalues --  -10.25224 -10.25041 -10.24993 -10.24807 -10.24751
 Alpha  occ. eigenvalues --  -10.24667 -10.24292 -10.24180 -10.24084 -10.24024
 Alpha  occ. eigenvalues --  -10.23974 -10.23856 -10.23709 -10.23549 -10.23390
 Alpha  occ. eigenvalues --  -10.23297 -10.23075 -10.23026 -10.22992 -10.22611
 Alpha  occ. eigenvalues --  -10.22595 -10.22569 -10.22296 -10.22184 -10.21924
 Alpha  occ. eigenvalues --  -10.21861 -10.21819 -10.21691 -10.21552 -10.21466
 Alpha  occ. eigenvalues --  -10.21428 -10.21337 -10.21253 -10.21175 -10.21014
 Alpha  occ. eigenvalues --  -10.20940 -10.20664 -10.20351 -10.19882 -10.19769
 Alpha  occ. eigenvalues --  -10.19568  -3.09728  -1.84678  -1.84209  -1.84120
 Alpha  occ. eigenvalues --   -1.19406  -1.11583  -1.09596  -1.08830  -1.05814
 Alpha  occ. eigenvalues --   -1.04350  -1.03805  -1.01577  -1.00707  -0.99732
 Alpha  occ. eigenvalues --   -0.97678  -0.89153  -0.86299  -0.86057  -0.85273
 Alpha  occ. eigenvalues --   -0.85089  -0.84429  -0.84032  -0.83570  -0.83364
 Alpha  occ. eigenvalues --   -0.83224  -0.82908  -0.81740  -0.80597  -0.79994
 Alpha  occ. eigenvalues --   -0.79069  -0.77884  -0.77763  -0.77546  -0.76208
 Alpha  occ. eigenvalues --   -0.75395  -0.75259  -0.74239  -0.73778  -0.72033
 Alpha  occ. eigenvalues --   -0.71535  -0.70983  -0.70758  -0.70139  -0.69256
 Alpha  occ. eigenvalues --   -0.69178  -0.68733  -0.67490  -0.66375  -0.66189
 Alpha  occ. eigenvalues --   -0.65082  -0.64895  -0.64041  -0.63570  -0.62650
 Alpha  occ. eigenvalues --   -0.62049  -0.61517  -0.60489  -0.60013  -0.59907
 Alpha  occ. eigenvalues --   -0.59512  -0.57439  -0.57323  -0.57093  -0.56915
 Alpha  occ. eigenvalues --   -0.56439  -0.55890  -0.55599  -0.55518  -0.55161
 Alpha  occ. eigenvalues --   -0.54709  -0.54046  -0.53612  -0.53040  -0.52500
 Alpha  occ. eigenvalues --   -0.52277  -0.51737  -0.51435  -0.51204  -0.50589
 Alpha  occ. eigenvalues --   -0.50474  -0.50055  -0.49729  -0.49273  -0.49152
 Alpha  occ. eigenvalues --   -0.48708  -0.48538  -0.48421  -0.48224  -0.47638
 Alpha  occ. eigenvalues --   -0.47528  -0.47448  -0.47273  -0.46857  -0.46769
 Alpha  occ. eigenvalues --   -0.46387  -0.46261  -0.45997  -0.45970  -0.45777
 Alpha  occ. eigenvalues --   -0.45450  -0.45357  -0.45319  -0.45053  -0.44769
 Alpha  occ. eigenvalues --   -0.44629  -0.44301  -0.44033  -0.43980  -0.43905
 Alpha  occ. eigenvalues --   -0.43749  -0.43489  -0.43318  -0.43158  -0.43021
 Alpha  occ. eigenvalues --   -0.42840  -0.42589  -0.42374  -0.42154  -0.41916
 Alpha  occ. eigenvalues --   -0.41814  -0.41499  -0.41393  -0.41225  -0.41085
 Alpha  occ. eigenvalues --   -0.40910  -0.40899  -0.40621  -0.40255  -0.40169
 Alpha  occ. eigenvalues --   -0.39969  -0.39643  -0.39480  -0.39448  -0.39331
 Alpha  occ. eigenvalues --   -0.39108  -0.38872  -0.38686  -0.38428  -0.38360
 Alpha  occ. eigenvalues --   -0.38133  -0.37651  -0.37491  -0.37299  -0.37090
 Alpha  occ. eigenvalues --   -0.37011  -0.36413  -0.36293  -0.36157  -0.36149
 Alpha  occ. eigenvalues --   -0.36024  -0.35555  -0.35385  -0.35122  -0.34616
 Alpha  occ. eigenvalues --   -0.34058  -0.33964  -0.33811  -0.33419  -0.33184
 Alpha  occ. eigenvalues --   -0.32912  -0.32428  -0.32077  -0.31743  -0.31662
 Alpha  occ. eigenvalues --   -0.31612  -0.31325  -0.31059  -0.30270  -0.29951
 Alpha  occ. eigenvalues --   -0.28756  -0.28231  -0.28181  -0.28020  -0.27222
 Alpha  occ. eigenvalues --   -0.27161  -0.26931  -0.22878  -0.21128
 Alpha virt. eigenvalues --   -0.08453  -0.05966  -0.01688  -0.00456   0.00364
 Alpha virt. eigenvalues --    0.01233   0.03534   0.03857   0.04083   0.04252
 Alpha virt. eigenvalues --    0.05028   0.05679   0.08002   0.08527   0.09396

 Mulliken charges:
               1
     1  Mg   0.813592
     2  C    0.037775
     3  C   -0.194986
     4  C   -0.187696
     5  C   -0.168754
     6  N   -0.631173
     7  C    0.317730
     8  C   -0.137499
     9  C   -0.159652
    10  C    0.324494
    11  C   -0.294135
    12  C   -0.164153
    13  C   -0.262319
    14  C    0.630696
    15  O   -0.471495
    16  O   -0.467353
    17  N   -0.732138
    18  C    0.377247
    19  C    0.046837
    20  C   -0.032088
    21  C    0.296054
    22  C   -0.421498
    23  C    0.272392
    24  O   -0.430946
    25  N   -0.686868
    26  C    0.248138
    27  C    0.027961
    28  C   -0.009104
    29  C    0.355267
    30  C    0.256379
    31  C   -0.256473
    32  C   -0.303146
    33  N   -0.713489
    34  C    0.265972
    35  C    0.015244
    36  C    0.025110
    37  C    0.276003
    38  C   -0.411935
    39  C    0.362238
    40  O   -0.503418
    41  C   -0.303324
    42  C    0.613462
    43  O   -0.452656
    44  O   -0.365636
    45  C   -0.111905
    46  C   -0.011757
    47  C   -0.169887
    48  C    0.152952
    49  C   -0.388369
    50  C   -0.222009
    51  C   -0.188360
    52  C   -0.150652
    53  C   -0.047589
    54  C   -0.272969
    55  C   -0.173665
    56  C   -0.186412
    57  C   -0.180067
    58  C   -0.042399
    59  C   -0.306299
    60  C   -0.183615
    61  C   -0.195183
    62  C   -0.165751
    63  C   -0.070181
    64  C   -0.314047
    65  C   -0.299553
    66  H    0.087252
    67  H    0.134048
    68  H    0.114043
    69  H    0.113322
    70  H    0.097480
    71  H    0.094887
    72  H    0.120209
    73  H    0.133752
    74  H    0.121139
    75  H    0.112748
    76  H    0.131808
    77  H    0.115753
    78  H    0.136390
    79  H    0.158912
    80  H    0.110361
    81  H    0.074931
    82  H    0.078798
    83  H    0.111391
    84  H    0.110722
    85  H    0.113217
    86  H    0.126011
    87  H    0.133119
    88  H    0.154833
    89  H    0.133478
    90  H    0.170803
    91  H    0.126338
    92  H    0.140512
    93  H    0.080480
    94  H    0.135033
    95  H    0.112475
    96  H    0.133317
    97  H    0.110453
    98  H    0.099764
    99  H    0.097503
   100  H    0.100139
   101  H    0.091411
   102  H    0.046517
   103  H    0.076731
   104  H    0.115373
   105  H    0.088987
   106  H    0.045111
   107  H    0.064339
   108  H    0.062243
   109  H    0.081846
   110  H    0.096738
   111  H    0.076730
   112  H    0.117033
   113  H    0.093783
   114  H    0.113649
   115  H    0.087139
   116  H    0.109684
   117  H    0.095513
   118  H    0.085266
   119  H    0.096716
   120  H    0.107913
   121  H    0.090082
   122  H    0.076378
   123  H    0.077417
   124  H    0.110001
   125  H    0.104173
   126  H    0.095259
   127  H    0.082836
   128  H    0.105085
   129  H    0.087213
   130  H    0.099058
   131  H    0.151201
   132  H    0.134972
   133  O   -0.383703
   134  H    0.018946
 Sum of Mulliken charges =   0.00000

 Dipole moment (field-independent basis, Debye):
    X=              3.0161    Y=             -5.6558    Z=             -1.1427  Tot=              6.5108
 Quadrupole moment (field-independent basis, Debye-Ang):
   XX=           -388.0213   YY=           -431.1225   ZZ=           -397.1183
   XY=             14.9395   XZ=              6.7131   YZ=            -35.8723

 Normal termination of Gaussian 09 at Fri Oct  4 15:19:41 2019.
