 Gaussian 09, Revision D.01,
 Gaussian 09:  ES64L-G09RevD.01 24-Apr-2013

 ----------------------------------------------------------------------
 # td=(NStates=1) iop(3/107=0140000000,3/108=0140000000) iop(3/107=0140
 000000,3/108=0140000000) CAM-B3LYP/6-31G(d,p)
 ----------------------------------------------------------------------

 --
 TD
 --
 Symbolic Z-matrix:
 Charge =  0 Multiplicity = 1

                         Standard orientation:
 ---------------------------------------------------------------------
 Center     Atomic      Atomic             Coordinates (Angstroms)
 Number     Number       Type             X           Y           Z
 ---------------------------------------------------------------------
      1         12           0       -5.621297    1.271189    0.233697
      2          6           0       -4.958748   -2.172100   -0.446578
      3          6           0       -3.418848    1.129525    2.663810
      4          6           0       -6.168893    4.544219    0.644362
      5          6           0       -7.983928    1.131083   -2.415679
      6          7           0       -4.439838   -0.304657    1.066218
      7          6           0       -4.253690   -1.620514    0.613763
      8          6           0       -3.171849   -2.285508    1.381624
      9          6           0       -2.922908   -1.360003    2.598481
     10          6           0       -3.571648   -0.137437    2.094068
     11          6           0       -3.654699   -1.745975    3.884710
     12          6           0       -1.937464   -2.571180    0.606647
     13          6           0       -1.053675   -3.528542    1.512297
     14          6           0        0.199698   -3.885283    0.652068
     15          8           0        0.484996   -3.340415   -0.461538
     16          8           0        0.992874   -4.820261    1.316700
     17          7           0       -4.838252    2.626921    1.488726
     18          6           0       -3.970352    2.483091    2.487564
     19          6           0       -3.783637    3.771722    3.197385
     20          6           0       -4.566976    4.604219    2.594116
     21          6           0       -5.221507    3.935672    1.470793
     22          6           0       -2.823051    3.835768    4.330604
     23          6           0       -4.796764    6.025683    2.999533
     24          8           0       -4.127147    6.694168    3.837005
     25          7           0       -6.931092    2.534925   -0.719801
     26          6           0       -6.888894    3.895647   -0.343341
     27          6           0       -7.942684    4.599121   -1.168089
     28          6           0       -8.491541    3.575487   -2.042629
     29          6           0       -7.749746    2.414596   -1.733501
     30          6           0       -8.331675    5.983889   -1.113730
     31          6           0       -9.497099    3.717665   -3.155823
     32          6           0       -8.901360    3.937339   -4.575707
     33          7           0       -6.311526   -0.169386   -1.170915
     34          6           0       -7.333723   -0.044544   -2.102101
     35          6           0       -7.468266   -1.292474   -2.784141
     36          6           0       -6.696169   -2.183872   -2.221576
     37          6           0       -5.899507   -1.431735   -1.223613
     38          6           0       -8.643490   -1.593266   -3.794602
     39          6           0       -6.209421   -3.602734   -2.147041
     40          8           0       -6.550281   -4.611089   -2.816762
     41          6           0       -5.099853   -3.592736   -0.980665
     42          6           0       -5.300586   -4.573647    0.100828
     43          8           0       -5.635604   -4.343244    1.216369
     44          8           0       -5.040459   -5.827391   -0.406242
     45          6           0       -5.131791   -6.939521    0.511581
     46          6           0        2.260391   -5.060552    0.699394
     47          6           0        3.256762   -3.959953    1.134016
     48          6           0        4.014265   -3.213558    0.278744
     49          6           0        3.806390   -3.110743   -1.189998
     50          6           0        5.136871   -2.376478    0.883125
     51          6           0        6.513149   -2.763171    0.293710
     52          6           0        7.665538   -1.825484    0.691988
     53          6           0        9.104705   -2.037916    0.070381
     54          6           0        9.567482   -3.379853    0.447229
     55          6           0       10.113221   -0.942545    0.469557
     56          6           0       11.465022   -0.924379   -0.204016
     57          6           0       12.243528    0.341594    0.087541
     58          6           0       13.619325    0.520104   -0.635395
     59          6           0       14.530083   -0.757410   -0.454645
     60          6           0       14.310143    1.770981   -0.356727
     61          6           0       15.437222    2.236373   -1.196967
     62          6           0       16.007947    3.605378   -0.719188
     63          6           0       17.333894    3.970951   -1.471839
     64          6           0       17.129736    4.046968   -2.931999
     65          6           0       18.039794    5.169665   -0.772133
     66          1           0       -2.691476    1.290848    3.634637
     67          1           0       -6.507957    5.543655    0.948903
     68          1           0       -8.795078    1.130943   -3.242147
     69          1           0       -3.433128   -3.296508    1.757766
     70          1           0       -1.933870   -1.118378    2.771293
     71          1           0       -3.097787   -2.693758    4.116192
     72          1           0       -3.355833   -0.961503    4.715943
     73          1           0       -4.713711   -1.933276    3.572361
     74          1           0       -2.308615   -3.165721   -0.327260
     75          1           0       -1.487313   -1.657301    0.142106
     76          1           0       -0.661722   -3.297822    2.409763
     77          1           0       -1.524210   -4.395114    1.762873
     78          1           0       -1.860787    3.633181    4.093737
     79          1           0       -2.554910    4.865527    4.540019
     80          1           0       -3.443585    3.452142    5.390145
     81          1           0       -5.579024    6.476795    2.337767
     82          1           0      -10.160509    2.942617   -3.156834
     83          1           0      -10.165591    4.463192   -2.826035
     84          1           0       -9.641608    4.059562   -5.250030
     85          1           0       -8.148745    4.613699   -4.664535
     86          1           0       -8.410726    2.848494   -4.854038
     87          1           0       -8.610933   -1.145641   -4.829769
     88          1           0       -8.825385   -2.711242   -4.315577
     89          1           0       -9.612886   -1.331456   -3.218758
     90          1           0       -4.129397   -4.010210   -1.433945
     91          1           0        2.600364   -5.948436    1.024295
     92          1           0        2.290694   -5.171401   -0.380840
     93          1           0        3.479333   -3.762742    2.281215
     94          1           0        2.735480   -3.408895   -1.291092
     95          1           0        3.836289   -2.086806   -1.467151
     96          1           0        4.607338   -3.806926   -1.710039
     97          1           0        4.999397   -1.204852    0.826308
     98          1           0        5.220211   -2.665957    2.028641
     99          1           0        6.642711   -3.842126    0.587213
    100          1           0        6.697070   -2.545554   -0.759408
    101          1           0        7.248117   -0.682069    0.783753
    102          1           0        7.993641   -2.033108    1.875652
    103          1           0        8.886975   -1.882143   -0.973002
    104          1           0        8.829902   -4.278077    0.194523
    105          1           0       10.505193   -3.747093   -0.026198
    106          1           0        9.770601   -3.339652    1.700742
    107          1           0        9.428361    0.020843    0.275647
    108          1           0       10.249695   -1.170146    1.523244
    109          1           0       11.998691   -1.893391   -0.190960
    110          1           0       11.210226   -1.076015   -1.347849
    111          1           0       11.679027    1.242123   -0.114350
    112          1           0       12.594887    0.004435    1.110514
    113          1           0       13.441517    0.586777   -1.769394
    114          1           0       14.633594   -0.961093    0.597207
    115          1           0       14.023676   -1.711638   -0.843693
    116          1           0       15.505089   -0.615337   -0.899575
    117          1           0       13.675391    2.582392   -0.353452
    118          1           0       14.546498    2.063778    0.725784
    119          1           0       16.245362    1.411372   -1.269370
    120          1           0       15.312680    2.301900   -2.228013
    121          1           0       15.169481    4.323801   -1.034181
    122          1           0       16.251171    3.500524    0.270549
    123          1           0       18.162842    3.146046   -1.487544
    124          1           0       16.490070    4.725144   -3.230113
    125          1           0       18.187447    4.134666   -3.549404
    126          1           0       16.668780    3.175235   -3.473215
    127          1           0       17.981716    4.897715    0.456607
    128          1           0       18.915449    5.426238   -1.225286
    129          1           0       17.419860    5.957860   -0.891168
    130          1           0       -4.907801   -7.790352    0.078410
    131          1           0       -6.107391   -7.022373    1.025976
    132          1           0       -4.601165   -6.961260    1.543084
    133          8           0       -7.897468    6.772618   -0.351561
    134          1           0       -9.042779    6.238115   -1.903541
 ---------------------------------------------------------------------

 SCF Done:  E(RCAM-B3LYP) =  -3043.43815160     A.U. after   15 cycles

 Excitation energies and oscillator strengths:

 Excited State   1:      Singlet-A      2.0698 eV  599.00 nm  f=0.1574  <S**2>=0.000
     243 -> 246        0.27542
     244 -> 245        0.63898
 This state for optimization and/or second-order correction.
 Total Energy, E(TD-HF/TD-KS) =  -3043.36208602
 Copying the excited state density for this state as the 1-particle RhoCI density.

 The electronic state is 1-A.
 Alpha  occ. eigenvalues --  -46.82257 -19.23504 -19.23180 -19.18373 -19.18262
 Alpha  occ. eigenvalues --  -19.18208 -19.17814 -19.16633 -14.38810 -14.37140
 Alpha  occ. eigenvalues --  -14.37138 -14.36714 -10.36458 -10.35504 -10.33356
 Alpha  occ. eigenvalues --  -10.31125 -10.29200 -10.27803 -10.27266 -10.27190
 Alpha  occ. eigenvalues --  -10.27140 -10.27019 -10.26420 -10.26227 -10.26131
 Alpha  occ. eigenvalues --  -10.26104 -10.26041 -10.25773 -10.25348 -10.25201
 Alpha  occ. eigenvalues --  -10.25059 -10.24654 -10.24063 -10.24038 -10.24013
 Alpha  occ. eigenvalues --  -10.23967 -10.23739 -10.23705 -10.23628 -10.23583
 Alpha  occ. eigenvalues --  -10.23231 -10.23215 -10.23174 -10.22861 -10.22841
 Alpha  occ. eigenvalues --  -10.22721 -10.22705 -10.22665 -10.22577 -10.22434
 Alpha  occ. eigenvalues --  -10.22342 -10.21982 -10.21946 -10.21908 -10.21791
 Alpha  occ. eigenvalues --  -10.21776 -10.21631 -10.21580 -10.21475 -10.21102
 Alpha  occ. eigenvalues --  -10.20963 -10.20186 -10.20108 -10.20019 -10.19979
 Alpha  occ. eigenvalues --  -10.19543  -3.10715  -1.85665  -1.85200  -1.85103
 Alpha  occ. eigenvalues --   -1.14002  -1.12135  -1.08642  -1.06340  -1.05344
 Alpha  occ. eigenvalues --   -1.04455  -1.03419  -1.01430  -1.00875  -0.99962
 Alpha  occ. eigenvalues --   -0.99267  -0.88331  -0.86949  -0.86041  -0.85466
 Alpha  occ. eigenvalues --   -0.85013  -0.84824  -0.84605  -0.84194  -0.83890
 Alpha  occ. eigenvalues --   -0.83294  -0.83069  -0.81891  -0.80824  -0.80224
 Alpha  occ. eigenvalues --   -0.79007  -0.78419  -0.77659  -0.77314  -0.76594
 Alpha  occ. eigenvalues --   -0.75483  -0.74754  -0.74222  -0.73359  -0.72095
 Alpha  occ. eigenvalues --   -0.72092  -0.70786  -0.70747  -0.70046  -0.69769
 Alpha  occ. eigenvalues --   -0.69498  -0.68578  -0.68015  -0.67636  -0.66908
 Alpha  occ. eigenvalues --   -0.66621  -0.65077  -0.64488  -0.62709  -0.62362
 Alpha  occ. eigenvalues --   -0.62101  -0.61167  -0.60660  -0.59698  -0.59121
 Alpha  occ. eigenvalues --   -0.59090  -0.58134  -0.58117  -0.57523  -0.57458
 Alpha  occ. eigenvalues --   -0.56513  -0.56142  -0.55504  -0.54899  -0.54522
 Alpha  occ. eigenvalues --   -0.53984  -0.53526  -0.52981  -0.52759  -0.52426
 Alpha  occ. eigenvalues --   -0.51942  -0.51849  -0.51450  -0.51377  -0.50871
 Alpha  occ. eigenvalues --   -0.50484  -0.50054  -0.49626  -0.49410  -0.49041
 Alpha  occ. eigenvalues --   -0.48727  -0.48531  -0.48381  -0.48211  -0.48015
 Alpha  occ. eigenvalues --   -0.47637  -0.47375  -0.47259  -0.47154  -0.46752
 Alpha  occ. eigenvalues --   -0.46568  -0.46361  -0.46322  -0.46160  -0.46061
 Alpha  occ. eigenvalues --   -0.45887  -0.45566  -0.45297  -0.45161  -0.44824
 Alpha  occ. eigenvalues --   -0.44634  -0.44413  -0.44341  -0.44025  -0.43990
 Alpha  occ. eigenvalues --   -0.43694  -0.43316  -0.43131  -0.42901  -0.42882
 Alpha  occ. eigenvalues --   -0.42643  -0.42397  -0.42270  -0.42052  -0.41999
 Alpha  occ. eigenvalues --   -0.41853  -0.41600  -0.41087  -0.40933  -0.40765
 Alpha  occ. eigenvalues --   -0.40592  -0.40409  -0.40343  -0.40161  -0.39995
 Alpha  occ. eigenvalues --   -0.39819  -0.39772  -0.39434  -0.39110  -0.39040
 Alpha  occ. eigenvalues --   -0.38834  -0.38694  -0.38507  -0.38476  -0.38287
 Alpha  occ. eigenvalues --   -0.38102  -0.37999  -0.37600  -0.37485  -0.37003
 Alpha  occ. eigenvalues --   -0.36921  -0.36729  -0.36593  -0.35985  -0.35707
 Alpha  occ. eigenvalues --   -0.35595  -0.35204  -0.34976  -0.34831  -0.34287
 Alpha  occ. eigenvalues --   -0.34075  -0.33996  -0.33920  -0.33158  -0.33095
 Alpha  occ. eigenvalues --   -0.32443  -0.32266  -0.32178  -0.31876  -0.31504
 Alpha  occ. eigenvalues --   -0.31165  -0.31073  -0.30952  -0.30586  -0.30355
 Alpha  occ. eigenvalues --   -0.29882  -0.28705  -0.28648  -0.28004  -0.27733
 Alpha  occ. eigenvalues --   -0.27479  -0.26817  -0.22902  -0.21483
 Alpha virt. eigenvalues --   -0.08156  -0.06540  -0.02132  -0.01206   0.00751
 Alpha virt. eigenvalues --    0.01894   0.02793   0.03340   0.03851   0.03990
 Alpha virt. eigenvalues --    0.04896   0.05747   0.07791   0.08725   0.09337

 Mulliken charges:
               1
     1  Mg   0.837115
     2  C    0.095095
     3  C   -0.226309
     4  C   -0.162444
     5  C   -0.168094
     6  N   -0.636354
     7  C    0.326054
     8  C   -0.180177
     9  C   -0.132195
    10  C    0.366173
    11  C   -0.284537
    12  C   -0.159894
    13  C   -0.263615
    14  C    0.598418
    15  O   -0.475611
    16  O   -0.468332
    17  N   -0.705545
    18  C    0.277926
    19  C    0.070004
    20  C   -0.037629
    21  C    0.312989
    22  C   -0.379571
    23  C    0.260629
    24  O   -0.432647
    25  N   -0.693646
    26  C    0.273205
    27  C   -0.050399
    28  C    0.004649
    29  C    0.308979
    30  C    0.245990
    31  C   -0.242648
    32  C   -0.296937
    33  N   -0.705837
    34  C    0.296654
    35  C   -0.027166
    36  C    0.098593
    37  C    0.242636
    38  C   -0.381166
    39  C    0.387990
    40  O   -0.455574
    41  C   -0.351549
    42  C    0.641225
    43  O   -0.448937
    44  O   -0.454785
    45  C   -0.089776
    46  C    0.005775
    47  C   -0.155258
    48  C    0.144054
    49  C   -0.368872
    50  C   -0.225467
    51  C   -0.157320
    52  C   -0.166064
    53  C   -0.069418
    54  C   -0.281926
    55  C   -0.141570
    56  C   -0.188931
    57  C   -0.154342
    58  C   -0.055614
    59  C   -0.323533
    60  C   -0.154638
    61  C   -0.180299
    62  C   -0.174440
    63  C   -0.048520
    64  C   -0.309321
    65  C   -0.294085
    66  H    0.054786
    67  H    0.144465
    68  H    0.103173
    69  H    0.112164
    70  H    0.113854
    71  H    0.100710
    72  H    0.112351
    73  H    0.136747
    74  H    0.104765
    75  H    0.130835
    76  H    0.150536
    77  H    0.147181
    78  H    0.136664
    79  H    0.148706
    80  H    0.109421
    81  H    0.085509
    82  H    0.116645
    83  H    0.110106
    84  H    0.124683
    85  H    0.131945
    86  H    0.075801
    87  H    0.124188
    88  H    0.118543
    89  H    0.124668
    90  H    0.162376
    91  H    0.123831
    92  H    0.127737
    93  H    0.073851
    94  H    0.144344
    95  H    0.123299
    96  H    0.107163
    97  H    0.085132
    98  H    0.084607
    99  H    0.102533
   100  H    0.101466
   101  H    0.068308
   102  H    0.039618
   103  H    0.087539
   104  H    0.088763
   105  H    0.103784
   106  H    0.068789
   107  H    0.073532
   108  H    0.089123
   109  H    0.100684
   110  H    0.059111
   111  H    0.099307
   112  H    0.097682
   113  H    0.070930
   114  H    0.103189
   115  H    0.090578
   116  H    0.107390
   117  H    0.090666
   118  H    0.067303
   119  H    0.069000
   120  H    0.095662
   121  H    0.089857
   122  H    0.102193
   123  H    0.074773
   124  H    0.110316
   125  H    0.066836
   126  H    0.100537
   127  H    0.071310
   128  H    0.108571
   129  H    0.113634
   130  H    0.134734
   131  H    0.125492
   132  H    0.102598
   133  O   -0.413047
   134  H    0.053289
 Sum of Mulliken charges =   0.00000

 Dipole moment (field-independent basis, Debye):
    X=              1.3619    Y=             -4.7982    Z=             -0.7876  Tot=              5.0496
 Quadrupole moment (field-independent basis, Debye-Ang):
   XX=           -386.1941   YY=           -435.7582   ZZ=           -395.7976
   XY=             10.2998   XZ=             13.5749   YZ=            -37.0230

 Normal termination of Gaussian 09 at Tue Oct  8 07:42:00 2019.
