 Gaussian 09, Revision D.01,
 Gaussian 09:  ES64L-G09RevD.01 24-Apr-2013

 ----------------------------------------------------------------------
 # td=(NStates=1) iop(3/107=0140000000,3/108=0140000000) iop(3/107=0140
 000000,3/108=0140000000) CAM-B3LYP/6-31G(d,p)
 ----------------------------------------------------------------------

 --
 TD
 --
 Symbolic Z-matrix:
 Charge =  0 Multiplicity = 1

                         Standard orientation:
 ---------------------------------------------------------------------
 Center     Atomic      Atomic             Coordinates (Angstroms)
 Number     Number       Type             X           Y           Z
 ---------------------------------------------------------------------
      1         12           0       -5.698935    1.269877    0.364550
      2          6           0       -4.912219   -2.105253   -0.456499
      3          6           0       -3.494290    1.086184    2.869707
      4          6           0       -6.151714    4.625981    0.704077
      5          6           0       -8.056640    1.165584   -2.230851
      6          7           0       -4.319646   -0.294425    0.964455
      7          6           0       -4.182947   -1.762874    0.587140
      8          6           0       -3.182841   -2.364923    1.387889
      9          6           0       -2.904014   -1.396758    2.611730
     10          6           0       -3.513773   -0.101414    2.111674
     11          6           0       -3.404180   -1.820168    4.016991
     12          6           0       -1.970522   -2.780114    0.584480
     13          6           0       -1.033782   -3.693017    1.422463
     14          6           0        0.273115   -4.056228    0.648794
     15          8           0        0.538803   -3.554147   -0.464792
     16          8           0        1.125760   -4.883229    1.312816
     17          7           0       -4.926775    2.603713    1.551909
     18          6           0       -4.032818    2.392206    2.569629
     19          6           0       -3.709703    3.605189    3.198116
     20          6           0       -4.372802    4.660341    2.556898
     21          6           0       -5.174551    3.937760    1.525797
     22          6           0       -2.731836    3.745108    4.306391
     23          6           0       -4.540857    6.070853    2.852410
     24          8           0       -4.026608    6.484377    3.889880
     25          7           0       -6.852148    2.638715   -0.680737
     26          6           0       -6.958490    3.936513   -0.272408
     27          6           0       -7.801512    4.697519   -1.120676
     28          6           0       -8.442138    3.671546   -1.928112
     29          6           0       -7.751543    2.454823   -1.630536
     30          6           0       -8.155681    6.079355   -1.191637
     31          6           0       -9.402151    4.022909   -3.095081
     32          6           0       -8.739942    4.048202   -4.460237
     33          7           0       -6.252286   -0.128161   -1.103132
     34          6           0       -7.402670   -0.043234   -2.041117
     35          6           0       -7.530984   -1.301345   -2.762730
     36          6           0       -6.590789   -2.146008   -2.188220
     37          6           0       -5.968486   -1.432664   -1.121953
     38          6           0       -8.553741   -1.559388   -3.818594
     39          6           0       -6.170741   -3.512377   -2.226303
     40          8           0       -6.506351   -4.535304   -2.750490
     41          6           0       -5.065872   -3.534779   -0.982143
     42          6           0       -5.443002   -4.519639   -0.036768
     43          8           0       -5.902379   -4.404190    1.055807
     44          8           0       -5.119731   -5.776818   -0.560360
     45          6           0       -5.455694   -6.746410    0.443672
     46          6           0        2.362608   -5.135855    0.635894
     47          6           0        3.431816   -4.195590    0.950896
     48          6           0        4.026621   -3.348091    0.228836
     49          6           0        3.613857   -3.124945   -1.236449
     50          6           0        5.136189   -2.443800    0.648345
     51          6           0        6.477658   -2.788011    0.069129
     52          6           0        7.578316   -1.752250    0.707582
     53          6           0        9.005502   -2.080491   -0.009606
     54          6           0        9.683165   -3.461852    0.410568
     55          6           0        9.913289   -0.862002    0.406081
     56          6           0       11.320968   -0.918088   -0.193216
     57          6           0       12.188361    0.314548    0.227571
     58          6           0       13.460371    0.506655   -0.665560
     59          6           0       14.400475   -0.708635   -0.484782
     60          6           0       14.183911    1.846144   -0.277995
     61          6           0       15.401001    2.214504   -1.085753
     62          6           0       15.986151    3.529696   -0.710074
     63          6           0       17.240642    3.907014   -1.387984
     64          6           0       17.133990    4.190364   -2.892482
     65          6           0       17.966504    5.113577   -0.820205
     66          1           0       -2.920832    1.143728    3.537418
     67          1           0       -6.405732    5.671433    0.859529
     68          1           0       -8.905432    1.127043   -2.853440
     69          1           0       -3.525426   -3.388989    1.755431
     70          1           0       -1.794939   -1.236682    2.559491
     71          1           0       -2.982945   -2.866775    4.117878
     72          1           0       -3.098814   -1.287738    4.902418
     73          1           0       -4.503823   -1.916387    4.018850
     74          1           0       -2.297333   -3.023892   -0.374432
     75          1           0       -1.532360   -1.819715    0.290117
     76          1           0       -0.691219   -3.521634    2.573735
     77          1           0       -1.521213   -4.612546    1.692258
     78          1           0       -1.729964    3.288965    4.067040
     79          1           0       -2.438107    4.895206    4.327043
     80          1           0       -3.046852    3.358923    5.165348
     81          1           0       -5.118315    6.510403    2.206235
     82          1           0      -10.285458    3.250606   -3.072495
     83          1           0       -9.993890    4.875992   -2.810707
     84          1           0       -9.430820    4.348275   -5.292779
     85          1           0       -8.056813    4.956038   -4.527153
     86          1           0       -8.248008    3.239601   -4.862009
     87          1           0       -8.318046   -1.091248   -4.793858
     88          1           0       -8.721524   -2.646169   -4.166855
     89          1           0       -9.619337   -1.264019   -3.445247
     90          1           0       -4.027594   -3.930964   -1.410297
     91          1           0        2.544378   -6.077673    1.258554
     92          1           0        2.075995   -5.563369   -0.252328
     93          1           0        3.700530   -4.198997    1.994893
     94          1           0        2.485819   -3.491464   -1.362076
     95          1           0        3.751813   -2.103289   -1.723235
     96          1           0        4.187596   -3.681357   -1.824174
     97          1           0        4.958423   -1.440435    0.454053
     98          1           0        5.073209   -2.421814    1.765164
     99          1           0        6.753849   -3.754128    0.584150
    100          1           0        6.374338   -2.793739   -1.046490
    101          1           0        7.316859   -0.801086    0.514622
    102          1           0        7.512164   -1.563951    1.832804
    103          1           0        8.772720   -1.928823   -0.999657
    104          1           0        8.739873   -4.332080    0.444948
    105          1           0       10.485228   -3.738406   -0.301077
    106          1           0        9.974928   -3.470021    1.617268
    107          1           0        9.477154    0.134704    0.313890
    108          1           0        9.887579   -1.059262    1.569948
    109          1           0       11.815403   -1.856279   -0.099015
    110          1           0       11.226699   -0.787473   -1.227037
    111          1           0       11.610130    1.185878    0.124587
    112          1           0       12.732218    0.148188    1.358334
    113          1           0       13.063440    0.408175   -1.646612
    114          1           0       14.622086   -0.789561    0.648190
    115          1           0       13.991151   -1.647718   -0.702184
    116          1           0       15.276998   -0.434219   -1.047217
    117          1           0       13.509443    2.610626   -0.657726
    118          1           0       14.482590    1.816516    0.784449
    119          1           0       16.090501    1.503584   -0.967830
    120          1           0       15.279648    2.303755   -2.212690
    121          1           0       15.125497    4.281964   -0.660707
    122          1           0       16.164626    3.891570    0.500784
    123          1           0       17.739080    3.230974   -1.087749
    124          1           0       16.301278    4.992986   -2.997049
    125          1           0       18.164190    4.361784   -3.554692
    126          1           0       16.895205    3.325967   -3.492243
    127          1           0       18.197780    5.042710    0.231190
    128          1           0       18.853006    5.190536   -1.389175
    129          1           0       17.323112    6.029300   -0.800538
    130          1           0       -4.997001   -7.679963    0.159233
    131          1           0       -6.529252   -6.824853    0.368836
    132          1           0       -5.187368   -6.362178    1.419908
    133          8           0       -7.698869    6.945419   -0.488124
    134          1           0       -8.939442    6.338971   -1.946528
 ---------------------------------------------------------------------

 SCF Done:  E(RCAM-B3LYP) =  -3043.41282658     A.U. after   16 cycles

 Excitation energies and oscillator strengths:

 Excited State   1:      Singlet-A      1.9734 eV  628.27 nm  f=0.1613  <S**2>=0.000
     243 -> 246        0.21968
     244 -> 245        0.65321
 This state for optimization and/or second-order correction.
 Total Energy, E(TD-HF/TD-KS) =  -3043.34030435
 Copying the excited state density for this state as the 1-particle RhoCI density.

 The electronic state is 1-A.
 Alpha  occ. eigenvalues --  -46.81630 -19.22519 -19.20522 -19.18161 -19.17259
 Alpha  occ. eigenvalues --  -19.17085 -19.17055 -19.16855 -14.38313 -14.37251
 Alpha  occ. eigenvalues --  -14.37177 -14.36967 -10.35649 -10.33575 -10.32172
 Alpha  occ. eigenvalues --  -10.29968 -10.29458 -10.27798 -10.26998 -10.26997
 Alpha  occ. eigenvalues --  -10.26983 -10.26892 -10.26692 -10.26593 -10.26477
 Alpha  occ. eigenvalues --  -10.26430 -10.26397 -10.26175 -10.25437 -10.25200
 Alpha  occ. eigenvalues --  -10.24928 -10.24754 -10.24737 -10.24649 -10.24477
 Alpha  occ. eigenvalues --  -10.24335 -10.24222 -10.24071 -10.23980 -10.23481
 Alpha  occ. eigenvalues --  -10.23222 -10.23151 -10.23113 -10.22864 -10.22403
 Alpha  occ. eigenvalues --  -10.22307 -10.22266 -10.22116 -10.21843 -10.21726
 Alpha  occ. eigenvalues --  -10.21578 -10.21376 -10.21277 -10.21190 -10.21126
 Alpha  occ. eigenvalues --  -10.20940 -10.20893 -10.20803 -10.20314 -10.20098
 Alpha  occ. eigenvalues --  -10.20066 -10.19754 -10.19596 -10.19554 -10.19145
 Alpha  occ. eigenvalues --  -10.19004  -3.10197  -1.85124  -1.84651  -1.84631
 Alpha  occ. eigenvalues --   -1.13013  -1.12940  -1.08671  -1.07448  -1.06322
 Alpha  occ. eigenvalues --   -1.04371  -1.03633  -1.01195  -0.99993  -0.99143
 Alpha  occ. eigenvalues --   -0.96128  -0.88355  -0.86643  -0.86329  -0.86029
 Alpha  occ. eigenvalues --   -0.84923  -0.84279  -0.84180  -0.84058  -0.83561
 Alpha  occ. eigenvalues --   -0.82982  -0.82809  -0.81275  -0.80678  -0.79754
 Alpha  occ. eigenvalues --   -0.79465  -0.78657  -0.77870  -0.77082  -0.76770
 Alpha  occ. eigenvalues --   -0.75612  -0.75325  -0.74218  -0.72560  -0.71416
 Alpha  occ. eigenvalues --   -0.70893  -0.70543  -0.70139  -0.70054  -0.69886
 Alpha  occ. eigenvalues --   -0.69374  -0.68935  -0.68707  -0.67812  -0.67450
 Alpha  occ. eigenvalues --   -0.67280  -0.65358  -0.64966  -0.63013  -0.62371
 Alpha  occ. eigenvalues --   -0.62129  -0.61483  -0.60857  -0.60304  -0.59552
 Alpha  occ. eigenvalues --   -0.59152  -0.58455  -0.58146  -0.57841  -0.57374
 Alpha  occ. eigenvalues --   -0.57125  -0.56692  -0.56116  -0.55533  -0.54272
 Alpha  occ. eigenvalues --   -0.54095  -0.53253  -0.52559  -0.52379  -0.51949
 Alpha  occ. eigenvalues --   -0.51593  -0.51255  -0.51243  -0.51057  -0.50398
 Alpha  occ. eigenvalues --   -0.50028  -0.49847  -0.49792  -0.49477  -0.49343
 Alpha  occ. eigenvalues --   -0.48843  -0.48602  -0.48358  -0.48255  -0.47993
 Alpha  occ. eigenvalues --   -0.47788  -0.47730  -0.47432  -0.47338  -0.47030
 Alpha  occ. eigenvalues --   -0.46859  -0.46650  -0.46405  -0.46182  -0.46005
 Alpha  occ. eigenvalues --   -0.45903  -0.45692  -0.45610  -0.45128  -0.44939
 Alpha  occ. eigenvalues --   -0.44821  -0.44795  -0.44238  -0.44106  -0.43873
 Alpha  occ. eigenvalues --   -0.43608  -0.43324  -0.43220  -0.43090  -0.43013
 Alpha  occ. eigenvalues --   -0.42662  -0.42451  -0.42272  -0.42005  -0.41814
 Alpha  occ. eigenvalues --   -0.41753  -0.41695  -0.41373  -0.41036  -0.40768
 Alpha  occ. eigenvalues --   -0.40578  -0.40502  -0.40356  -0.40172  -0.39963
 Alpha  occ. eigenvalues --   -0.39753  -0.39588  -0.39448  -0.39328  -0.39026
 Alpha  occ. eigenvalues --   -0.38809  -0.38449  -0.38369  -0.38312  -0.37888
 Alpha  occ. eigenvalues --   -0.37787  -0.37500  -0.37469  -0.36767  -0.36710
 Alpha  occ. eigenvalues --   -0.36604  -0.36456  -0.36040  -0.35925  -0.35720
 Alpha  occ. eigenvalues --   -0.35306  -0.35235  -0.34968  -0.34938  -0.34633
 Alpha  occ. eigenvalues --   -0.34317  -0.34207  -0.33739  -0.33686  -0.32936
 Alpha  occ. eigenvalues --   -0.32602  -0.32234  -0.32218  -0.32029  -0.31175
 Alpha  occ. eigenvalues --   -0.30857  -0.30674  -0.30423  -0.30224  -0.29823
 Alpha  occ. eigenvalues --   -0.28865  -0.28446  -0.28262  -0.28249  -0.28105
 Alpha  occ. eigenvalues --   -0.27836  -0.27675  -0.23579  -0.21704
 Alpha virt. eigenvalues --   -0.09028  -0.07131  -0.01917  -0.01082   0.00547
 Alpha virt. eigenvalues --    0.02422   0.02574   0.03399   0.04455   0.04989
 Alpha virt. eigenvalues --    0.05042   0.06074   0.07655   0.08664   0.09443

 Mulliken charges:
               1
     1  Mg   0.852226
     2  C    0.040880
     3  C   -0.098292
     4  C   -0.172749
     5  C   -0.165917
     6  N   -0.620824
     7  C    0.299394
     8  C   -0.177668
     9  C   -0.129360
    10  C    0.323128
    11  C   -0.312068
    12  C   -0.162661
    13  C   -0.280895
    14  C    0.604440
    15  O   -0.475414
    16  O   -0.466994
    17  N   -0.745177
    18  C    0.312138
    19  C    0.019490
    20  C   -0.026644
    21  C    0.286632
    22  C   -0.382203
    23  C    0.294026
    24  O   -0.432468
    25  N   -0.688543
    26  C    0.280791
    27  C    0.011807
    28  C   -0.028469
    29  C    0.312539
    30  C    0.235729
    31  C   -0.236869
    32  C   -0.309790
    33  N   -0.652730
    34  C    0.237283
    35  C    0.081826
    36  C    0.024296
    37  C    0.314961
    38  C   -0.401591
    39  C    0.356907
    40  O   -0.422708
    41  C   -0.378153
    42  C    0.652402
    43  O   -0.477072
    44  O   -0.471622
    45  C   -0.086058
    46  C    0.005105
    47  C   -0.139404
    48  C    0.178446
    49  C   -0.400476
    50  C   -0.240866
    51  C   -0.171897
    52  C   -0.202085
    53  C   -0.044715
    54  C   -0.292325
    55  C   -0.172750
    56  C   -0.186482
    57  C   -0.145470
    58  C   -0.083401
    59  C   -0.307158
    60  C   -0.160397
    61  C   -0.182368
    62  C   -0.177959
    63  C   -0.000739
    64  C   -0.304996
    65  C   -0.316658
    66  H    0.009687
    67  H    0.141094
    68  H    0.093055
    69  H    0.114365
    70  H    0.113557
    71  H    0.100952
    72  H    0.127302
    73  H    0.133328
    74  H    0.132218
    75  H    0.122733
    76  H    0.131629
    77  H    0.144558
    78  H    0.110152
    79  H    0.143739
    80  H    0.136695
    81  H    0.092951
    82  H    0.088800
    83  H    0.121160
    84  H    0.103915
    85  H    0.108375
    86  H    0.128356
    87  H    0.139944
    88  H    0.143613
    89  H    0.123550
    90  H    0.145734
    91  H    0.103538
    92  H    0.128383
    93  H    0.076721
    94  H    0.142355
    95  H    0.095211
    96  H    0.126291
    97  H    0.109586
    98  H    0.080216
    99  H    0.104632
   100  H    0.101088
   101  H    0.102921
   102  H    0.082375
   103  H    0.097803
   104  H    0.070005
   105  H    0.117147
   106  H    0.091701
   107  H    0.087318
   108  H    0.071547
   109  H    0.099641
   110  H    0.095264
   111  H    0.089904
   112  H    0.048042
   113  H    0.082679
   114  H    0.079812
   115  H    0.105773
   116  H    0.103164
   117  H    0.096177
   118  H    0.099802
   119  H    0.103045
   120  H    0.092063
   121  H    0.069892
   122  H    0.038686
   123  H    0.095102
   124  H    0.102503
   125  H    0.072699
   126  H    0.101834
   127  H    0.092369
   128  H    0.105776
   129  H    0.092167
   130  H    0.113225
   131  H    0.125917
   132  H    0.130604
   133  O   -0.427120
   134  H    0.059317
 Sum of Mulliken charges =   0.00000

 Dipole moment (field-independent basis, Debye):
    X=              0.5616    Y=             -3.8825    Z=             -1.3110  Tot=              4.1362
 Quadrupole moment (field-independent basis, Debye-Ang):
   XX=           -369.5178   YY=           -446.9922   ZZ=           -390.1704
   XY=             -2.1491   XZ=             16.4348   YZ=            -34.0113

 Normal termination of Gaussian 09 at Mon Oct  7 10:53:17 2019.
