 Gaussian 09, Revision D.01,
 Gaussian 09:  ES64L-G09RevD.01 24-Apr-2013

 ----------------------------------------------------------------------
 # td=(NStates=1) iop(3/107=0140000000,3/108=0140000000) iop(3/107=0140
 000000,3/108=0140000000) CAM-B3LYP/6-31G(d,p)
 ----------------------------------------------------------------------

 --
 TD
 --
 Symbolic Z-matrix:
 Charge =  0 Multiplicity = 1

                         Standard orientation:
 ---------------------------------------------------------------------
 Center     Atomic      Atomic             Coordinates (Angstroms)
 Number     Number       Type             X           Y           Z
 ---------------------------------------------------------------------
      1         12           0       -5.562092    1.310614    0.195452
      2          6           0       -5.078478   -2.089436   -0.277121
      3          6           0       -3.381684    1.075695    2.879365
      4          6           0       -6.115343    4.567073    0.662898
      5          6           0       -7.934940    1.258610   -2.377134
      6          7           0       -4.325812   -0.339755    1.055367
      7          6           0       -4.269036   -1.626983    0.674683
      8          6           0       -3.288064   -2.418957    1.536851
      9          6           0       -3.088908   -1.471334    2.689546
     10          6           0       -3.594440   -0.053437    2.164860
     11          6           0       -3.717770   -1.793913    4.098861
     12          6           0       -1.930951   -2.727708    0.633151
     13          6           0       -1.075813   -3.752397    1.392770
     14          6           0        0.267506   -3.928539    0.769508
     15          8           0        0.422306   -3.487759   -0.405158
     16          8           0        1.098629   -4.671391    1.354799
     17          7           0       -4.884848    2.661313    1.419991
     18          6           0       -3.961213    2.413490    2.426526
     19          6           0       -3.767656    3.607241    3.170730
     20          6           0       -4.462361    4.526584    2.567648
     21          6           0       -5.170407    4.014325    1.491225
     22          6           0       -2.773181    3.630093    4.427576
     23          6           0       -4.455526    6.016846    2.981796
     24          8           0       -3.927262    6.553392    3.918582
     25          7           0       -6.793931    2.710888   -0.706200
     26          6           0       -6.852302    4.012840   -0.433500
     27          6           0       -7.802608    4.651943   -1.219648
     28          6           0       -8.382230    3.730628   -2.106441
     29          6           0       -7.765424    2.506892   -1.763216
     30          6           0       -8.341125    6.109718   -1.093802
     31          6           0       -9.398954    3.884455   -3.206591
     32          6           0       -8.666810    3.986031   -4.653298
     33          7           0       -6.388148   -0.097071   -1.092112
     34          6           0       -7.418042   -0.001321   -2.025566
     35          6           0       -7.619960   -1.289814   -2.708233
     36          6           0       -6.747923   -2.154491   -2.027216
     37          6           0       -6.033627   -1.430873   -1.050451
     38          6           0       -8.577406   -1.690368   -3.768110
     39          6           0       -6.314205   -3.513759   -1.997399
     40          8           0       -6.701822   -4.447335   -2.624586
     41          6           0       -5.109472   -3.570201   -0.914485
     42          6           0       -5.344602   -4.650232    0.142963
     43          8           0       -5.873659   -4.521206    1.271393
     44          8           0       -5.111419   -5.923727   -0.383784
     45          6           0       -5.522154   -6.959467    0.475362
     46          6           0        2.316166   -4.939405    0.571753
     47          6           0        3.485072   -4.059148    0.930537
     48          6           0        4.097809   -3.159676   -0.003059
     49          6           0        3.621775   -3.190235   -1.403378
     50          6           0        5.207934   -2.337102    0.526670
     51          6           0        6.513506   -2.619713   -0.094131
     52          6           0        7.674410   -1.670782    0.505239
     53          6           0        9.066902   -1.893033   -0.129757
     54          6           0        9.537395   -3.338297   -0.020209
     55          6           0       10.024666   -0.955086    0.432877
     56          6           0       11.448078   -0.895080   -0.339643
     57          6           0       12.282820    0.266995    0.226702
     58          6           0       13.652902    0.408137   -0.521111
     59          6           0       14.530656   -0.793602   -0.279362
     60          6           0       14.310355    1.704317   -0.123759
     61          6           0       15.608091    2.097334   -0.902484
     62          6           0       16.023709    3.481478   -0.550991
     63          6           0       17.326172    3.875348   -1.323010
     64          6           0       17.113904    3.958277   -2.788905
     65          6           0       17.859593    5.133361   -0.755095
     66          1           0       -2.662139    1.094885    3.469218
     67          1           0       -6.261517    5.578120    0.881432
     68          1           0       -8.696430    1.352009   -3.160006
     69          1           0       -4.047990   -3.263749    1.679778
     70          1           0       -2.037329   -1.260103    2.662999
     71          1           0       -3.620052   -2.762344    4.601669
     72          1           0       -3.287433   -1.057776    4.790270
     73          1           0       -4.788671   -1.676059    3.978219
     74          1           0       -2.159374   -3.295843   -0.352494
     75          1           0       -1.440544   -1.796158    0.311465
     76          1           0       -0.900844   -3.265397    2.465395
     77          1           0       -1.517677   -4.880324    1.563799
     78          1           0       -1.646716    3.495443    4.171504
     79          1           0       -2.831683    4.757730    4.654052
     80          1           0       -3.122358    3.115228    5.086839
     81          1           0       -5.105395    6.575704    2.287361
     82          1           0      -10.138111    2.990703   -3.404665
     83          1           0       -9.980176    4.810310   -3.053787
     84          1           0       -9.394287    4.473373   -5.428626
     85          1           0       -7.994836    4.891066   -4.826903
     86          1           0       -8.178827    3.147276   -4.804693
     87          1           0       -8.055533   -1.200638   -4.668445
     88          1           0       -8.536859   -2.694853   -4.005628
     89          1           0       -9.568403   -1.541318   -3.373390
     90          1           0       -4.173699   -3.953355   -1.656923
     91          1           0        2.326423   -6.011606    0.986273
     92          1           0        2.118054   -5.017308   -0.519337
     93          1           0        3.685418   -3.971060    1.858520
     94          1           0        2.524958   -3.372511   -1.275374
     95          1           0        3.602328   -2.190917   -1.650526
     96          1           0        4.440477   -3.744174   -2.104345
     97          1           0        4.901777   -1.252264    0.442153
     98          1           0        5.319533   -2.605655    1.592846
     99          1           0        6.704750   -3.672015   -0.034779
    100          1           0        6.540669   -2.451681   -1.197477
    101          1           0        7.522429   -0.571283    0.481901
    102          1           0        7.731435   -1.799564    1.606566
    103          1           0        8.801716   -1.631813   -1.328513
    104          1           0        8.877237   -4.005219   -0.591438
    105          1           0       10.517742   -3.569658   -0.681463
    106          1           0        9.706601   -3.750346    1.092083
    107          1           0        9.886676    0.086007    0.423478
    108          1           0       10.222123   -0.998148    1.641640
    109          1           0       11.965890   -1.784682   -0.084105
    110          1           0       11.288294   -0.678357   -1.599869
    111          1           0       11.909964    1.318548    0.212229
    112          1           0       12.412225    0.113886    1.343776
    113          1           0       13.319873    0.578343   -1.473161
    114          1           0       14.829551   -0.981266    0.660714
    115          1           0       13.880867   -1.657099   -0.566158
    116          1           0       15.399522   -0.955950   -1.008086
    117          1           0       13.584240    2.363177   -0.293855
    118          1           0       14.671173    1.678902    0.933715
    119          1           0       16.531530    1.415279   -0.721379
    120          1           0       15.270664    1.973193   -1.975601
    121          1           0       15.163841    4.230930   -0.904571
    122          1           0       16.117485    3.716740    0.365505
    123          1           0       18.118764    3.107730   -1.167310
    124          1           0       16.309615    4.476935   -2.953505
    125          1           0       17.941247    4.246828   -3.493542
    126          1           0       16.668151    2.933450   -3.004004
    127          1           0       17.944753    5.102965    0.076383
    128          1           0       18.864662    5.608124   -1.404377
    129          1           0       17.264255    5.922158   -0.862813
    130          1           0       -5.154410   -7.729929   -0.064112
    131          1           0       -6.573985   -7.324563    0.598246
    132          1           0       -5.059309   -6.959878    1.456831
    133          8           0       -7.819365    7.009964   -0.500804
    134          1           0       -9.198171    6.149401   -1.947829
 ---------------------------------------------------------------------

 SCF Done:  E(RCAM-B3LYP) =  -3043.31129921     A.U. after   15 cycles

 Excitation energies and oscillator strengths:

 Excited State   1:      Singlet-A      2.1431 eV  578.52 nm  f=0.1731  <S**2>=0.000
     243 -> 245        0.16664
     243 -> 246       -0.25490
     244 -> 245        0.61851
     244 -> 246        0.12882
 This state for optimization and/or second-order correction.
 Total Energy, E(TD-HF/TD-KS) =  -3043.23254068
 Copying the excited state density for this state as the 1-particle RhoCI density.

 The electronic state is 1-A.
 Alpha  occ. eigenvalues --  -46.81156 -19.23459 -19.22696 -19.18730 -19.18708
 Alpha  occ. eigenvalues --  -19.17727 -19.17186 -19.15083 -14.37685 -14.36939
 Alpha  occ. eigenvalues --  -14.36542 -14.36300 -10.35691 -10.33951 -10.32093
 Alpha  occ. eigenvalues --  -10.31336 -10.31209 -10.28034 -10.27331 -10.26940
 Alpha  occ. eigenvalues --  -10.26847 -10.26597 -10.26372 -10.26066 -10.25952
 Alpha  occ. eigenvalues --  -10.25764 -10.25730 -10.25674 -10.25448 -10.25431
 Alpha  occ. eigenvalues --  -10.25182 -10.24938 -10.24588 -10.24221 -10.23917
 Alpha  occ. eigenvalues --  -10.23876 -10.23753 -10.23582 -10.23511 -10.23459
 Alpha  occ. eigenvalues --  -10.23229 -10.22887 -10.22765 -10.22722 -10.22661
 Alpha  occ. eigenvalues --  -10.22605 -10.22502 -10.21945 -10.21939 -10.21890
 Alpha  occ. eigenvalues --  -10.21852 -10.21803 -10.21755 -10.21599 -10.21582
 Alpha  occ. eigenvalues --  -10.21357 -10.21166 -10.21086 -10.20731 -10.20546
 Alpha  occ. eigenvalues --  -10.20262 -10.20073 -10.19363 -10.19228 -10.18254
 Alpha  occ. eigenvalues --  -10.17177  -3.09713  -1.84655  -1.84163  -1.84140
 Alpha  occ. eigenvalues --   -1.16083  -1.12261  -1.08705  -1.08634  -1.08551
 Alpha  occ. eigenvalues --   -1.03504  -1.02022  -1.00709  -0.99745  -0.99283
 Alpha  occ. eigenvalues --   -0.98331  -0.87760  -0.86641  -0.86130  -0.85428
 Alpha  occ. eigenvalues --   -0.85039  -0.84341  -0.84122  -0.83859  -0.83670
 Alpha  occ. eigenvalues --   -0.83425  -0.82751  -0.81428  -0.80546  -0.79508
 Alpha  occ. eigenvalues --   -0.78676  -0.78312  -0.77680  -0.77426  -0.76868
 Alpha  occ. eigenvalues --   -0.75623  -0.75504  -0.73848  -0.73543  -0.73162
 Alpha  occ. eigenvalues --   -0.72217  -0.71603  -0.71454  -0.70309  -0.70011
 Alpha  occ. eigenvalues --   -0.69346  -0.69155  -0.67376  -0.66779  -0.66099
 Alpha  occ. eigenvalues --   -0.66040  -0.64777  -0.64224  -0.63123  -0.62719
 Alpha  occ. eigenvalues --   -0.61814  -0.60882  -0.60400  -0.59832  -0.59184
 Alpha  occ. eigenvalues --   -0.59054  -0.58777  -0.58586  -0.57796  -0.56802
 Alpha  occ. eigenvalues --   -0.56310  -0.56179  -0.55202  -0.54681  -0.54315
 Alpha  occ. eigenvalues --   -0.53182  -0.52922  -0.52390  -0.52116  -0.51352
 Alpha  occ. eigenvalues --   -0.51294  -0.51211  -0.51103  -0.50859  -0.50754
 Alpha  occ. eigenvalues --   -0.50600  -0.50126  -0.49632  -0.49544  -0.49090
 Alpha  occ. eigenvalues --   -0.49020  -0.48957  -0.48858  -0.48659  -0.48229
 Alpha  occ. eigenvalues --   -0.48173  -0.47835  -0.47672  -0.47500  -0.47445
 Alpha  occ. eigenvalues --   -0.47004  -0.46922  -0.46699  -0.46643  -0.46044
 Alpha  occ. eigenvalues --   -0.45842  -0.45669  -0.45122  -0.45022  -0.44776
 Alpha  occ. eigenvalues --   -0.44729  -0.44598  -0.44119  -0.44046  -0.43820
 Alpha  occ. eigenvalues --   -0.43775  -0.43600  -0.43392  -0.43165  -0.42957
 Alpha  occ. eigenvalues --   -0.42608  -0.42516  -0.42316  -0.42158  -0.41991
 Alpha  occ. eigenvalues --   -0.41716  -0.41548  -0.41242  -0.41061  -0.40872
 Alpha  occ. eigenvalues --   -0.40816  -0.40694  -0.40507  -0.40314  -0.40242
 Alpha  occ. eigenvalues --   -0.40060  -0.39895  -0.39597  -0.39378  -0.39106
 Alpha  occ. eigenvalues --   -0.38939  -0.38726  -0.38611  -0.38354  -0.38023
 Alpha  occ. eigenvalues --   -0.37725  -0.37666  -0.37353  -0.37005  -0.36533
 Alpha  occ. eigenvalues --   -0.36445  -0.36239  -0.36199  -0.35905  -0.35641
 Alpha  occ. eigenvalues --   -0.35118  -0.35114  -0.34992  -0.34764  -0.34386
 Alpha  occ. eigenvalues --   -0.34237  -0.33905  -0.33844  -0.33651  -0.33228
 Alpha  occ. eigenvalues --   -0.32858  -0.32682  -0.32466  -0.31848  -0.31455
 Alpha  occ. eigenvalues --   -0.31283  -0.30941  -0.30414  -0.30116  -0.29426
 Alpha  occ. eigenvalues --   -0.28923  -0.28373  -0.28266  -0.28055  -0.27801
 Alpha  occ. eigenvalues --   -0.27439  -0.26324  -0.23346  -0.22019
 Alpha virt. eigenvalues --   -0.08520  -0.06525  -0.00992  -0.00407   0.00536
 Alpha virt. eigenvalues --    0.01757   0.01923   0.03906   0.04097   0.04264
 Alpha virt. eigenvalues --    0.05255   0.05561   0.07935   0.08621   0.09105

 Mulliken charges:
               1
     1  Mg   0.829522
     2  C    0.083016
     3  C   -0.117615
     4  C   -0.167386
     5  C   -0.160542
     6  N   -0.631439
     7  C    0.292118
     8  C   -0.170169
     9  C   -0.148302
    10  C    0.312284
    11  C   -0.306803
    12  C   -0.164847
    13  C   -0.257315
    14  C    0.602496
    15  O   -0.520902
    16  O   -0.413800
    17  N   -0.742877
    18  C    0.264299
    19  C    0.006212
    20  C   -0.038887
    21  C    0.322513
    22  C   -0.354459
    23  C    0.282155
    24  O   -0.395950
    25  N   -0.690775
    26  C    0.345075
    27  C   -0.072925
    28  C    0.085723
    29  C    0.238658
    30  C    0.273144
    31  C   -0.272999
    32  C   -0.310217
    33  N   -0.711358
    34  C    0.262742
    35  C    0.003137
    36  C    0.047596
    37  C    0.287860
    38  C   -0.369915
    39  C    0.350135
    40  O   -0.435255
    41  C   -0.317903
    42  C    0.624603
    43  O   -0.482204
    44  O   -0.443889
    45  C   -0.084022
    46  C   -0.031802
    47  C   -0.090894
    48  C    0.109010
    49  C   -0.382864
    50  C   -0.219390
    51  C   -0.179075
    52  C   -0.175591
    53  C   -0.027508
    54  C   -0.300770
    55  C   -0.173653
    56  C   -0.162919
    57  C   -0.194623
    58  C   -0.051201
    59  C   -0.312146
    60  C   -0.163556
    61  C   -0.180033
    62  C   -0.150022
    63  C   -0.066717
    64  C   -0.295243
    65  C   -0.241227
    66  H    0.063884
    67  H    0.106512
    68  H    0.084108
    69  H    0.134629
    70  H    0.100798
    71  H    0.117590
    72  H    0.109865
    73  H    0.127797
    74  H    0.116027
    75  H    0.131631
    76  H    0.109174
    77  H    0.125720
    78  H    0.116426
    79  H    0.147050
    80  H    0.134296
    81  H    0.075859
    82  H    0.115614
    83  H    0.113990
    84  H    0.101330
    85  H    0.109189
    86  H    0.128557
    87  H    0.130239
    88  H    0.158566
    89  H    0.140464
    90  H    0.141557
    91  H    0.103675
    92  H    0.146103
    93  H    0.066866
    94  H    0.163599
    95  H    0.120420
    96  H    0.109233
    97  H    0.099588
    98  H    0.102196
    99  H    0.109750
   100  H    0.088338
   101  H    0.093235
   102  H    0.083685
   103  H    0.058061
   104  H    0.105837
   105  H    0.085568
   106  H    0.092799
   107  H    0.106279
   108  H    0.064135
   109  H    0.120428
   110  H    0.055995
   111  H    0.079943
   112  H    0.080670
   113  H    0.087661
   114  H    0.114733
   115  H    0.089534
   116  H    0.090408
   117  H    0.088884
   118  H    0.077937
   119  H    0.085993
   120  H    0.089703
   121  H    0.062386
   122  H    0.097176
   123  H    0.078402
   124  H    0.109778
   125  H    0.096155
   126  H    0.080445
   127  H    0.080442
   128  H    0.043398
   129  H    0.100922
   130  H    0.123231
   131  H    0.117549
   132  H    0.121262
   133  O   -0.394913
   134  H    0.041334
 Sum of Mulliken charges =   0.00000

 Dipole moment (field-independent basis, Debye):
    X=              1.5245    Y=             -3.2171    Z=             -0.8987  Tot=              3.6717
 Quadrupole moment (field-independent basis, Debye-Ang):
   XX=           -395.1935   YY=           -436.2740   ZZ=           -392.8243
   XY=             -1.6910   XZ=             30.8255   YZ=            -28.3065

 Normal termination of Gaussian 09 at Sat Oct  5 14:03:07 2019.
