 Gaussian 09, Revision D.01,
 Gaussian 09:  ES64L-G09RevD.01 24-Apr-2013

 ----------------------------------------------------------------------
 # td=(NStates=1) iop(3/107=0140000000,3/108=0140000000) iop(3/107=0140
 000000,3/108=0140000000) CAM-B3LYP/6-31G(d,p)
 ----------------------------------------------------------------------

 --
 TD
 --
 Symbolic Z-matrix:
 Charge =  0 Multiplicity = 1

                         Standard orientation:
 ---------------------------------------------------------------------
 Center     Atomic      Atomic             Coordinates (Angstroms)
 Number     Number       Type             X           Y           Z
 ---------------------------------------------------------------------
      1         12           0       -5.581645    1.290756    0.191856
      2          6           0       -5.112756   -2.090707   -0.402751
      3          6           0       -3.253157    1.240612    2.726928
      4          6           0       -6.140092    4.584915    0.622845
      5          6           0       -7.977118    1.165735   -2.389978
      6          7           0       -4.370119   -0.218883    0.962036
      7          6           0       -4.219242   -1.492616    0.597944
      8          6           0       -3.217670   -2.277142    1.474648
      9          6           0       -2.891263   -1.251286    2.596018
     10          6           0       -3.583716   -0.024078    2.099490
     11          6           0       -3.670183   -1.529898    3.987858
     12          6           0       -1.867791   -2.559993    0.677127
     13          6           0       -0.888758   -3.541663    1.386442
     14          6           0        0.301746   -3.875464    0.615112
     15          8           0        0.449072   -3.531405   -0.563940
     16          8           0        0.981855   -4.762004    1.308937
     17          7           0       -4.863438    2.671827    1.454124
     18          6           0       -4.020622    2.425720    2.386056
     19          6           0       -3.664746    3.626890    3.202873
     20          6           0       -4.516648    4.606376    2.515801
     21          6           0       -5.260022    3.989915    1.439834
     22          6           0       -2.796144    3.739801    4.355447
     23          6           0       -4.619921    6.016364    2.905293
     24          8           0       -4.124045    6.577002    3.820561
     25          7           0       -6.843142    2.661913   -0.660396
     26          6           0       -6.917136    3.942864   -0.331237
     27          6           0       -7.889310    4.670014   -1.228421
     28          6           0       -8.353786    3.649642   -2.053629
     29          6           0       -7.695335    2.414422   -1.736188
     30          6           0       -8.211272    6.023034   -1.138832
     31          6           0       -9.312893    3.910086   -3.248162
     32          6           0       -8.571177    3.962465   -4.584415
     33          7           0       -6.365422   -0.154533   -1.157354
     34          6           0       -7.316819   -0.031383   -2.129747
     35          6           0       -7.593335   -1.288831   -2.767080
     36          6           0       -6.732992   -2.204588   -2.070384
     37          6           0       -5.939455   -1.430478   -1.206089
     38          6           0       -8.616096   -1.650488   -3.805978
     39          6           0       -6.321102   -3.521276   -1.966130
     40          8           0       -6.706245   -4.607629   -2.461270
     41          6           0       -5.108460   -3.582765   -0.927358
     42          6           0       -5.250413   -4.575887    0.218441
     43          8           0       -5.785833   -4.440427    1.281746
     44          8           0       -5.205036   -5.880228   -0.394198
     45          6           0       -5.532728   -6.936539    0.479311
     46          6           0        2.282621   -5.186556    0.746122
     47          6           0        3.422174   -4.277849    1.107159
     48          6           0        4.121431   -3.481165    0.237176
     49          6           0        3.830222   -3.320431   -1.296395
     50          6           0        5.224564   -2.502975    0.701248
     51          6           0        6.538987   -2.886229    0.043976
     52          6           0        7.732241   -1.994637    0.574023
     53          6           0        9.046822   -2.091374   -0.116718
     54          6           0        9.664933   -3.480170    0.072696
     55          6           0        9.994938   -0.968137    0.522834
     56          6           0       11.345946   -0.930884   -0.225478
     57          6           0       12.213058    0.300262    0.244104
     58          6           0       13.528000    0.479073   -0.544654
     59          6           0       14.506612   -0.657963   -0.486848
     60          6           0       14.079997    1.799830   -0.230269
     61          6           0       15.360182    2.191288   -1.034951
     62          6           0       15.978182    3.491754   -0.656370
     63          6           0       17.367162    4.017020   -1.342629
     64          6           0       17.174431    4.106307   -2.830038
     65          6           0       17.700183    5.349073   -0.676515
     66          1           0       -2.467405    1.029438    3.425963
     67          1           0       -6.303198    5.570103    0.672824
     68          1           0       -8.850155    0.953517   -3.213874
     69          1           0       -3.864773   -3.185077    1.758145
     70          1           0       -1.854535   -1.044119    2.615706
     71          1           0       -3.217742   -2.361971    4.457446
     72          1           0       -3.423256   -0.595877    4.720465
     73          1           0       -4.726142   -1.646680    3.920551
     74          1           0       -2.018786   -2.925946   -0.265968
     75          1           0       -1.549272   -1.624751    0.188511
     76          1           0       -0.516814   -3.119664    2.348446
     77          1           0       -1.403469   -4.355117    1.892783
     78          1           0       -1.684531    3.157827    4.201027
     79          1           0       -2.597423    4.888120    4.542154
     80          1           0       -3.320323    3.369838    5.268796
     81          1           0       -5.245184    6.673747    2.209769
     82          1           0      -10.141302    3.147462   -3.246098
     83          1           0       -9.807207    4.782902   -3.002318
     84          1           0       -9.412777    3.987337   -5.313129
     85          1           0       -7.810178    4.778871   -4.555107
     86          1           0       -7.899262    3.046088   -4.824094
     87          1           0       -8.662173   -0.842555   -4.538838
     88          1           0       -8.516491   -2.613787   -4.007348
     89          1           0       -9.652071   -1.635358   -3.198672
     90          1           0       -4.180260   -3.837105   -1.488831
     91          1           0        2.239991   -6.089525    1.103208
     92          1           0        2.241318   -5.268724   -0.326596
     93          1           0        3.567868   -4.407379    2.219699
     94          1           0        2.840489   -3.823332   -1.621737
     95          1           0        3.913868   -2.434683   -1.562581
     96          1           0        4.504206   -4.227440   -1.718572
     97          1           0        5.050527   -1.543921    0.342070
     98          1           0        5.326205   -2.595899    1.678589
     99          1           0        6.835405   -3.888205    0.129430
    100          1           0        6.504214   -2.753029   -1.223187
    101          1           0        7.532754   -1.078705    0.598755
    102          1           0        7.717586   -2.216925    1.765895
    103          1           0        8.983196   -1.822003   -1.314149
    104          1           0        8.874691   -4.256766   -0.269206
    105          1           0       10.643208   -3.624051   -0.479599
    106          1           0        9.791702   -3.715744    1.091562
    107          1           0        9.510760   -0.026059    0.293251
    108          1           0       10.226518   -1.189507    1.361468
    109          1           0       11.966623   -1.778484   -0.005239
    110          1           0       11.387971   -0.775108   -1.277157
    111          1           0       11.595376    1.102323    0.084561
    112          1           0       12.218016    0.109741    1.460003
    113          1           0       13.170170    0.697864   -1.633706
    114          1           0       14.769764   -1.012526    0.878000
    115          1           0       14.013640   -1.461836   -0.922386
    116          1           0       15.388030   -0.428749   -1.027744
    117          1           0       13.320232    2.582555   -0.310687
    118          1           0       14.397275    1.842267    0.826019
    119          1           0       16.146196    1.454272   -0.902467
    120          1           0       14.875692    2.447094   -2.125188
    121          1           0       15.467242    4.461617   -0.790432
    122          1           0       16.175460    3.522248    0.432322
    123          1           0       18.246467    3.354000   -1.190156
    124          1           0       16.285673    4.846030   -3.247308
    125          1           0       18.097418    4.487769   -3.388810
    126          1           0       16.809649    3.137822   -3.188812
    127          1           0       17.759511    5.544483    0.434662
    128          1           0       18.867394    5.668448   -1.146413
    129          1           0       17.252008    6.140201   -1.098603
    130          1           0       -5.336400   -7.950698    0.001179
    131          1           0       -6.484891   -6.639541    0.994675
    132          1           0       -4.812849   -6.742946    1.534244
    133          8           0       -7.826780    6.854231   -0.298814
    134          1           0       -9.058412    6.508070   -1.719827
 ---------------------------------------------------------------------

 SCF Done:  E(RCAM-B3LYP) =  -3043.36081363     A.U. after   16 cycles

 Excitation energies and oscillator strengths:

 Excited State   1:      Singlet-A      2.0036 eV  618.81 nm  f=0.1654  <S**2>=0.000
     243 -> 246       -0.27475
     244 -> 245        0.64119
 This state for optimization and/or second-order correction.
 Total Energy, E(TD-HF/TD-KS) =  -3043.28718277
 Copying the excited state density for this state as the 1-particle RhoCI density.

 The electronic state is 1-A.
 Alpha  occ. eigenvalues --  -46.81910 -19.22810 -19.20829 -19.18962 -19.16730
 Alpha  occ. eigenvalues --  -19.16473 -19.15995 -19.15978 -14.39748 -14.37663
 Alpha  occ. eigenvalues --  -14.37228 -14.36021 -10.35426 -10.34659 -10.30737
 Alpha  occ. eigenvalues --  -10.29643 -10.29269 -10.28531 -10.27964 -10.27955
 Alpha  occ. eigenvalues --  -10.27515 -10.26967 -10.26357 -10.26347 -10.26236
 Alpha  occ. eigenvalues --  -10.26172 -10.26123 -10.25975 -10.25374 -10.25225
 Alpha  occ. eigenvalues --  -10.25074 -10.25028 -10.24796 -10.24715 -10.24660
 Alpha  occ. eigenvalues --  -10.24470 -10.23847 -10.23690 -10.23596 -10.23570
 Alpha  occ. eigenvalues --  -10.23505 -10.23214 -10.23196 -10.23056 -10.23021
 Alpha  occ. eigenvalues --  -10.22945 -10.22832 -10.22697 -10.22677 -10.22455
 Alpha  occ. eigenvalues --  -10.22380 -10.22262 -10.22192 -10.22078 -10.22028
 Alpha  occ. eigenvalues --  -10.21931 -10.21577 -10.21169 -10.21139 -10.21055
 Alpha  occ. eigenvalues --  -10.20754 -10.20675 -10.20615 -10.20237 -10.19858
 Alpha  occ. eigenvalues --  -10.19500  -3.10506  -1.85452  -1.84973  -1.84914
 Alpha  occ. eigenvalues --   -1.13738  -1.12536  -1.08061  -1.04949  -1.04763
 Alpha  occ. eigenvalues --   -1.04112  -1.04061  -1.01932  -1.00975  -1.00371
 Alpha  occ. eigenvalues --   -0.99675  -0.88836  -0.86587  -0.86059  -0.85955
 Alpha  occ. eigenvalues --   -0.85576  -0.84726  -0.84449  -0.84145  -0.83562
 Alpha  occ. eigenvalues --   -0.83162  -0.82816  -0.82247  -0.80901  -0.79875
 Alpha  occ. eigenvalues --   -0.79054  -0.78718  -0.77888  -0.77122  -0.76307
 Alpha  occ. eigenvalues --   -0.75940  -0.75519  -0.74299  -0.72758  -0.72143
 Alpha  occ. eigenvalues --   -0.71511  -0.71047  -0.70882  -0.70541  -0.70226
 Alpha  occ. eigenvalues --   -0.69463  -0.69224  -0.68168  -0.67359  -0.66464
 Alpha  occ. eigenvalues --   -0.65815  -0.65117  -0.64752  -0.63423  -0.62719
 Alpha  occ. eigenvalues --   -0.61944  -0.60703  -0.60630  -0.59860  -0.59012
 Alpha  occ. eigenvalues --   -0.58215  -0.58104  -0.57519  -0.57256  -0.57043
 Alpha  occ. eigenvalues --   -0.56865  -0.56374  -0.55884  -0.55170  -0.54695
 Alpha  occ. eigenvalues --   -0.54273  -0.53542  -0.52842  -0.52436  -0.52302
 Alpha  occ. eigenvalues --   -0.52148  -0.52073  -0.51575  -0.51281  -0.50932
 Alpha  occ. eigenvalues --   -0.50861  -0.50254  -0.49924  -0.49857  -0.49275
 Alpha  occ. eigenvalues --   -0.49084  -0.48624  -0.48537  -0.48266  -0.48139
 Alpha  occ. eigenvalues --   -0.47846  -0.47717  -0.47323  -0.47155  -0.47036
 Alpha  occ. eigenvalues --   -0.46803  -0.46691  -0.46464  -0.46252  -0.45983
 Alpha  occ. eigenvalues --   -0.45703  -0.45613  -0.45361  -0.45293  -0.44846
 Alpha  occ. eigenvalues --   -0.44625  -0.44465  -0.44137  -0.44052  -0.44005
 Alpha  occ. eigenvalues --   -0.43673  -0.43633  -0.43430  -0.43203  -0.43057
 Alpha  occ. eigenvalues --   -0.42733  -0.42557  -0.42478  -0.42438  -0.42271
 Alpha  occ. eigenvalues --   -0.42041  -0.41920  -0.41836  -0.41663  -0.41052
 Alpha  occ. eigenvalues --   -0.40976  -0.40730  -0.40584  -0.40458  -0.40266
 Alpha  occ. eigenvalues --   -0.39938  -0.39657  -0.39359  -0.39205  -0.39068
 Alpha  occ. eigenvalues --   -0.38811  -0.38719  -0.38695  -0.38412  -0.37883
 Alpha  occ. eigenvalues --   -0.37829  -0.37747  -0.37574  -0.37260  -0.37048
 Alpha  occ. eigenvalues --   -0.36965  -0.36893  -0.36529  -0.36003  -0.35761
 Alpha  occ. eigenvalues --   -0.35689  -0.35540  -0.35364  -0.35173  -0.34891
 Alpha  occ. eigenvalues --   -0.34658  -0.34392  -0.34000  -0.33627  -0.33267
 Alpha  occ. eigenvalues --   -0.32830  -0.32213  -0.32101  -0.31905  -0.31606
 Alpha  occ. eigenvalues --   -0.31563  -0.30509  -0.30474  -0.29988  -0.29648
 Alpha  occ. eigenvalues --   -0.28781  -0.27725  -0.27656  -0.27586  -0.27098
 Alpha  occ. eigenvalues --   -0.26959  -0.26730  -0.23193  -0.21489
 Alpha virt. eigenvalues --   -0.08523  -0.06990  -0.02459  -0.00516   0.00140
 Alpha virt. eigenvalues --    0.01488   0.02466   0.03309   0.03549   0.03686
 Alpha virt. eigenvalues --    0.04796   0.05955   0.07895   0.08263   0.08542

 Mulliken charges:
               1
     1  Mg   0.829839
     2  C    0.034655
     3  C   -0.147853
     4  C   -0.114870
     5  C   -0.168989
     6  N   -0.590221
     7  C    0.272066
     8  C   -0.171603
     9  C   -0.143067
    10  C    0.282026
    11  C   -0.306296
    12  C   -0.190079
    13  C   -0.275694
    14  C    0.630009
    15  O   -0.493133
    16  O   -0.466243
    17  N   -0.734248
    18  C    0.323847
    19  C    0.083612
    20  C   -0.078018
    21  C    0.353288
    22  C   -0.402996
    23  C    0.237675
    24  O   -0.404481
    25  N   -0.707514
    26  C    0.298318
    27  C    0.049207
    28  C   -0.020820
    29  C    0.280900
    30  C    0.183982
    31  C   -0.225908
    32  C   -0.302185
    33  N   -0.705698
    34  C    0.311669
    35  C    0.007444
    36  C    0.089188
    37  C    0.271057
    38  C   -0.353777
    39  C    0.308002
    40  O   -0.484016
    41  C   -0.290092
    42  C    0.605174
    43  O   -0.439214
    44  O   -0.451736
    45  C   -0.064891
    46  C    0.018939
    47  C   -0.154662
    48  C    0.104585
    49  C   -0.336458
    50  C   -0.199272
    51  C   -0.185213
    52  C   -0.133512
    53  C   -0.062438
    54  C   -0.309994
    55  C   -0.132424
    56  C   -0.215350
    57  C   -0.165946
    58  C   -0.045889
    59  C   -0.271197
    60  C   -0.165931
    61  C   -0.175908
    62  C   -0.172054
    63  C   -0.054829
    64  C   -0.298346
    65  C   -0.303420
    66  H    0.095548
    67  H    0.112971
    68  H    0.096781
    69  H    0.127999
    70  H    0.123539
    71  H    0.119983
    72  H    0.088815
    73  H    0.144082
    74  H    0.126638
    75  H    0.115151
    76  H    0.123756
    77  H    0.149642
    78  H    0.092564
    79  H    0.155511
    80  H    0.143103
    81  H    0.058793
    82  H    0.100889
    83  H    0.118795
    84  H    0.113237
    85  H    0.119187
    86  H    0.103303
    87  H    0.130900
    88  H    0.159771
    89  H    0.120672
    90  H    0.158466
    91  H    0.113750
    92  H    0.119333
    93  H    0.082215
    94  H    0.136903
    95  H    0.119208
    96  H    0.110821
    97  H    0.118806
    98  H    0.107214
    99  H    0.110149
   100  H    0.054881
   101  H    0.093268
   102  H    0.054707
   103  H    0.061797
   104  H    0.085110
   105  H    0.100235
   106  H    0.109468
   107  H    0.092113
   108  H    0.092558
   109  H    0.099391
   110  H    0.087976
   111  H    0.095107
   112  H    0.055190
   113  H    0.071500
   114  H    0.031651
   115  H    0.118229
   116  H    0.114021
   117  H    0.089513
   118  H    0.083559
   119  H    0.106101
   120  H    0.070540
   121  H    0.090317
   122  H    0.080767
   123  H    0.090442
   124  H    0.066952
   125  H    0.096232
   126  H    0.112741
   127  H    0.106812
   128  H    0.039810
   129  H    0.125564
   130  H    0.130155
   131  H    0.136245
   132  H    0.057199
   133  O   -0.440669
   134  H    0.063029
 Sum of Mulliken charges =   0.00000

 Dipole moment (field-independent basis, Debye):
    X=              3.4545    Y=             -4.2471    Z=             -0.6666  Tot=              5.5150
 Quadrupole moment (field-independent basis, Debye-Ang):
   XX=           -394.7833   YY=           -457.1452   ZZ=           -392.0879
   XY=              2.5365   XZ=             22.0684   YZ=            -37.1729

 Normal termination of Gaussian 09 at Sat Oct  5 01:52:53 2019.
