 Gaussian 09, Revision D.01,
 Gaussian 09:  ES64L-G09RevD.01 24-Apr-2013

 ----------------------------------------------------------------------
 # td=(NStates=1) iop(3/107=0140000000,3/108=0140000000) iop(3/107=0140
 000000,3/108=0140000000) CAM-B3LYP/6-31G(d,p)
 ----------------------------------------------------------------------

 --
 TD
 --
 Symbolic Z-matrix:
 Charge =  0 Multiplicity = 1

                         Standard orientation:
 ---------------------------------------------------------------------
 Center     Atomic      Atomic             Coordinates (Angstroms)
 Number     Number       Type             X           Y           Z
 ---------------------------------------------------------------------
      1         12           0       -5.688089    1.172837    0.375313
      2          6           0       -5.032109   -2.034546   -0.329279
      3          6           0       -3.372047    1.165781    2.857316
      4          6           0       -6.279983    4.538549    0.729436
      5          6           0       -8.050334    1.094946   -2.324803
      6          7           0       -4.463048   -0.288912    1.189397
      7          6           0       -4.263788   -1.618838    0.729796
      8          6           0       -3.167374   -2.301730    1.541299
      9          6           0       -2.859554   -1.240144    2.797783
     10          6           0       -3.649024   -0.076028    2.298433
     11          6           0       -3.494318   -1.908069    4.098149
     12          6           0       -1.922546   -2.588166    0.698544
     13          6           0       -0.848134   -3.386585    1.609098
     14          6           0        0.347870   -3.921638    0.655790
     15          8           0        0.384694   -3.525262   -0.586487
     16          8           0        1.128445   -4.844460    1.192940
     17          7           0       -4.932035    2.591315    1.482147
     18          6           0       -3.962613    2.403006    2.473022
     19          6           0       -3.711985    3.657548    3.155810
     20          6           0       -4.596676    4.580364    2.591183
     21          6           0       -5.326186    3.976104    1.525329
     22          6           0       -2.810162    3.778705    4.297088
     23          6           0       -4.642068    6.028228    2.915139
     24          8           0       -4.019851    6.694450    3.594231
     25          7           0       -6.997053    2.624504   -0.719621
     26          6           0       -6.974664    3.925407   -0.340588
     27          6           0       -7.935795    4.611202   -1.312123
     28          6           0       -8.453873    3.659938   -2.023598
     29          6           0       -7.876725    2.326317   -1.728815
     30          6           0       -8.253971    5.991432   -1.271734
     31          6           0       -9.499790    3.715893   -3.144748
     32          6           0       -8.840519    3.943338   -4.549146
     33          7           0       -6.414871   -0.080289   -1.081150
     34          6           0       -7.285371   -0.072867   -2.164753
     35          6           0       -7.493643   -1.298245   -2.797746
     36          6           0       -6.593543   -2.228248   -2.175291
     37          6           0       -5.996434   -1.408352   -1.050310
     38          6           0       -8.337591   -1.732661   -3.909275
     39          6           0       -6.078397   -3.626987   -1.950981
     40          8           0       -6.401319   -4.600735   -2.685987
     41          6           0       -5.022306   -3.525059   -0.858518
     42          6           0       -5.266921   -4.612931    0.234701
     43          8           0       -5.693294   -4.434062    1.256578
     44          8           0       -5.082811   -5.808057   -0.403297
     45          6           0       -5.431103   -6.942762    0.318996
     46          6           0        2.440526   -5.106566    0.467959
     47          6           0        3.397774   -4.107853    0.921226
     48          6           0        4.167376   -3.252865    0.135768
     49          6           0        3.663255   -3.024027   -1.281407
     50          6           0        5.194838   -2.318726    0.705666
     51          6           0        6.538500   -2.664675    0.149518
     52          6           0        7.739108   -1.957447    0.813725
     53          6           0        9.047745   -2.029373   -0.081372
     54          6           0        9.709248   -3.368223    0.070359
     55          6           0        9.976722   -0.819461    0.424999
     56          6           0       11.318633   -0.800633   -0.325202
     57          6           0       12.335140    0.227881    0.271122
     58          6           0       13.611689    0.437284   -0.600543
     59          6           0       14.424648   -0.763976   -0.276045
     60          6           0       14.175601    1.863666   -0.258325
     61          6           0       15.408839    2.106883   -1.064470
     62          6           0       15.876238    3.565407   -0.727622
     63          6           0       17.107403    3.977221   -1.409098
     64          6           0       17.130363    4.152284   -2.892362
     65          6           0       17.732600    5.259509   -0.716854
     66          1           0       -2.712154    1.258257    3.716572
     67          1           0       -6.343353    5.652289    0.589538
     68          1           0       -8.645705    1.142521   -3.198526
     69          1           0       -3.513291   -3.308122    2.043293
     70          1           0       -1.747709   -1.113302    2.783099
     71          1           0       -2.824177   -2.654127    4.541906
     72          1           0       -3.563609   -1.134693    4.961568
     73          1           0       -4.508040   -2.318870    3.823757
     74          1           0       -2.093496   -3.496250   -0.002077
     75          1           0       -1.373859   -1.811702    0.110502
     76          1           0       -0.431417   -2.672716    2.380889
     77          1           0       -1.725199   -4.224306    2.245875
     78          1           0       -1.769671    3.599050    4.165216
     79          1           0       -2.534908    4.877278    4.752205
     80          1           0       -3.075397    3.252634    5.140892
     81          1           0       -5.362637    6.625833    2.069774
     82          1           0      -10.214864    2.731183   -3.253152
     83          1           0      -10.154661    4.354881   -2.937988
     84          1           0       -9.348362    3.670588   -5.532916
     85          1           0       -8.364402    4.782504   -4.687155
     86          1           0       -8.231121    3.257235   -4.636832
     87          1           0       -8.107958   -1.272828   -4.874780
     88          1           0       -8.459113   -2.832988   -4.155725
     89          1           0       -9.451420   -1.457292   -3.774962
     90          1           0       -3.899116   -3.607469   -1.372085
     91          1           0        2.691477   -6.264075    0.538657
     92          1           0        2.145534   -5.111792   -0.597602
     93          1           0        3.941231   -3.974916    1.865856
     94          1           0        2.584716   -3.015824   -1.433974
     95          1           0        3.696888   -1.984886   -1.567151
     96          1           0        4.387776   -3.520704   -2.025101
     97          1           0        5.021248   -1.335719    0.151338
     98          1           0        5.258120   -2.271159    1.742197
     99          1           0        6.674234   -3.724780    0.370781
    100          1           0        6.593349   -2.627651   -1.005864
    101          1           0        7.443128   -0.710941    0.902551
    102          1           0        8.221919   -2.201660    1.839168
    103          1           0        8.653100   -1.927217   -1.158895
    104          1           0        9.114996   -4.209022   -0.448364
    105          1           0       10.616089   -3.640803   -0.562022
    106          1           0        9.828589   -3.757942    1.136782
    107          1           0        9.477878    0.128279    0.359590
    108          1           0       10.272968   -0.911621    1.657460
    109          1           0       11.965457   -1.710172   -0.536099
    110          1           0       11.289679   -0.513774   -1.442213
    111          1           0       11.715376    1.254356    0.183319
    112          1           0       12.503706    0.104542    1.336368
    113          1           0       13.146191    0.303472   -1.574849
    114          1           0       14.623843   -0.904459    0.750999
    115          1           0       14.092431   -1.595192   -0.554819
    116          1           0       15.341520   -0.647809   -0.836525
    117          1           0       13.331296    2.603732   -0.355070
    118          1           0       14.450659    1.636118    0.743188
    119          1           0       16.256716    1.329175   -0.713428
    120          1           0       15.349702    2.210273   -2.150859
    121          1           0       15.069022    4.179320   -1.139805
    122          1           0       15.882186    3.772745    0.436128
    123          1           0       17.762849    3.140673   -1.025300
    124          1           0       16.536581    5.115094   -3.257406
    125          1           0       18.042588    4.313761   -3.570432
    126          1           0       16.584298    3.388785   -3.335082
    127          1           0       17.862376    4.991994    0.425196
    128          1           0       18.774834    5.480156   -1.241448
    129          1           0       17.009256    6.180183   -0.811826
    130          1           0       -4.875774   -7.766705   -0.230574
    131          1           0       -6.505090   -7.142683    0.319373
    132          1           0       -4.926504   -6.951195    1.357741
    133          8           0       -7.877418    6.905457   -0.556350
    134          1           0       -9.139675    6.396161   -2.066553
 ---------------------------------------------------------------------

 SCF Done:  E(RCAM-B3LYP) =  -3043.35115219     A.U. after   16 cycles

 Excitation energies and oscillator strengths:

 Excited State   1:      Singlet-A      2.0209 eV  613.51 nm  f=0.2186  <S**2>=0.000
     243 -> 246        0.25449
     244 -> 245        0.64923
 This state for optimization and/or second-order correction.
 Total Energy, E(TD-HF/TD-KS) =  -3043.27688520
 Copying the excited state density for this state as the 1-particle RhoCI density.

 The electronic state is 1-A.
 Alpha  occ. eigenvalues --  -46.81355 -19.24037 -19.21970 -19.19158 -19.17658
 Alpha  occ. eigenvalues --  -19.17411 -19.17296 -19.16436 -14.39437 -14.36960
 Alpha  occ. eigenvalues --  -14.36661 -14.36636 -10.37084 -10.35359 -10.31717
 Alpha  occ. eigenvalues --  -10.31044 -10.30470 -10.30137 -10.27983 -10.27807
 Alpha  occ. eigenvalues --  -10.27586 -10.27580 -10.26990 -10.26819 -10.26663
 Alpha  occ. eigenvalues --  -10.26283 -10.26095 -10.26028 -10.25944 -10.25676
 Alpha  occ. eigenvalues --  -10.25668 -10.25248 -10.24740 -10.24600 -10.24541
 Alpha  occ. eigenvalues --  -10.24187 -10.24037 -10.23968 -10.23964 -10.23747
 Alpha  occ. eigenvalues --  -10.23682 -10.23544 -10.23353 -10.23281 -10.23148
 Alpha  occ. eigenvalues --  -10.23143 -10.22938 -10.22925 -10.22774 -10.22689
 Alpha  occ. eigenvalues --  -10.22554 -10.22500 -10.22245 -10.22146 -10.21939
 Alpha  occ. eigenvalues --  -10.21655 -10.21589 -10.21580 -10.21141 -10.21078
 Alpha  occ. eigenvalues --  -10.20972 -10.20845 -10.20755 -10.20596 -10.19036
 Alpha  occ. eigenvalues --  -10.17693  -3.09928  -1.84856  -1.84417  -1.84328
 Alpha  occ. eigenvalues --   -1.17066  -1.12814  -1.11532  -1.08917  -1.06680
 Alpha  occ. eigenvalues --   -1.03872  -1.01472  -0.99652  -0.98744  -0.98194
 Alpha  occ. eigenvalues --   -0.97297  -0.88169  -0.87092  -0.85862  -0.85410
 Alpha  occ. eigenvalues --   -0.84461  -0.84359  -0.84237  -0.83572  -0.83530
 Alpha  occ. eigenvalues --   -0.83392  -0.83011  -0.81236  -0.80839  -0.79330
 Alpha  occ. eigenvalues --   -0.78852  -0.78465  -0.77435  -0.77377  -0.76704
 Alpha  occ. eigenvalues --   -0.75726  -0.75092  -0.73454  -0.72808  -0.71820
 Alpha  occ. eigenvalues --   -0.71646  -0.71525  -0.70394  -0.70278  -0.69899
 Alpha  occ. eigenvalues --   -0.69474  -0.68766  -0.68269  -0.66888  -0.65967
 Alpha  occ. eigenvalues --   -0.65059  -0.64383  -0.63817  -0.62167  -0.62085
 Alpha  occ. eigenvalues --   -0.61201  -0.60675  -0.59673  -0.59387  -0.59002
 Alpha  occ. eigenvalues --   -0.58635  -0.58387  -0.57726  -0.57551  -0.56632
 Alpha  occ. eigenvalues --   -0.56591  -0.56140  -0.55588  -0.54875  -0.54389
 Alpha  occ. eigenvalues --   -0.53557  -0.53135  -0.52948  -0.52905  -0.52554
 Alpha  occ. eigenvalues --   -0.52016  -0.51472  -0.51331  -0.51135  -0.50840
 Alpha  occ. eigenvalues --   -0.50798  -0.50340  -0.49784  -0.49371  -0.49146
 Alpha  occ. eigenvalues --   -0.48922  -0.48289  -0.48200  -0.48045  -0.47879
 Alpha  occ. eigenvalues --   -0.47793  -0.47537  -0.47340  -0.47143  -0.47124
 Alpha  occ. eigenvalues --   -0.46571  -0.46547  -0.46219  -0.46074  -0.45615
 Alpha  occ. eigenvalues --   -0.45307  -0.45233  -0.45070  -0.44833  -0.44695
 Alpha  occ. eigenvalues --   -0.44666  -0.44599  -0.44443  -0.44336  -0.43956
 Alpha  occ. eigenvalues --   -0.43745  -0.43539  -0.43333  -0.43247  -0.43000
 Alpha  occ. eigenvalues --   -0.42663  -0.42410  -0.42305  -0.42187  -0.42027
 Alpha  occ. eigenvalues --   -0.41465  -0.41256  -0.41118  -0.40993  -0.40829
 Alpha  occ. eigenvalues --   -0.40753  -0.40626  -0.40489  -0.39967  -0.39636
 Alpha  occ. eigenvalues --   -0.39570  -0.39522  -0.39222  -0.38974  -0.38875
 Alpha  occ. eigenvalues --   -0.38617  -0.38546  -0.38358  -0.38097  -0.37975
 Alpha  occ. eigenvalues --   -0.37801  -0.37708  -0.37418  -0.37236  -0.37074
 Alpha  occ. eigenvalues --   -0.36638  -0.36547  -0.36256  -0.35959  -0.35634
 Alpha  occ. eigenvalues --   -0.35441  -0.35403  -0.35075  -0.34847  -0.34577
 Alpha  occ. eigenvalues --   -0.34473  -0.34127  -0.33937  -0.33697  -0.33423
 Alpha  occ. eigenvalues --   -0.32926  -0.32386  -0.32307  -0.31958  -0.31480
 Alpha  occ. eigenvalues --   -0.31176  -0.30814  -0.30433  -0.30108  -0.29474
 Alpha  occ. eigenvalues --   -0.29361  -0.28116  -0.27700  -0.27457  -0.27328
 Alpha  occ. eigenvalues --   -0.27112  -0.26520  -0.23127  -0.21718
 Alpha virt. eigenvalues --   -0.08825  -0.06228  -0.02342  -0.00201   0.00262
 Alpha virt. eigenvalues --    0.00803   0.01480   0.03108   0.03574   0.04553
 Alpha virt. eigenvalues --    0.05199   0.05679   0.07112   0.08593   0.09425

 Mulliken charges:
               1
     1  Mg   0.837914
     2  C    0.035912
     3  C   -0.172540
     4  C   -0.163445
     5  C   -0.151284
     6  N   -0.640206
     7  C    0.320129
     8  C   -0.179546
     9  C   -0.143755
    10  C    0.352906
    11  C   -0.317351
    12  C   -0.172688
    13  C   -0.243165
    14  C    0.591795
    15  O   -0.496653
    16  O   -0.436815
    17  N   -0.757785
    18  C    0.318077
    19  C    0.080913
    20  C   -0.044590
    21  C    0.318639
    22  C   -0.426055
    23  C    0.252512
    24  O   -0.346192
    25  N   -0.683324
    26  C    0.288527
    27  C    0.042966
    28  C   -0.013916
    29  C    0.310908
    30  C    0.219448
    31  C   -0.226009
    32  C   -0.309330
    33  N   -0.689982
    34  C    0.276766
    35  C    0.054841
    36  C    0.008536
    37  C    0.254607
    38  C   -0.410698
    39  C    0.387020
    40  O   -0.476730
    41  C   -0.304613
    42  C    0.590903
    43  O   -0.385766
    44  O   -0.426130
    45  C   -0.093065
    46  C   -0.037075
    47  C   -0.096794
    48  C    0.110511
    49  C   -0.395945
    50  C   -0.213767
    51  C   -0.181924
    52  C   -0.155651
    53  C   -0.053281
    54  C   -0.304596
    55  C   -0.151602
    56  C   -0.182080
    57  C   -0.173581
    58  C   -0.081484
    59  C   -0.297540
    60  C   -0.150380
    61  C   -0.170959
    62  C   -0.176773
    63  C   -0.028975
    64  C   -0.319364
    65  C   -0.292194
    66  H    0.086815
    67  H    0.148510
    68  H    0.088018
    69  H    0.113361
    70  H    0.113931
    71  H    0.120024
    72  H    0.101813
    73  H    0.137022
    74  H    0.117638
    75  H    0.137071
    76  H    0.125563
    77  H    0.079147
    78  H    0.133737
    79  H    0.129119
    80  H    0.142684
    81  H    0.003420
    82  H    0.082044
    83  H    0.115941
    84  H    0.089108
    85  H    0.124658
    86  H    0.124160
    87  H    0.132638
    88  H    0.153317
    89  H    0.109428
    90  H    0.157122
    91  H    0.123399
    92  H    0.159436
    93  H    0.076082
    94  H    0.162848
    95  H    0.107997
    96  H    0.107762
    97  H    0.109869
    98  H    0.111755
    99  H    0.105331
   100  H    0.094698
   101  H    0.041786
   102  H    0.094437
   103  H    0.081989
   104  H    0.086734
   105  H    0.104138
   106  H    0.098992
   107  H    0.110336
   108  H    0.056940
   109  H    0.088842
   110  H    0.078237
   111  H    0.044075
   112  H    0.085515
   113  H    0.078216
   114  H    0.099499
   115  H    0.112974
   116  H    0.090071
   117  H    0.096786
   118  H    0.104443
   119  H    0.078301
   120  H    0.099641
   121  H    0.085178
   122  H    0.077172
   123  H    0.081514
   124  H    0.080071
   125  H    0.107314
   126  H    0.108734
   127  H    0.083000
   128  H    0.086593
   129  H    0.088994
   130  H    0.120736
   131  H    0.132648
   132  H    0.106186
   133  O   -0.415142
   134  H    0.021351
 Sum of Mulliken charges =   0.00000

 Dipole moment (field-independent basis, Debye):
    X=              4.5910    Y=             -6.2707    Z=              0.6624  Tot=              7.7998
 Quadrupole moment (field-independent basis, Debye-Ang):
   XX=           -397.3419   YY=           -451.0685   ZZ=           -387.6232
   XY=              7.7611   XZ=              7.8549   YZ=            -29.7514

 Normal termination of Gaussian 09 at Tue Oct  8 07:55:54 2019.
