 Gaussian 09, Revision D.01,
 Gaussian 09:  ES64L-G09RevD.01 24-Apr-2013

 ----------------------------------------------------------------------
 # td=(NStates=1) iop(3/107=0140000000,3/108=0140000000) iop(3/107=0140
 000000,3/108=0140000000) CAM-B3LYP/6-31G(d,p)
 ----------------------------------------------------------------------

 --
 TD
 --
 Symbolic Z-matrix:
 Charge =  0 Multiplicity = 1

                         Standard orientation:
 ---------------------------------------------------------------------
 Center     Atomic      Atomic             Coordinates (Angstroms)
 Number     Number       Type             X           Y           Z
 ---------------------------------------------------------------------
      1         12           0       -5.665549    1.169737    0.278888
      2          6           0       -5.018445   -2.090426   -0.337834
      3          6           0       -3.495718    1.264721    2.849295
      4          6           0       -6.310740    4.471086    0.687317
      5          6           0       -8.065992    1.117482   -2.404527
      6          7           0       -4.399894   -0.302423    1.197256
      7          6           0       -4.344539   -1.628596    0.735404
      8          6           0       -3.189956   -2.331646    1.584283
      9          6           0       -2.994178   -1.373372    2.711232
     10          6           0       -3.654496   -0.114173    2.160376
     11          6           0       -3.621926   -1.823225    3.978551
     12          6           0       -2.010496   -2.669844    0.721024
     13          6           0       -0.888024   -3.523362    1.475060
     14          6           0        0.268491   -3.842314    0.553404
     15          8           0        0.473552   -3.401974   -0.553627
     16          8           0        1.029704   -4.730713    1.161234
     17          7           0       -4.899620    2.609408    1.497157
     18          6           0       -3.992731    2.457291    2.483409
     19          6           0       -3.649326    3.762423    3.101241
     20          6           0       -4.471994    4.652852    2.497429
     21          6           0       -5.176758    3.955617    1.481418
     22          6           0       -2.715808    3.889684    4.253740
     23          6           0       -4.540283    6.087382    2.851575
     24          8           0       -3.844273    6.528787    3.641090
     25          7           0       -7.089035    2.567588   -0.696536
     26          6           0       -7.015291    3.930967   -0.337718
     27          6           0       -8.004215    4.619520   -1.174266
     28          6           0       -8.462508    3.699884   -2.084803
     29          6           0       -7.907850    2.443016   -1.708181
     30          6           0       -8.284562    6.022432   -1.127106
     31          6           0       -9.482853    3.869833   -3.105333
     32          6           0       -8.785174    3.923757   -4.471553
     33          7           0       -6.404990   -0.093655   -1.057041
     34          6           0       -7.382099   -0.033322   -2.116679
     35          6           0       -7.626135   -1.326949   -2.635281
     36          6           0       -6.700387   -2.214337   -1.915908
     37          6           0       -5.993293   -1.426542   -0.985844
     38          6           0       -8.566792   -1.586112   -3.793230
     39          6           0       -6.064560   -3.542570   -2.090363
     40          8           0       -6.338966   -4.454898   -2.865125
     41          6           0       -5.069236   -3.542054   -0.967421
     42          6           0       -5.332157   -4.614149    0.089008
     43          8           0       -5.728789   -4.456499    1.190337
     44          8           0       -4.987723   -5.821326   -0.457165
     45          6           0       -5.315070   -6.989446    0.362607
     46          6           0        2.232156   -5.108724    0.496142
     47          6           0        3.392424   -4.225628    0.911416
     48          6           0        4.038616   -3.367073    0.189013
     49          6           0        3.633616   -3.024861   -1.244444
     50          6           0        5.251575   -2.586266    0.706885
     51          6           0        6.622280   -2.805682    0.057465
     52          6           0        7.614198   -1.908352    0.678408
     53          6           0        8.990712   -1.938870    0.059617
     54          6           0        9.620194   -3.283191    0.342121
     55          6           0        9.956940   -0.748894    0.447941
     56          6           0       11.183506   -0.668221   -0.158814
     57          6           0       12.217303    0.413740    0.180107
     58          6           0       13.613442    0.372177   -0.566777
     59          6           0       14.530092   -0.846081   -0.342272
     60          6           0       14.346489    1.710363   -0.038294
     61          6           0       15.476261    2.182373   -1.027295
     62          6           0       16.087993    3.559116   -0.639173
     63          6           0       17.338180    3.958349   -1.391863
     64          6           0       17.066025    4.033779   -2.973034
     65          6           0       17.981915    5.205216   -0.950850
     66          1           0       -3.020726    1.146084    3.747334
     67          1           0       -6.403835    5.341733    0.800166
     68          1           0       -8.739640    1.067976   -3.173801
     69          1           0       -3.486910   -3.446930    2.032254
     70          1           0       -1.985887   -1.136058    2.917527
     71          1           0       -3.143461   -2.853811    4.330049
     72          1           0       -3.584367   -1.201833    4.651726
     73          1           0       -4.705893   -2.133423    3.681034
     74          1           0       -2.316287   -3.381939   -0.153678
     75          1           0       -1.717952   -1.713744    0.331026
     76          1           0       -0.476873   -2.945746    2.256553
     77          1           0       -1.188594   -4.578350    1.872056
     78          1           0       -1.752392    3.348520    3.913608
     79          1           0       -2.611735    4.967471    4.474309
     80          1           0       -3.079687    3.161377    5.064008
     81          1           0       -5.318313    6.696068    2.142383
     82          1           0      -10.154638    2.979566   -2.767881
     83          1           0      -10.005265    4.792670   -2.644999
     84          1           0       -9.376496    4.241542   -5.381980
     85          1           0       -8.065030    4.825092   -4.298388
     86          1           0       -8.273597    3.045368   -4.801003
     87          1           0       -8.653711   -0.951780   -4.821445
     88          1           0       -8.590811   -2.743827   -4.296952
     89          1           0       -9.617970   -1.528459   -3.490712
     90          1           0       -4.009164   -3.968401   -1.501614
     91          1           0        2.633771   -6.255675    0.822595
     92          1           0        2.170068   -4.959595   -0.592278
     93          1           0        3.748438   -4.497724    2.031366
     94          1           0        2.652026   -3.076204   -1.480194
     95          1           0        3.878101   -1.922649   -1.567215
     96          1           0        4.148236   -3.710177   -1.856823
     97          1           0        5.119516   -1.441142    0.495589
     98          1           0        5.319538   -2.555098    1.877664
     99          1           0        6.889220   -3.848781    0.311893
    100          1           0        6.517149   -2.744456   -1.006221
    101          1           0        7.332691   -0.726667    0.770329
    102          1           0        7.960131   -2.299069    1.665126
    103          1           0        9.057403   -2.003593   -1.217725
    104          1           0        9.159486   -4.069768   -0.008704
    105          1           0       10.710179   -3.421334   -0.200757
    106          1           0        9.713160   -3.655969    1.385565
    107          1           0        9.487918    0.302094    0.191747
    108          1           0       10.067600   -0.562768    1.561602
    109          1           0       11.696669   -1.839507   -0.035301
    110          1           0       11.068863   -0.830974   -1.328125
    111          1           0       11.906060    1.398629   -0.108088
    112          1           0       12.190901    0.195152    1.249445
    113          1           0       13.380674    0.606081   -1.688745
    114          1           0       14.940952   -1.003063    0.736460
    115          1           0       14.168841   -1.782355   -0.578120
    116          1           0       15.438623   -0.838727   -0.811862
    117          1           0       13.659464    2.462729   -0.166264
    118          1           0       14.900781    1.699857    0.807778
    119          1           0       16.139685    1.192466   -0.974194
    120          1           0       15.054054    2.172731   -2.144095
    121          1           0       15.302295    4.134505   -0.764303
    122          1           0       16.058514    3.654969    0.323123
    123          1           0       18.106940    3.155928   -1.251408
    124          1           0       16.239287    4.810551   -3.150750
    125          1           0       18.005839    4.311801   -3.478968
    126          1           0       16.797055    3.145682   -3.476236
    127          1           0       18.052869    5.240821    0.191661
    128          1           0       18.938962    5.235763   -1.356360
    129          1           0       17.517087    6.204962   -1.274861
    130          1           0       -4.964971   -7.756449   -0.341663
    131          1           0       -6.346877   -7.068350    0.508707
    132          1           0       -4.638938   -6.665355    1.215934
    133          8           0       -7.762084    6.872312   -0.448046
    134          1           0       -9.061897    6.280100   -1.790738
 ---------------------------------------------------------------------

 SCF Done:  E(RCAM-B3LYP) =  -3043.34866404     A.U. after   16 cycles

 Excitation energies and oscillator strengths:

 Excited State   1:      Singlet-A      1.9227 eV  644.83 nm  f=0.2637  <S**2>=0.000
     243 -> 246       -0.19010
     244 -> 245        0.67705
 This state for optimization and/or second-order correction.
 Total Energy, E(TD-HF/TD-KS) =  -3043.27800437
 Copying the excited state density for this state as the 1-particle RhoCI density.

 The electronic state is 1-A.
 Alpha  occ. eigenvalues --  -46.82244 -19.23325 -19.21598 -19.18511 -19.18175
 Alpha  occ. eigenvalues --  -19.17266 -19.16593 -19.16442 -14.39759 -14.36550
 Alpha  occ. eigenvalues --  -14.36384 -14.35794 -10.35219 -10.35106 -10.31251
 Alpha  occ. eigenvalues --  -10.31033 -10.29185 -10.28839 -10.28448 -10.27825
 Alpha  occ. eigenvalues --  -10.27443 -10.26694 -10.26488 -10.25902 -10.25860
 Alpha  occ. eigenvalues --  -10.25655 -10.25652 -10.25424 -10.25384 -10.25129
 Alpha  occ. eigenvalues --  -10.24845 -10.24694 -10.24420 -10.24384 -10.24347
 Alpha  occ. eigenvalues --  -10.24074 -10.23986 -10.23865 -10.23719 -10.23514
 Alpha  occ. eigenvalues --  -10.23506 -10.23306 -10.23115 -10.22999 -10.22889
 Alpha  occ. eigenvalues --  -10.22687 -10.22537 -10.22370 -10.22346 -10.22098
 Alpha  occ. eigenvalues --  -10.21860 -10.21775 -10.21765 -10.21626 -10.21501
 Alpha  occ. eigenvalues --  -10.21470 -10.21437 -10.20959 -10.20764 -10.20267
 Alpha  occ. eigenvalues --  -10.20185 -10.20059 -10.19967 -10.19404 -10.19204
 Alpha  occ. eigenvalues --  -10.18185  -3.10654  -1.85599  -1.85169  -1.85013
 Alpha  occ. eigenvalues --   -1.15417  -1.13829  -1.12540  -1.06798  -1.06021
 Alpha  occ. eigenvalues --   -1.05721  -1.05611  -1.03489  -1.00293  -0.99439
 Alpha  occ. eigenvalues --   -0.97630  -0.89248  -0.87054  -0.86671  -0.85893
 Alpha  occ. eigenvalues --   -0.85440  -0.84658  -0.84445  -0.84057  -0.83504
 Alpha  occ. eigenvalues --   -0.83174  -0.82575  -0.82068  -0.81141  -0.79844
 Alpha  occ. eigenvalues --   -0.79244  -0.78550  -0.78013  -0.77491  -0.76713
 Alpha  occ. eigenvalues --   -0.76294  -0.74904  -0.74302  -0.72627  -0.72129
 Alpha  occ. eigenvalues --   -0.71658  -0.71447  -0.71130  -0.70488  -0.70272
 Alpha  occ. eigenvalues --   -0.70041  -0.68620  -0.68069  -0.67344  -0.66828
 Alpha  occ. eigenvalues --   -0.65915  -0.64632  -0.64027  -0.62277  -0.61898
 Alpha  occ. eigenvalues --   -0.61459  -0.61151  -0.59693  -0.59501  -0.59226
 Alpha  occ. eigenvalues --   -0.58287  -0.58121  -0.57830  -0.57792  -0.57204
 Alpha  occ. eigenvalues --   -0.56813  -0.56251  -0.55745  -0.55433  -0.54817
 Alpha  occ. eigenvalues --   -0.54032  -0.53604  -0.53421  -0.52754  -0.52369
 Alpha  occ. eigenvalues --   -0.52032  -0.51744  -0.51410  -0.50923  -0.50806
 Alpha  occ. eigenvalues --   -0.50349  -0.50292  -0.49888  -0.49534  -0.49246
 Alpha  occ. eigenvalues --   -0.48869  -0.48750  -0.48676  -0.48352  -0.48270
 Alpha  occ. eigenvalues --   -0.48162  -0.47853  -0.47585  -0.47148  -0.46910
 Alpha  occ. eigenvalues --   -0.46751  -0.46699  -0.46282  -0.46095  -0.46040
 Alpha  occ. eigenvalues --   -0.45798  -0.45493  -0.45437  -0.45101  -0.44953
 Alpha  occ. eigenvalues --   -0.44824  -0.44551  -0.44510  -0.44203  -0.44187
 Alpha  occ. eigenvalues --   -0.44009  -0.43643  -0.43446  -0.43159  -0.42816
 Alpha  occ. eigenvalues --   -0.42723  -0.42638  -0.42283  -0.42173  -0.41743
 Alpha  occ. eigenvalues --   -0.41723  -0.41515  -0.41338  -0.41233  -0.41083
 Alpha  occ. eigenvalues --   -0.41049  -0.40793  -0.40449  -0.40305  -0.40213
 Alpha  occ. eigenvalues --   -0.40042  -0.39922  -0.39777  -0.39276  -0.39106
 Alpha  occ. eigenvalues --   -0.38962  -0.38802  -0.38623  -0.38493  -0.38334
 Alpha  occ. eigenvalues --   -0.38081  -0.37562  -0.37522  -0.37348  -0.36867
 Alpha  occ. eigenvalues --   -0.36820  -0.36641  -0.36440  -0.36312  -0.36007
 Alpha  occ. eigenvalues --   -0.35341  -0.35176  -0.35029  -0.34954  -0.34597
 Alpha  occ. eigenvalues --   -0.34285  -0.33809  -0.33346  -0.33123  -0.33075
 Alpha  occ. eigenvalues --   -0.32874  -0.32564  -0.32117  -0.32084  -0.31270
 Alpha  occ. eigenvalues --   -0.31173  -0.31003  -0.30951  -0.30159  -0.29234
 Alpha  occ. eigenvalues --   -0.28805  -0.28374  -0.28267  -0.27659  -0.27615
 Alpha  occ. eigenvalues --   -0.27296  -0.27013  -0.24094  -0.20098
 Alpha virt. eigenvalues --   -0.08232  -0.06219  -0.02619   0.00020   0.00774
 Alpha virt. eigenvalues --    0.03318   0.03783   0.04031   0.04078   0.04848
 Alpha virt. eigenvalues --    0.04954   0.05602   0.07775   0.08379   0.09582

 Mulliken charges:
               1
     1  Mg   0.825371
     2  C    0.082869
     3  C   -0.227189
     4  C   -0.052262
     5  C   -0.159392
     6  N   -0.587791
     7  C    0.242802
     8  C   -0.148204
     9  C   -0.133912
    10  C    0.333455
    11  C   -0.273360
    12  C   -0.155540
    13  C   -0.277353
    14  C    0.607279
    15  O   -0.470967
    16  O   -0.430361
    17  N   -0.695473
    18  C    0.361996
    19  C    0.062521
    20  C   -0.040142
    21  C    0.242160
    22  C   -0.384097
    23  C    0.259944
    24  O   -0.360618
    25  N   -0.660106
    26  C    0.262822
    27  C   -0.004766
    28  C    0.003360
    29  C    0.311618
    30  C    0.252260
    31  C   -0.242384
    32  C   -0.311259
    33  N   -0.744423
    34  C    0.301500
    35  C    0.056275
    36  C   -0.036263
    37  C    0.315370
    38  C   -0.407069
    39  C    0.389248
    40  O   -0.461207
    41  C   -0.316398
    42  C    0.627678
    43  O   -0.446551
    44  O   -0.473089
    45  C   -0.080971
    46  C   -0.011058
    47  C   -0.141858
    48  C    0.156699
    49  C   -0.392187
    50  C   -0.233022
    51  C   -0.160549
    52  C   -0.160210
    53  C   -0.036938
    54  C   -0.313436
    55  C   -0.139050
    56  C   -0.166577
    57  C   -0.154922
    58  C   -0.052494
    59  C   -0.324456
    60  C   -0.178172
    61  C   -0.200364
    62  C   -0.147287
    63  C   -0.042751
    64  C   -0.318765
    65  C   -0.305117
    66  H    0.062977
    67  H    0.026036
    68  H    0.078843
    69  H    0.089360
    70  H    0.107341
    71  H    0.094798
    72  H    0.112992
    73  H    0.118184
    74  H    0.106285
    75  H    0.119416
    76  H    0.145280
    77  H    0.130721
    78  H    0.116680
    79  H    0.163168
    80  H    0.124684
    81  H    0.064266
    82  H    0.108194
    83  H    0.107774
    84  H    0.107888
    85  H    0.110666
    86  H    0.130191
    87  H    0.114499
    88  H    0.121823
    89  H    0.136909
    90  H    0.148972
    91  H    0.098102
    92  H    0.132708
    93  H    0.066463
    94  H    0.159720
    95  H    0.095595
    96  H    0.125245
    97  H    0.085872
    98  H    0.085276
    99  H    0.101204
   100  H    0.109858
   101  H    0.074412
   102  H    0.101483
   103  H    0.044954
   104  H    0.119722
   105  H    0.077777
   106  H    0.090316
   107  H    0.068211
   108  H    0.078777
   109  H    0.041017
   110  H    0.062686
   111  H    0.093750
   112  H    0.096536
   113  H    0.081163
   114  H    0.084037
   115  H    0.111209
   116  H    0.115291
   117  H    0.091250
   118  H    0.108533
   119  H    0.064101
   120  H    0.066313
   121  H    0.099437
   122  H    0.086402
   123  H    0.086018
   124  H    0.091877
   125  H    0.092830
   126  H    0.112641
   127  H    0.087185
   128  H    0.110776
   129  H    0.088976
   130  H    0.136397
   131  H    0.145164
   132  H    0.128586
   133  O   -0.429523
   134  H    0.048840
 Sum of Mulliken charges =   0.00000

 Dipole moment (field-independent basis, Debye):
    X=              2.0126    Y=             -4.7615    Z=              1.1414  Tot=              5.2939
 Quadrupole moment (field-independent basis, Debye-Ang):
   XX=           -386.9739   YY=           -429.1904   ZZ=           -392.8028
   XY=              9.7364   XZ=             15.1633   YZ=            -28.6262

 Normal termination of Gaussian 09 at Mon Oct  7 12:27:02 2019.
