 Gaussian 09, Revision D.01,
 Gaussian 09:  ES64L-G09RevD.01 24-Apr-2013

 ----------------------------------------------------------------------
 # td=(NStates=1) iop(3/107=0140000000,3/108=0140000000) iop(3/107=0140
 000000,3/108=0140000000) CAM-B3LYP/6-31G(d,p)
 ----------------------------------------------------------------------

 --
 TD
 --
 Symbolic Z-matrix:
 Charge =  0 Multiplicity = 1

                         Standard orientation:
 ---------------------------------------------------------------------
 Center     Atomic      Atomic             Coordinates (Angstroms)
 Number     Number       Type             X           Y           Z
 ---------------------------------------------------------------------
      1         12           0       -5.601601    1.267183    0.186086
      2          6           0       -5.058799   -2.147761   -0.387336
      3          6           0       -3.302938    1.294689    2.667355
      4          6           0       -6.212761    4.602297    0.632165
      5          6           0       -7.958603    1.239811   -2.304260
      6          7           0       -4.336291   -0.213338    0.972170
      7          6           0       -4.265209   -1.550368    0.686527
      8          6           0       -3.123147   -2.322201    1.500817
      9          6           0       -2.862586   -1.240586    2.609390
     10          6           0       -3.584948    0.013821    2.089218
     11          6           0       -3.419674   -1.725942    4.012923
     12          6           0       -1.916447   -2.653126    0.721579
     13          6           0       -0.899282   -3.557241    1.576825
     14          6           0        0.227893   -3.887291    0.664042
     15          8           0        0.436699   -3.535138   -0.476562
     16          8           0        0.980892   -4.806585    1.334214
     17          7           0       -4.918629    2.653533    1.402500
     18          6           0       -3.867353    2.441339    2.345344
     19          6           0       -3.666252    3.727213    3.070129
     20          6           0       -4.510095    4.619913    2.544875
     21          6           0       -5.213343    3.933784    1.417464
     22          6           0       -2.807966    3.827796    4.343378
     23          6           0       -4.614529    6.025529    2.988705
     24          8           0       -3.878570    6.628873    3.713504
     25          7           0       -6.906394    2.636375   -0.704157
     26          6           0       -6.914392    3.988544   -0.334813
     27          6           0       -7.966613    4.611461   -1.204704
     28          6           0       -8.506723    3.598288   -2.027035
     29          6           0       -7.761583    2.429213   -1.692135
     30          6           0       -8.290372    5.989451   -1.172709
     31          6           0       -9.445691    3.775656   -3.281016
     32          6           0       -8.682144    3.732075   -4.552328
     33          7           0       -6.378647   -0.139128   -1.053254
     34          6           0       -7.386452   -0.014742   -2.029905
     35          6           0       -7.475136   -1.278344   -2.734452
     36          6           0       -6.631895   -2.160563   -2.054215
     37          6           0       -5.943161   -1.429850   -1.158538
     38          6           0       -8.560253   -1.710655   -3.734002
     39          6           0       -6.220391   -3.594289   -2.057593
     40          8           0       -6.600024   -4.575145   -2.546611
     41          6           0       -4.910808   -3.506754   -0.973802
     42          6           0       -5.158665   -4.664348    0.087665
     43          8           0       -5.590630   -4.537402    1.195170
     44          8           0       -4.854945   -5.881545   -0.448110
     45          6           0       -5.144491   -6.985551    0.372403
     46          6           0        2.296733   -5.117494    0.625076
     47          6           0        3.299449   -4.001009    1.059362
     48          6           0        3.913426   -3.310433    0.168530
     49          6           0        3.652876   -3.117637   -1.240045
     50          6           0        5.021967   -2.367886    0.622044
     51          6           0        6.556351   -2.725065    0.238047
     52          6           0        7.554420   -1.780308    0.741570
     53          6           0        8.828280   -1.955639   -0.029839
     54          6           0        9.403357   -3.315704    0.326191
     55          6           0        9.868464   -0.864069    0.499181
     56          6           0       11.159047   -0.797949   -0.346170
     57          6           0       12.186666    0.361887    0.027880
     58          6           0       13.505659    0.468817   -0.584903
     59          6           0       14.332093   -0.718712   -0.202691
     60          6           0       14.224989    1.767511   -0.280531
     61          6           0       15.420630    2.127508   -1.023159
     62          6           0       16.032556    3.503452   -0.736885
     63          6           0       17.336248    3.854766   -1.462240
     64          6           0       17.314777    3.815779   -2.947813
     65          6           0       17.816641    5.201197   -0.939029
     66          1           0       -2.641418    1.101887    3.752041
     67          1           0       -5.991721    5.867536    0.570018
     68          1           0       -8.710414    1.262559   -3.100464
     69          1           0       -3.619974   -3.163702    1.868476
     70          1           0       -1.718415   -1.118560    2.540602
     71          1           0       -3.031226   -2.704352    4.410693
     72          1           0       -3.673843   -0.978461    4.862133
     73          1           0       -4.425275   -2.174080    3.890723
     74          1           0       -2.173831   -3.139094   -0.032855
     75          1           0       -1.466382   -1.825146    0.347045
     76          1           0       -0.746530   -3.004700    2.565546
     77          1           0       -1.473464   -4.416695    1.751310
     78          1           0       -1.692252    3.813495    4.036416
     79          1           0       -2.990895    4.830080    4.902312
     80          1           0       -3.061040    2.999264    4.960496
     81          1           0       -5.611689    6.615167    2.583240
     82          1           0      -10.140413    2.915075   -3.233973
     83          1           0       -9.995874    4.560684   -3.179458
     84          1           0       -9.260713    3.640068   -5.331170
     85          1           0       -8.150523    4.775065   -4.490310
     86          1           0       -7.761150    2.948891   -4.493633
     87          1           0       -8.571941   -1.221610   -4.847081
     88          1           0       -8.788226   -2.882931   -3.845716
     89          1           0       -9.467330   -1.343556   -3.280373
     90          1           0       -4.212600   -4.029135   -1.528198
     91          1           0        2.578450   -6.161670    0.930464
     92          1           0        2.012931   -4.988200   -0.437397
     93          1           0        3.602463   -3.878892    2.037433
     94          1           0        2.661105   -3.489967   -1.477039
     95          1           0        3.719329   -2.009720   -1.497453
     96          1           0        4.329342   -3.570901   -1.944110
     97          1           0        4.805639   -1.233765    0.352644
     98          1           0        4.998342   -2.444908    1.732139
     99          1           0        6.768553   -3.783638    0.624380
    100          1           0        6.504864   -2.798628   -0.745751
    101          1           0        7.235239   -0.626938    0.795657
    102          1           0        7.811444   -1.920250    1.877853
    103          1           0        8.719115   -1.812753   -1.198646
    104          1           0        9.006435   -4.134752   -0.091943
    105          1           0       10.429089   -3.294626   -0.068367
    106          1           0        9.509712   -3.450680    1.499838
    107          1           0        9.431811    0.214094    0.577204
    108          1           0       10.200299   -1.044928    1.579289
    109          1           0       11.717769   -1.959363   -0.332976
    110          1           0       10.880222   -0.832779   -1.506411
    111          1           0       11.646606    1.291113   -0.131288
    112          1           0       12.133924    0.162106    1.193052
    113          1           0       13.280742    0.136712   -1.702174
    114          1           0       14.492915   -0.562701    0.913979
    115          1           0       13.923600   -1.587579   -0.418888
    116          1           0       15.363452   -0.627688   -0.698488
    117          1           0       13.344018    2.572360   -0.395404
    118          1           0       14.389011    1.836728    0.833826
    119          1           0       16.031309    1.137021   -0.735867
    120          1           0       15.380253    2.028063   -2.027088
    121          1           0       15.053510    4.174701   -0.786735
    122          1           0       16.253536    3.638314    0.351226
    123          1           0       17.953011    3.064307   -1.100490
    124          1           0       16.519562    4.589143   -3.444306
    125          1           0       18.209581    4.302318   -3.305393
    126          1           0       16.900097    2.891147   -3.430776
    127          1           0       17.800721    5.297959    0.333972
    128          1           0       18.801290    5.572585   -1.210256
    129          1           0       17.077169    6.075855   -1.243468
    130          1           0       -4.933291   -7.889216   -0.372969
    131          1           0       -6.065388   -7.153533    0.843981
    132          1           0       -4.499433   -6.874500    1.161051
    133          8           0       -7.808551    6.824434   -0.356305
    134          1           0       -9.100161    6.410387   -1.767576
 ---------------------------------------------------------------------

 SCF Done:  E(RCAM-B3LYP) =  -3043.42951674     A.U. after   16 cycles

 Excitation energies and oscillator strengths:

 Excited State   1:      Singlet-A      1.9883 eV  623.56 nm  f=0.1650  <S**2>=0.000
     243 -> 246        0.28014
     244 -> 245        0.64323
 This state for optimization and/or second-order correction.
 Total Energy, E(TD-HF/TD-KS) =  -3043.35644736
 Copying the excited state density for this state as the 1-particle RhoCI density.

 The electronic state is 1-A.
 Alpha  occ. eigenvalues --  -46.80952 -19.22389 -19.21459 -19.19002 -19.17926
 Alpha  occ. eigenvalues --  -19.17551 -19.17304 -19.15770 -14.40306 -14.37544
 Alpha  occ. eigenvalues --  -14.36325 -14.36146 -10.35138 -10.34754 -10.32440
 Alpha  occ. eigenvalues --  -10.30959 -10.29232 -10.28487 -10.28316 -10.28216
 Alpha  occ. eigenvalues --  -10.27116 -10.26899 -10.26599 -10.26302 -10.26273
 Alpha  occ. eigenvalues --  -10.25720 -10.25247 -10.25202 -10.25097 -10.25020
 Alpha  occ. eigenvalues --  -10.24629 -10.24625 -10.24551 -10.24386 -10.24336
 Alpha  occ. eigenvalues --  -10.24030 -10.23749 -10.23692 -10.23625 -10.23609
 Alpha  occ. eigenvalues --  -10.23427 -10.23119 -10.23084 -10.22978 -10.22891
 Alpha  occ. eigenvalues --  -10.22846 -10.22558 -10.22509 -10.22406 -10.22100
 Alpha  occ. eigenvalues --  -10.22040 -10.22009 -10.21941 -10.21924 -10.21740
 Alpha  occ. eigenvalues --  -10.21710 -10.21649 -10.21482 -10.21412 -10.20935
 Alpha  occ. eigenvalues --  -10.20801 -10.20479 -10.20422 -10.20174 -10.20095
 Alpha  occ. eigenvalues --  -10.19233  -3.09703  -1.84633  -1.84170  -1.84129
 Alpha  occ. eigenvalues --   -1.14049  -1.12355  -1.11369  -1.08077  -1.05600
 Alpha  occ. eigenvalues --   -1.04175  -1.03553  -1.00859  -0.99978  -0.99801
 Alpha  occ. eigenvalues --   -0.98814  -0.88413  -0.86925  -0.86575  -0.86438
 Alpha  occ. eigenvalues --   -0.85721  -0.85218  -0.84776  -0.84272  -0.83658
 Alpha  occ. eigenvalues --   -0.83509  -0.82418  -0.81230  -0.80090  -0.79582
 Alpha  occ. eigenvalues --   -0.79397  -0.78678  -0.77889  -0.77512  -0.76279
 Alpha  occ. eigenvalues --   -0.75194  -0.74271  -0.74037  -0.72956  -0.71999
 Alpha  occ. eigenvalues --   -0.71596  -0.70937  -0.70576  -0.69959  -0.69845
 Alpha  occ. eigenvalues --   -0.69366  -0.68481  -0.67822  -0.66992  -0.66709
 Alpha  occ. eigenvalues --   -0.65567  -0.64781  -0.64003  -0.62726  -0.62354
 Alpha  occ. eigenvalues --   -0.61979  -0.60895  -0.59634  -0.59265  -0.59004
 Alpha  occ. eigenvalues --   -0.58673  -0.58377  -0.58153  -0.57227  -0.56819
 Alpha  occ. eigenvalues --   -0.56146  -0.55859  -0.55371  -0.54815  -0.54380
 Alpha  occ. eigenvalues --   -0.53956  -0.53176  -0.52819  -0.52616  -0.52374
 Alpha  occ. eigenvalues --   -0.51689  -0.51289  -0.50822  -0.50525  -0.50351
 Alpha  occ. eigenvalues --   -0.50235  -0.50190  -0.49977  -0.49483  -0.49281
 Alpha  occ. eigenvalues --   -0.49171  -0.48808  -0.48490  -0.48205  -0.48045
 Alpha  occ. eigenvalues --   -0.47914  -0.47617  -0.47425  -0.47298  -0.47166
 Alpha  occ. eigenvalues --   -0.46794  -0.46547  -0.46439  -0.46051  -0.46032
 Alpha  occ. eigenvalues --   -0.45677  -0.45388  -0.45127  -0.45035  -0.44924
 Alpha  occ. eigenvalues --   -0.44779  -0.44441  -0.44321  -0.44097  -0.43921
 Alpha  occ. eigenvalues --   -0.43651  -0.43188  -0.43088  -0.43029  -0.42869
 Alpha  occ. eigenvalues --   -0.42686  -0.42362  -0.42180  -0.41984  -0.41781
 Alpha  occ. eigenvalues --   -0.41681  -0.41540  -0.41408  -0.41326  -0.40966
 Alpha  occ. eigenvalues --   -0.40831  -0.40562  -0.40371  -0.40054  -0.39953
 Alpha  occ. eigenvalues --   -0.39894  -0.39717  -0.39608  -0.39200  -0.39018
 Alpha  occ. eigenvalues --   -0.38971  -0.38791  -0.38554  -0.38423  -0.38274
 Alpha  occ. eigenvalues --   -0.38155  -0.37878  -0.37791  -0.37598  -0.37154
 Alpha  occ. eigenvalues --   -0.36943  -0.36541  -0.36161  -0.35841  -0.35727
 Alpha  occ. eigenvalues --   -0.35562  -0.35467  -0.35253  -0.34971  -0.34795
 Alpha  occ. eigenvalues --   -0.34547  -0.33978  -0.33589  -0.33418  -0.33207
 Alpha  occ. eigenvalues --   -0.32979  -0.32309  -0.32270  -0.32001  -0.31948
 Alpha  occ. eigenvalues --   -0.31487  -0.31335  -0.31127  -0.31110  -0.29970
 Alpha  occ. eigenvalues --   -0.29257  -0.28368  -0.28174  -0.27946  -0.27662
 Alpha  occ. eigenvalues --   -0.27515  -0.26653  -0.23114  -0.21155
 Alpha virt. eigenvalues --   -0.08296  -0.06791  -0.01962  -0.00561   0.00711
 Alpha virt. eigenvalues --    0.02977   0.03327   0.04105   0.04223   0.04411
 Alpha virt. eigenvalues --    0.04579   0.05446   0.07861   0.08577   0.08881

 Mulliken charges:
               1
     1  Mg   0.823951
     2  C    0.099543
     3  C   -0.203352
     4  C   -0.178563
     5  C   -0.174053
     6  N   -0.597212
     7  C    0.256807
     8  C   -0.140663
     9  C   -0.143312
    10  C    0.324551
    11  C   -0.341650
    12  C   -0.156390
    13  C   -0.284127
    14  C    0.633857
    15  O   -0.471882
    16  O   -0.489348
    17  N   -0.711414
    18  C    0.313392
    19  C    0.051519
    20  C   -0.028825
    21  C    0.324910
    22  C   -0.371506
    23  C    0.234153
    24  O   -0.394297
    25  N   -0.717064
    26  C    0.324168
    27  C   -0.016045
    28  C   -0.002981
    29  C    0.363235
    30  C    0.199213
    31  C   -0.211073
    32  C   -0.287961
    33  N   -0.726718
    34  C    0.278854
    35  C   -0.008067
    36  C    0.034212
    37  C    0.299807
    38  C   -0.387713
    39  C    0.370574
    40  O   -0.390276
    41  C   -0.364873
    42  C    0.592238
    43  O   -0.462310
    44  O   -0.446584
    45  C   -0.083223
    46  C   -0.031945
    47  C   -0.129925
    48  C    0.186630
    49  C   -0.382338
    50  C   -0.253327
    51  C   -0.166786
    52  C   -0.142825
    53  C   -0.053485
    54  C   -0.297074
    55  C   -0.170838
    56  C   -0.174613
    57  C   -0.152735
    58  C   -0.050887
    59  C   -0.284066
    60  C   -0.167706
    61  C   -0.156839
    62  C   -0.167016
    63  C   -0.029584
    64  C   -0.309613
    65  C   -0.305408
    66  H    0.096348
    67  H    0.142308
    68  H    0.084555
    69  H    0.124734
    70  H    0.106732
    71  H    0.114313
    72  H    0.107764
    73  H    0.131040
    74  H    0.116751
    75  H    0.121457
    76  H    0.137635
    77  H    0.150889
    78  H    0.122401
    79  H    0.148845
    80  H    0.124408
    81  H    0.055187
    82  H    0.103816
    83  H    0.117765
    84  H    0.124442
    85  H    0.098853
    86  H    0.103053
    87  H    0.104471
    88  H    0.132743
    89  H    0.135544
    90  H    0.154233
    91  H    0.124058
    92  H    0.142126
    93  H    0.082759
    94  H    0.136779
    95  H    0.109079
    96  H    0.119709
    97  H    0.082274
    98  H    0.080946
    99  H    0.095499
   100  H    0.109347
   101  H    0.069658
   102  H    0.081064
   103  H    0.079814
   104  H    0.113344
   105  H    0.095671
   106  H    0.087268
   107  H    0.081265
   108  H    0.088843
   109  H    0.051703
   110  H    0.069076
   111  H    0.093880
   112  H    0.068355
   113  H    0.070791
   114  H    0.082422
   115  H    0.109523
   116  H    0.084050
   117  H    0.054987
   118  H    0.093750
   119  H    0.062437
   120  H    0.105536
   121  H    0.074446
   122  H    0.085701
   123  H    0.109279
   124  H    0.072119
   125  H    0.112050
   126  H    0.109152
   127  H    0.064270
   128  H    0.106966
   129  H    0.094018
   130  H    0.109829
   131  H    0.137937
   132  H    0.122174
   133  O   -0.448125
   134  H    0.070767
 Sum of Mulliken charges =   0.00000

 Dipole moment (field-independent basis, Debye):
    X=              2.2218    Y=             -5.3162    Z=             -1.3111  Tot=              5.9091
 Quadrupole moment (field-independent basis, Debye-Ang):
   XX=           -374.6006   YY=           -441.1851   ZZ=           -389.1693
   XY=             11.4337   XZ=             17.6862   YZ=            -30.7449

 Normal termination of Gaussian 09 at Wed Oct  9 02:32:42 2019.
