 Gaussian 09, Revision D.01,
 Gaussian 09:  ES64L-G09RevD.01 24-Apr-2013

 ----------------------------------------------------------------------
 # td=(NStates=1) iop(3/107=0140000000,3/108=0140000000) iop(3/107=0140
 000000,3/108=0140000000) CAM-B3LYP/6-31G(d,p)
 ----------------------------------------------------------------------

 --
 TD
 --
 Symbolic Z-matrix:
 Charge =  0 Multiplicity = 1

                         Standard orientation:
 ---------------------------------------------------------------------
 Center     Atomic      Atomic             Coordinates (Angstroms)
 Number     Number       Type             X           Y           Z
 ---------------------------------------------------------------------
      1         12           0       -5.583698    1.261294    0.180473
      2          6           0       -5.097359   -2.123671   -0.348714
      3          6           0       -3.480303    1.132949    2.922195
      4          6           0       -6.124712    4.591760    0.774940
      5          6           0       -7.975219    1.267180   -2.354226
      6          7           0       -4.341012   -0.253842    1.051438
      7          6           0       -4.173797   -1.577799    0.550704
      8          6           0       -3.265861   -2.335785    1.510394
      9          6           0       -3.105041   -1.350838    2.657398
     10          6           0       -3.621903   -0.028369    2.193852
     11          6           0       -3.579233   -1.851699    4.106941
     12          6           0       -1.972351   -2.625910    0.686155
     13          6           0       -0.942783   -3.581160    1.390690
     14          6           0        0.163507   -3.914129    0.596813
     15          8           0        0.403180   -3.484742   -0.537143
     16          8           0        1.035971   -4.792105    1.290089
     17          7           0       -4.905868    2.635934    1.509657
     18          6           0       -3.963736    2.324856    2.510070
     19          6           0       -3.724938    3.554157    3.194355
     20          6           0       -4.399053    4.585274    2.613629
     21          6           0       -5.081533    3.975824    1.466295
     22          6           0       -2.700024    3.784079    4.380537
     23          6           0       -4.447894    5.946822    2.904206
     24          8           0       -3.920228    6.496578    3.927731
     25          7           0       -6.866933    2.673257   -0.700469
     26          6           0       -6.876782    3.929767   -0.291493
     27          6           0       -7.710602    4.713269   -1.184011
     28          6           0       -8.260081    3.801663   -2.113310
     29          6           0       -7.650644    2.513356   -1.754700
     30          6           0       -8.060010    6.094116   -1.122798
     31          6           0       -9.226450    3.953745   -3.158533
     32          6           0       -8.633022    4.121975   -4.651177
     33          7           0       -6.489378   -0.076364   -1.025011
     34          6           0       -7.320752    0.056305   -2.104611
     35          6           0       -7.550116   -1.243450   -2.774195
     36          6           0       -6.673946   -2.129116   -2.087710
     37          6           0       -5.922067   -1.333123   -1.129520
     38          6           0       -8.478614   -1.576083   -3.941239
     39          6           0       -6.141978   -3.541443   -2.049877
     40          8           0       -6.499161   -4.400965   -2.789018
     41          6           0       -5.078128   -3.553548   -0.866801
     42          6           0       -5.385377   -4.689194    0.129423
     43          8           0       -5.934408   -4.431712    1.201301
     44          8           0       -5.208008   -5.932844   -0.386205
     45          6           0       -5.582836   -6.955081    0.323751
     46          6           0        2.247227   -5.061143    0.455466
     47          6           0        3.307722   -4.238801    0.869722
     48          6           0        3.987403   -3.349378    0.110489
     49          6           0        3.932726   -3.229246   -1.423306
     50          6           0        5.081391   -2.375973    0.756418
     51          6           0        6.420854   -2.724386   -0.000056
     52          6           0        7.599241   -1.898949    0.636776
     53          6           0        8.906378   -2.029934    0.022984
     54          6           0        9.521949   -3.374177    0.225880
     55          6           0        9.946312   -0.898308    0.561435
     56          6           0       11.331707   -1.019801   -0.056849
     57          6           0       12.145319    0.232249    0.248823
     58          6           0       13.385602    0.463309   -0.556295
     59          6           0       14.383084   -0.802422   -0.401742
     60          6           0       14.106276    1.754795   -0.174431
     61          6           0       15.315695    2.116211   -1.021107
     62          6           0       15.966534    3.515466   -0.549048
     63          6           0       17.311399    3.914451   -1.362086
     64          6           0       17.002698    3.991570   -2.896241
     65          6           0       17.832446    5.268362   -0.990586
     66          1           0       -2.755938    1.150823    3.804187
     67          1           0       -6.477097    5.587272    1.019657
     68          1           0       -8.563181    1.322558   -3.428965
     69          1           0       -3.793637   -3.278503    1.937067
     70          1           0       -2.098156   -1.224617    2.818153
     71          1           0       -2.796453   -2.532514    4.700885
     72          1           0       -3.323379   -0.982994    4.663015
     73          1           0       -4.765799   -2.065502    3.979804
     74          1           0       -2.246306   -3.170894   -0.242431
     75          1           0       -1.197828   -1.887092    0.449563
     76          1           0       -0.367632   -3.231455    2.419919
     77          1           0       -1.491133   -4.429906    1.474255
     78          1           0       -1.800584    3.233819    3.753071
     79          1           0       -2.387623    4.612533    4.756220
     80          1           0       -3.113125    2.976677    5.003926
     81          1           0       -4.880919    6.554611    2.272941
     82          1           0       -9.832283    2.941914   -3.289481
     83          1           0      -10.013089    4.747871   -3.056155
     84          1           0       -9.280044    4.238789   -5.516701
     85          1           0       -7.969036    4.898994   -4.501472
     86          1           0       -8.028179    3.252345   -4.746239
     87          1           0       -8.247269   -0.700555   -4.660548
     88          1           0       -8.364913   -2.569822   -4.179458
     89          1           0       -9.420080   -1.632579   -3.703243
     90          1           0       -4.000893   -3.665938   -1.289047
     91          1           0        2.420798   -6.197088    0.663476
     92          1           0        1.962194   -5.050598   -0.579253
     93          1           0        3.640612   -4.532368    1.835836
     94          1           0        2.774789   -3.432318   -1.693040
     95          1           0        4.261447   -2.216679   -1.859624
     96          1           0        4.548821   -3.901185   -1.849920
     97          1           0        4.923366   -1.316318    0.637451
     98          1           0        5.273371   -2.628307    1.760639
     99          1           0        6.730662   -3.777530    0.332509
    100          1           0        6.261582   -2.274523   -1.139239
    101          1           0        7.322172   -0.878251    0.520207
    102          1           0        7.690609   -1.836236    1.806215
    103          1           0        8.980725   -1.918126   -1.004389
    104          1           0        8.908290   -4.442445   -0.060809
    105          1           0       10.566992   -3.557147   -0.267236
    106          1           0        9.729639   -3.423687    1.253263
    107          1           0        9.507787    0.154888    0.203356
    108          1           0        9.958713   -1.021258    1.630902
    109          1           0       11.678960   -2.033773    0.126814
    110          1           0       11.103808   -1.107919   -1.119720
    111          1           0       11.524336    1.277625    0.372993
    112          1           0       12.552389    0.367656    1.269817
    113          1           0       13.163667    0.528826   -1.674490
    114          1           0       14.550103   -0.886755    0.681821
    115          1           0       14.001320   -1.658706   -0.782138
    116          1           0       15.293801   -0.651677   -0.933782
    117          1           0       13.412336    2.721994   -0.080615
    118          1           0       14.465397    1.745523    0.880504
    119          1           0       16.078175    1.406537   -0.763354
    120          1           0       15.051974    2.270646   -2.059727
    121          1           0       15.303275    4.313974   -0.793123
    122          1           0       16.082571    3.494570    0.541153
    123          1           0       18.096643    3.055252   -1.144781
    124          1           0       16.206212    4.949152   -3.227551
    125          1           0       18.119526    4.130696   -3.358549
    126          1           0       16.560343    3.106007   -3.442518
    127          1           0       18.337147    5.207853   -0.049761
    128          1           0       18.837777    5.336946   -1.659752
    129          1           0       17.201825    6.184527   -1.105087
    130          1           0       -5.157700   -7.916470   -0.074012
    131          1           0       -6.495032   -6.999221    0.666222
    132          1           0       -4.983627   -6.912709    1.277332
    133          8           0       -7.546613    6.860966   -0.312890
    134          1           0       -8.782337    6.519405   -1.956940
 ---------------------------------------------------------------------

 SCF Done:  E(RCAM-B3LYP) =  -3043.41247115     A.U. after   16 cycles

 Excitation energies and oscillator strengths:

 Excited State   1:      Singlet-A      2.0715 eV  598.52 nm  f=0.1245  <S**2>=0.000
     243 -> 246       -0.31757
     244 -> 245        0.62029
 This state for optimization and/or second-order correction.
 Total Energy, E(TD-HF/TD-KS) =  -3043.33634466
 Copying the excited state density for this state as the 1-particle RhoCI density.

 The electronic state is 1-A.
 Alpha  occ. eigenvalues --  -46.81605 -19.24388 -19.21398 -19.18789 -19.18349
 Alpha  occ. eigenvalues --  -19.17684 -19.16661 -19.15260 -14.39360 -14.37208
 Alpha  occ. eigenvalues --  -14.37100 -14.36937 -10.37161 -10.34772 -10.32626
 Alpha  occ. eigenvalues --  -10.30397 -10.28026 -10.27918 -10.27630 -10.27171
 Alpha  occ. eigenvalues --  -10.26869 -10.26728 -10.26492 -10.26481 -10.26480
 Alpha  occ. eigenvalues --  -10.26189 -10.26147 -10.26129 -10.25987 -10.25920
 Alpha  occ. eigenvalues --  -10.25078 -10.24750 -10.24605 -10.24561 -10.24461
 Alpha  occ. eigenvalues --  -10.24314 -10.24242 -10.24194 -10.23906 -10.23697
 Alpha  occ. eigenvalues --  -10.23676 -10.23530 -10.23383 -10.23343 -10.23292
 Alpha  occ. eigenvalues --  -10.22821 -10.22541 -10.22488 -10.22043 -10.21978
 Alpha  occ. eigenvalues --  -10.21934 -10.21792 -10.21733 -10.21692 -10.21668
 Alpha  occ. eigenvalues --  -10.21454 -10.21298 -10.21248 -10.21029 -10.20969
 Alpha  occ. eigenvalues --  -10.20850 -10.20684 -10.20683 -10.20538 -10.20376
 Alpha  occ. eigenvalues --  -10.19256  -3.10168  -1.85116  -1.84638  -1.84569
 Alpha  occ. eigenvalues --   -1.17291  -1.10960  -1.09549  -1.06830  -1.06140
 Alpha  occ. eigenvalues --   -1.03316  -1.02379  -1.01645  -0.99954  -0.99566
 Alpha  occ. eigenvalues --   -0.98529  -0.89210  -0.86506  -0.86049  -0.85670
 Alpha  occ. eigenvalues --   -0.84999  -0.84868  -0.84190  -0.83485  -0.83149
 Alpha  occ. eigenvalues --   -0.83014  -0.82575  -0.82363  -0.81059  -0.80177
 Alpha  occ. eigenvalues --   -0.79459  -0.78472  -0.78409  -0.77658  -0.76246
 Alpha  occ. eigenvalues --   -0.75564  -0.75264  -0.74443  -0.74005  -0.72835
 Alpha  occ. eigenvalues --   -0.71126  -0.70641  -0.70209  -0.69897  -0.69479
 Alpha  occ. eigenvalues --   -0.69292  -0.68477  -0.68078  -0.67215  -0.66691
 Alpha  occ. eigenvalues --   -0.66248  -0.64609  -0.64388  -0.63254  -0.62370
 Alpha  occ. eigenvalues --   -0.61723  -0.61489  -0.60411  -0.60095  -0.59215
 Alpha  occ. eigenvalues --   -0.58085  -0.58045  -0.57764  -0.57515  -0.57231
 Alpha  occ. eigenvalues --   -0.57053  -0.56302  -0.56063  -0.55635  -0.55448
 Alpha  occ. eigenvalues --   -0.54727  -0.54344  -0.53501  -0.52950  -0.52736
 Alpha  occ. eigenvalues --   -0.52420  -0.52106  -0.51469  -0.51323  -0.51097
 Alpha  occ. eigenvalues --   -0.50427  -0.50312  -0.49846  -0.49619  -0.49535
 Alpha  occ. eigenvalues --   -0.49186  -0.49011  -0.48698  -0.48648  -0.48494
 Alpha  occ. eigenvalues --   -0.48070  -0.47931  -0.47409  -0.47151  -0.46880
 Alpha  occ. eigenvalues --   -0.46824  -0.46671  -0.46566  -0.46295  -0.45867
 Alpha  occ. eigenvalues --   -0.45814  -0.45592  -0.45359  -0.45254  -0.44850
 Alpha  occ. eigenvalues --   -0.44738  -0.44694  -0.44383  -0.44275  -0.43847
 Alpha  occ. eigenvalues --   -0.43702  -0.43283  -0.43061  -0.42988  -0.42689
 Alpha  occ. eigenvalues --   -0.42532  -0.42433  -0.42320  -0.42053  -0.41856
 Alpha  occ. eigenvalues --   -0.41687  -0.41546  -0.41435  -0.41160  -0.41076
 Alpha  occ. eigenvalues --   -0.40987  -0.40619  -0.40401  -0.40364  -0.40077
 Alpha  occ. eigenvalues --   -0.39957  -0.39401  -0.39170  -0.38753  -0.38679
 Alpha  occ. eigenvalues --   -0.38525  -0.38395  -0.38268  -0.38229  -0.37361
 Alpha  occ. eigenvalues --   -0.37332  -0.37232  -0.37142  -0.36855  -0.36793
 Alpha  occ. eigenvalues --   -0.36461  -0.36302  -0.36160  -0.36094  -0.35849
 Alpha  occ. eigenvalues --   -0.35378  -0.35092  -0.35062  -0.34947  -0.34797
 Alpha  occ. eigenvalues --   -0.34715  -0.33957  -0.33585  -0.33474  -0.33436
 Alpha  occ. eigenvalues --   -0.33157  -0.32742  -0.32227  -0.32082  -0.31811
 Alpha  occ. eigenvalues --   -0.31713  -0.31406  -0.30984  -0.30624  -0.29897
 Alpha  occ. eigenvalues --   -0.28648  -0.28255  -0.27942  -0.27653  -0.27554
 Alpha  occ. eigenvalues --   -0.26808  -0.26687  -0.23233  -0.21840
 Alpha virt. eigenvalues --   -0.08328  -0.07221  -0.02350  -0.00925  -0.00216
 Alpha virt. eigenvalues --    0.01439   0.02136   0.03220   0.03409   0.03537
 Alpha virt. eigenvalues --    0.04258   0.05500   0.06854   0.07870   0.08629

 Mulliken charges:
               1
     1  Mg   0.829579
     2  C    0.084072
     3  C   -0.187205
     4  C   -0.148415
     5  C   -0.165874
     6  N   -0.627388
     7  C    0.247044
     8  C   -0.165191
     9  C   -0.150184
    10  C    0.360269
    11  C   -0.312665
    12  C   -0.192215
    13  C   -0.263945
    14  C    0.618181
    15  O   -0.484741
    16  O   -0.502206
    17  N   -0.703628
    18  C    0.358226
    19  C   -0.034814
    20  C    0.018551
    21  C    0.271760
    22  C   -0.300039
    23  C    0.230267
    24  O   -0.466026
    25  N   -0.679631
    26  C    0.302689
    27  C   -0.026050
    28  C    0.083521
    29  C    0.281491
    30  C    0.222276
    31  C   -0.308499
    32  C   -0.316771
    33  N   -0.675498
    34  C    0.276408
    35  C   -0.014101
    36  C   -0.014054
    37  C    0.272217
    38  C   -0.350311
    39  C    0.385555
    40  O   -0.423000
    41  C   -0.323566
    42  C    0.610618
    43  O   -0.458298
    44  O   -0.385237
    45  C   -0.089312
    46  C   -0.015978
    47  C   -0.100881
    48  C    0.123365
    49  C   -0.379530
    50  C   -0.222727
    51  C   -0.180793
    52  C   -0.175704
    53  C   -0.050762
    54  C   -0.303407
    55  C   -0.186577
    56  C   -0.177720
    57  C   -0.157023
    58  C   -0.054501
    59  C   -0.321980
    60  C   -0.173887
    61  C   -0.173649
    62  C   -0.185081
    63  C   -0.052688
    64  C   -0.276821
    65  C   -0.290751
    66  H    0.099379
    67  H    0.150713
    68  H    0.086069
    69  H    0.128392
    70  H    0.109496
    71  H    0.107020
    72  H    0.118082
    73  H    0.125990
    74  H    0.113694
    75  H    0.135441
    76  H    0.129769
    77  H    0.149741
    78  H    0.089314
    79  H    0.148073
    80  H    0.126052
    81  H    0.087828
    82  H    0.100176
    83  H    0.114841
    84  H    0.118590
    85  H    0.124686
    86  H    0.109902
    87  H    0.116392
    88  H    0.147820
    89  H    0.144880
    90  H    0.155352
    91  H    0.092657
    92  H    0.132522
    93  H    0.089867
    94  H    0.126831
    95  H    0.101415
    96  H    0.147466
    97  H    0.110954
    98  H    0.104384
    99  H    0.107931
   100  H    0.086585
   101  H    0.090558
   102  H    0.070802
   103  H    0.091620
   104  H    0.066038
   105  H    0.085647
   106  H    0.106842
   107  H    0.077248
   108  H    0.094506
   109  H    0.104877
   110  H    0.096777
   111  H    0.067088
   112  H    0.089814
   113  H    0.069841
   114  H    0.097967
   115  H    0.111227
   116  H    0.105175
   117  H    0.065137
   118  H    0.080447
   119  H    0.103016
   120  H    0.098769
   121  H    0.091364
   122  H    0.083617
   123  H    0.076351
   124  H    0.066229
   125  H    0.080166
   126  H    0.101467
   127  H    0.106852
   128  H    0.073397
   129  H    0.111492
   130  H    0.117131
   131  H    0.135939
   132  H    0.089152
   133  O   -0.431109
   134  H    0.059485
 Sum of Mulliken charges =   0.00000

 Dipole moment (field-independent basis, Debye):
    X=              2.5075    Y=             -5.9245    Z=             -1.8484  Tot=              6.6936
 Quadrupole moment (field-independent basis, Debye-Ang):
   XX=           -379.3081   YY=           -443.9952   ZZ=           -398.5863
   XY=             14.0869   XZ=             31.1809   YZ=            -35.5531

 Normal termination of Gaussian 09 at Mon Oct  7 23:51:38 2019.
