 Gaussian 09, Revision D.01,
 Gaussian 09:  ES64L-G09RevD.01 24-Apr-2013

 ----------------------------------------------------------------------
 # td=(NStates=1) iop(3/107=0140000000,3/108=0140000000) iop(3/107=0140
 000000,3/108=0140000000) CAM-B3LYP/6-31G(d,p)
 ----------------------------------------------------------------------

 --
 TD
 --
 Symbolic Z-matrix:
 Charge =  0 Multiplicity = 1

                         Standard orientation:
 ---------------------------------------------------------------------
 Center     Atomic      Atomic             Coordinates (Angstroms)
 Number     Number       Type             X           Y           Z
 ---------------------------------------------------------------------
      1         12           0       -5.533603    1.281707    0.172873
      2          6           0       -4.998334   -2.158277   -0.350665
      3          6           0       -3.376138    1.193763    2.777239
      4          6           0       -6.069437    4.613105    0.628298
      5          6           0       -7.946728    1.249007   -2.375856
      6          7           0       -4.447267   -0.322144    1.095972
      7          6           0       -4.277395   -1.665684    0.674771
      8          6           0       -3.210973   -2.338027    1.530351
      9          6           0       -2.995243   -1.336547    2.648338
     10          6           0       -3.682121   -0.067407    2.168681
     11          6           0       -3.457072   -1.844245    4.046346
     12          6           0       -2.023089   -2.680651    0.696646
     13          6           0       -0.905480   -3.511761    1.462662
     14          6           0        0.218767   -3.893874    0.617087
     15          8           0        0.450550   -3.506979   -0.509395
     16          8           0        0.991042   -4.815274    1.353457
     17          7           0       -4.862450    2.677092    1.423447
     18          6           0       -3.939640    2.449020    2.454691
     19          6           0       -3.604565    3.712365    3.146868
     20          6           0       -4.396625    4.711489    2.528752
     21          6           0       -5.185143    3.959350    1.515926
     22          6           0       -2.671069    3.919716    4.238757
     23          6           0       -4.691528    6.075300    2.971386
     24          8           0       -4.057763    6.571468    3.976674
     25          7           0       -6.831163    2.698397   -0.701268
     26          6           0       -6.854670    4.054952   -0.359761
     27          6           0       -7.662760    4.705933   -1.306770
     28          6           0       -8.277039    3.765163   -2.102808
     29          6           0       -7.734045    2.459960   -1.714328
     30          6           0       -8.091668    6.059666   -1.204891
     31          6           0       -9.320775    3.891005   -3.320916
     32          6           0       -8.606727    3.791437   -4.699213
     33          7           0       -6.243455   -0.063068   -1.158543
     34          6           0       -7.329943    0.007855   -2.090364
     35          6           0       -7.744441   -1.331573   -2.551119
     36          6           0       -6.771708   -2.147037   -2.047633
     37          6           0       -6.021241   -1.397389   -1.034896
     38          6           0       -8.632324   -1.553719   -3.757077
     39          6           0       -6.272377   -3.552864   -1.958477
     40          8           0       -6.722332   -4.542665   -2.487738
     41          6           0       -5.094728   -3.581707   -0.950883
     42          6           0       -5.371565   -4.687043    0.134123
     43          8           0       -5.731649   -4.473543    1.256033
     44          8           0       -4.971288   -5.901794   -0.419060
     45          6           0       -5.471783   -6.982438    0.347719
     46          6           0        2.270087   -5.165222    0.628065
     47          6           0        3.354183   -4.143398    1.031932
     48          6           0        4.022721   -3.329845    0.188672
     49          6           0        3.629751   -3.261762   -1.332679
     50          6           0        5.131690   -2.397831    0.727550
     51          6           0        6.519662   -2.747610    0.056114
     52          6           0        7.547806   -1.853230    0.469305
     53          6           0        8.867527   -2.042983   -0.203171
     54          6           0        9.564368   -3.387189    0.061300
     55          6           0        9.906636   -0.930268    0.319885
     56          6           0       11.365645   -0.852327   -0.339757
     57          6           0       12.210980    0.393294    0.067422
     58          6           0       13.540169    0.452733   -0.654938
     59          6           0       14.409622   -0.783822   -0.356613
     60          6           0       14.234819    1.718065   -0.141151
     61          6           0       15.409003    2.176664   -0.946213
     62          6           0       15.959377    3.571892   -0.648929
     63          6           0       17.360246    3.810514   -1.345441
     64          6           0       17.226435    4.054585   -2.783208
     65          6           0       17.923514    5.102454   -0.662560
     66          1           0       -2.863265    0.944326    3.788822
     67          1           0       -6.327157    5.668438    0.713538
     68          1           0       -8.970680    1.370521   -2.794014
     69          1           0       -3.825949   -3.190123    2.100096
     70          1           0       -1.958258   -0.867578    2.676687
     71          1           0       -3.047953   -2.809164    4.267045
     72          1           0       -3.114285   -1.068003    4.943355
     73          1           0       -4.655403   -1.998409    4.218389
     74          1           0       -2.225559   -3.279273   -0.287635
     75          1           0       -1.514914   -1.769050    0.527101
     76          1           0       -0.654073   -2.943022    2.239734
     77          1           0       -1.466634   -4.647578    1.834176
     78          1           0       -1.595897    3.925612    3.805214
     79          1           0       -2.774224    4.779664    4.812281
     80          1           0       -2.822070    2.924961    4.990157
     81          1           0       -5.661792    6.769620    2.681149
     82          1           0       -9.991946    2.965417   -3.194117
     83          1           0       -9.871785    4.896183   -3.225823
     84          1           0       -9.089129    3.961484   -5.663813
     85          1           0       -8.006898    4.667169   -4.713326
     86          1           0       -8.147892    2.885559   -4.687250
     87          1           0       -8.338350   -0.823413   -4.572041
     88          1           0       -8.674713   -2.591022   -4.028589
     89          1           0       -9.715690   -1.182698   -3.458080
     90          1           0       -4.231045   -3.941980   -1.348848
     91          1           0        2.577533   -6.077411    1.164386
     92          1           0        2.011079   -5.507666   -0.374341
     93          1           0        3.801742   -4.330446    2.122426
     94          1           0        2.525918   -3.316535   -1.402562
     95          1           0        3.835694   -2.240659   -1.794838
     96          1           0        4.172038   -3.981144   -1.885856
     97          1           0        4.840271   -1.443872    0.801824
     98          1           0        5.372983   -2.809659    1.754995
     99          1           0        6.804873   -3.792556   -0.038461
    100          1           0        6.266887   -2.721409   -1.118852
    101          1           0        7.126872   -0.864101    0.290721
    102          1           0        7.867300   -1.668212    1.522857
    103          1           0        8.703353   -1.828076   -1.281887
    104          1           0        8.802480   -4.233948   -0.361291
    105          1           0       10.760435   -3.369619   -0.025788
    106          1           0        9.310884   -3.637525    1.309967
    107          1           0        9.475309    0.077530    0.050181
    108          1           0       10.039746   -1.071005    1.434100
    109          1           0       11.885564   -1.830919   -0.180260
    110          1           0       10.903177   -0.755618   -1.469742
    111          1           0       11.718228    1.278739    0.062548
    112          1           0       12.359575    0.145178    1.130381
    113          1           0       13.475304    0.403002   -1.498998
    114          1           0       14.665006   -0.932634    0.767027
    115          1           0       13.956530   -1.698971   -0.584389
    116          1           0       15.218631   -0.626083   -0.989988
    117          1           0       13.463478    2.543633   -0.044408
    118          1           0       14.609321    1.601183    0.967148
    119          1           0       16.174244    1.429931   -0.649019
    120          1           0       15.288086    2.153910   -1.999468
    121          1           0       15.143608    4.321450   -1.274797
    122          1           0       16.035625    3.639184    0.549870
    123          1           0       18.103294    3.056805   -1.165118
    124          1           0       16.570918    4.839105   -2.817953
    125          1           0       18.120827    4.264703   -3.158673
    126          1           0       16.723530    3.342104   -3.399407
    127          1           0       18.055251    5.135075    0.331388
    128          1           0       18.779516    5.304669   -1.309999
    129          1           0       17.306053    5.861532   -0.909130
    130          1           0       -5.094742   -7.870384   -0.031532
    131          1           0       -6.447202   -6.777357    0.289424
    132          1           0       -5.186280   -6.932123    1.557693
    133          8           0       -7.775076    6.923553   -0.422906
    134          1           0       -8.859496    6.280667   -2.024040
 ---------------------------------------------------------------------

 SCF Done:  E(RCAM-B3LYP) =  -3043.40585104     A.U. after   16 cycles

 Excitation energies and oscillator strengths:

 Excited State   1:      Singlet-A      1.9367 eV  640.17 nm  f=0.2106  <S**2>=0.000
     243 -> 246        0.22321
     244 -> 245        0.66426
 This state for optimization and/or second-order correction.
 Total Energy, E(TD-HF/TD-KS) =  -3043.33467751
 Copying the excited state density for this state as the 1-particle RhoCI density.

 The electronic state is 1-A.
 Alpha  occ. eigenvalues --  -46.81648 -19.23230 -19.21579 -19.19406 -19.18401
 Alpha  occ. eigenvalues --  -19.17565 -19.17025 -19.16567 -14.39178 -14.37720
 Alpha  occ. eigenvalues --  -14.37634 -14.36317 -10.36345 -10.35281 -10.32034
 Alpha  occ. eigenvalues --  -10.31588 -10.29790 -10.28136 -10.28117 -10.27830
 Alpha  occ. eigenvalues --  -10.27633 -10.27207 -10.26971 -10.26861 -10.26754
 Alpha  occ. eigenvalues --  -10.25920 -10.25560 -10.25541 -10.25537 -10.25509
 Alpha  occ. eigenvalues --  -10.25221 -10.25198 -10.25198 -10.25112 -10.25073
 Alpha  occ. eigenvalues --  -10.24881 -10.24744 -10.24508 -10.24296 -10.24226
 Alpha  occ. eigenvalues --  -10.24216 -10.24209 -10.23972 -10.23605 -10.23135
 Alpha  occ. eigenvalues --  -10.23043 -10.22975 -10.22840 -10.22753 -10.22367
 Alpha  occ. eigenvalues --  -10.22107 -10.22082 -10.21942 -10.21730 -10.21492
 Alpha  occ. eigenvalues --  -10.21010 -10.20986 -10.20960 -10.20799 -10.20349
 Alpha  occ. eigenvalues --  -10.19818 -10.19590 -10.19300 -10.18808 -10.17837
 Alpha  occ. eigenvalues --  -10.17758  -3.10229  -1.85167  -1.84686  -1.84654
 Alpha  occ. eigenvalues --   -1.14185  -1.11507  -1.07917  -1.07209  -1.07119
 Alpha  occ. eigenvalues --   -1.04129  -1.02800  -1.00625  -0.99870  -0.99082
 Alpha  occ. eigenvalues --   -0.98197  -0.88268  -0.86503  -0.86311  -0.85962
 Alpha  occ. eigenvalues --   -0.85028  -0.84481  -0.84019  -0.83832  -0.83587
 Alpha  occ. eigenvalues --   -0.83545  -0.83100  -0.81725  -0.80387  -0.79779
 Alpha  occ. eigenvalues --   -0.79245  -0.78419  -0.77782  -0.77479  -0.76284
 Alpha  occ. eigenvalues --   -0.75121  -0.75039  -0.73702  -0.73166  -0.72593
 Alpha  occ. eigenvalues --   -0.72291  -0.71405  -0.70418  -0.69912  -0.69502
 Alpha  occ. eigenvalues --   -0.68858  -0.68683  -0.67288  -0.66408  -0.66008
 Alpha  occ. eigenvalues --   -0.65808  -0.64817  -0.64281  -0.62937  -0.62246
 Alpha  occ. eigenvalues --   -0.61620  -0.61053  -0.60810  -0.59916  -0.59236
 Alpha  occ. eigenvalues --   -0.58351  -0.58226  -0.57574  -0.57466  -0.56479
 Alpha  occ. eigenvalues --   -0.56076  -0.55696  -0.55066  -0.55000  -0.54427
 Alpha  occ. eigenvalues --   -0.54395  -0.53876  -0.52974  -0.52471  -0.51936
 Alpha  occ. eigenvalues --   -0.51676  -0.51309  -0.51061  -0.50977  -0.50794
 Alpha  occ. eigenvalues --   -0.50659  -0.50366  -0.50174  -0.49299  -0.49200
 Alpha  occ. eigenvalues --   -0.49066  -0.48802  -0.48599  -0.48386  -0.48236
 Alpha  occ. eigenvalues --   -0.47928  -0.47570  -0.47387  -0.47244  -0.47163
 Alpha  occ. eigenvalues --   -0.46820  -0.46632  -0.46431  -0.46043  -0.45838
 Alpha  occ. eigenvalues --   -0.45670  -0.45500  -0.45305  -0.45198  -0.45045
 Alpha  occ. eigenvalues --   -0.44636  -0.44410  -0.44362  -0.43937  -0.43724
 Alpha  occ. eigenvalues --   -0.43456  -0.43234  -0.43100  -0.42949  -0.42769
 Alpha  occ. eigenvalues --   -0.42745  -0.42556  -0.42408  -0.41990  -0.41919
 Alpha  occ. eigenvalues --   -0.41604  -0.41467  -0.41287  -0.41199  -0.41130
 Alpha  occ. eigenvalues --   -0.41080  -0.40798  -0.40670  -0.40409  -0.40278
 Alpha  occ. eigenvalues --   -0.40004  -0.39897  -0.39787  -0.39759  -0.39574
 Alpha  occ. eigenvalues --   -0.39564  -0.39118  -0.38821  -0.38468  -0.38420
 Alpha  occ. eigenvalues --   -0.38031  -0.37943  -0.37814  -0.37458  -0.37108
 Alpha  occ. eigenvalues --   -0.36909  -0.36505  -0.36076  -0.35891  -0.35733
 Alpha  occ. eigenvalues --   -0.35490  -0.35330  -0.35252  -0.35090  -0.34536
 Alpha  occ. eigenvalues --   -0.34215  -0.33946  -0.33828  -0.33464  -0.32925
 Alpha  occ. eigenvalues --   -0.32843  -0.32407  -0.32320  -0.32207  -0.31514
 Alpha  occ. eigenvalues --   -0.31314  -0.31169  -0.30813  -0.30180  -0.30113
 Alpha  occ. eigenvalues --   -0.29074  -0.28558  -0.28224  -0.28027  -0.27535
 Alpha  occ. eigenvalues --   -0.27517  -0.27244  -0.23636  -0.21339
 Alpha virt. eigenvalues --   -0.08894  -0.06740  -0.02088  -0.00974   0.00448
 Alpha virt. eigenvalues --    0.02135   0.02306   0.03322   0.03721   0.04081
 Alpha virt. eigenvalues --    0.04586   0.05048   0.07487   0.07752   0.08656

 Mulliken charges:
               1
     1  Mg   0.825566
     2  C    0.051652
     3  C   -0.199691
     4  C   -0.172403
     5  C   -0.156981
     6  N   -0.631057
     7  C    0.273109
     8  C   -0.150632
     9  C   -0.155434
    10  C    0.353284
    11  C   -0.311170
    12  C   -0.173201
    13  C   -0.245880
    14  C    0.627671
    15  O   -0.459887
    16  O   -0.495619
    17  N   -0.701092
    18  C    0.308431
    19  C    0.061226
    20  C   -0.003058
    21  C    0.315278
    22  C   -0.366681
    23  C    0.208072
    24  O   -0.439862
    25  N   -0.694052
    26  C    0.296392
    27  C   -0.008434
    28  C   -0.000006
    29  C    0.290884
    30  C    0.248965
    31  C   -0.251770
    32  C   -0.301217
    33  N   -0.658833
    34  C    0.246445
    35  C    0.001010
    36  C    0.030408
    37  C    0.260516
    38  C   -0.366970
    39  C    0.376377
    40  O   -0.450472
    41  C   -0.290789
    42  C    0.605495
    43  O   -0.436552
    44  O   -0.452021
    45  C   -0.071757
    46  C   -0.003776
    47  C   -0.141611
    48  C    0.119698
    49  C   -0.387501
    50  C   -0.224390
    51  C   -0.189747
    52  C   -0.137212
    53  C   -0.046635
    54  C   -0.285241
    55  C   -0.193204
    56  C   -0.190595
    57  C   -0.162723
    58  C    0.020215
    59  C   -0.327325
    60  C   -0.176505
    61  C   -0.170020
    62  C   -0.153345
    63  C   -0.067504
    64  C   -0.304058
    65  C   -0.306474
    66  H    0.092185
    67  H    0.123762
    68  H    0.095132
    69  H    0.129805
    70  H    0.112525
    71  H    0.131565
    72  H    0.088084
    73  H    0.114040
    74  H    0.114612
    75  H    0.126898
    76  H    0.146924
    77  H    0.101837
    78  H    0.127306
    79  H    0.170550
    80  H    0.079790
    81  H    0.107170
    82  H    0.104894
    83  H    0.109830
    84  H    0.110688
    85  H    0.120994
    86  H    0.120446
    87  H    0.135287
    88  H    0.151045
    89  H    0.108100
    90  H    0.163448
    91  H    0.115040
    92  H    0.135289
    93  H    0.082381
    94  H    0.157937
    95  H    0.098349
    96  H    0.126442
    97  H    0.118694
    98  H    0.099906
    99  H    0.099103
   100  H    0.069617
   101  H    0.092356
   102  H    0.090295
   103  H    0.082290
   104  H    0.089591
   105  H    0.109470
   106  H    0.053279
   107  H    0.081749
   108  H    0.077446
   109  H    0.088320
   110  H    0.060504
   111  H    0.094576
   112  H    0.089881
   113  H    0.068222
   114  H    0.084588
   115  H    0.104498
   116  H    0.106482
   117  H    0.072414
   118  H    0.073614
   119  H    0.091784
   120  H    0.089935
   121  H    0.052633
   122  H    0.070264
   123  H    0.088217
   124  H    0.106936
   125  H    0.107688
   126  H    0.100619
   127  H    0.107192
   128  H    0.083126
   129  H    0.108571
   130  H    0.131413
   131  H    0.142442
   132  H    0.093972
   133  O   -0.426585
   134  H    0.035234
 Sum of Mulliken charges =   0.00000

 Dipole moment (field-independent basis, Debye):
    X=              2.2969    Y=             -5.4349    Z=             -1.4699  Tot=              6.0807
 Quadrupole moment (field-independent basis, Debye-Ang):
   XX=           -381.4281   YY=           -442.4867   ZZ=           -395.5176
   XY=             19.5128   XZ=             15.2377   YZ=            -33.8213

 Normal termination of Gaussian 09 at Mon Oct  7 14:59:44 2019.
