 Gaussian 09, Revision D.01,
 Gaussian 09:  ES64L-G09RevD.01 24-Apr-2013

 ----------------------------------------------------------------------
 # td=(NStates=1) iop(3/107=0140000000,3/108=0140000000) iop(3/107=0140
 000000,3/108=0140000000) CAM-B3LYP/6-31G(d,p)
 ----------------------------------------------------------------------

 --
 TD
 --
 Symbolic Z-matrix:
 Charge =  0 Multiplicity = 1

                         Standard orientation:
 ---------------------------------------------------------------------
 Center     Atomic      Atomic             Coordinates (Angstroms)
 Number     Number       Type             X           Y           Z
 ---------------------------------------------------------------------
      1         12           0       -5.609249    1.249757    0.228285
      2          6           0       -5.068863   -2.113876   -0.353220
      3          6           0       -3.448955    1.158240    2.715314
      4          6           0       -6.171323    4.577968    0.590693
      5          6           0       -7.876543    1.318379   -2.429091
      6          7           0       -4.343737   -0.222375    1.039390
      7          6           0       -4.210945   -1.639182    0.662548
      8          6           0       -3.165865   -2.389379    1.458286
      9          6           0       -2.995138   -1.346230    2.655412
     10          6           0       -3.614948   -0.084533    2.204936
     11          6           0       -3.478740   -1.853475    3.964314
     12          6           0       -2.048910   -2.778040    0.612495
     13          6           0       -0.995021   -3.594514    1.433284
     14          6           0        0.206879   -3.983805    0.514186
     15          8           0        0.408382   -3.561910   -0.581813
     16          8           0        1.109337   -4.794903    1.243849
     17          7           0       -4.993398    2.591181    1.596622
     18          6           0       -3.942662    2.404088    2.551064
     19          6           0       -3.840046    3.650902    3.210296
     20          6           0       -4.594738    4.602139    2.646086
     21          6           0       -5.388407    3.980751    1.579150
     22          6           0       -2.683214    3.720445    4.266505
     23          6           0       -4.525489    6.005012    2.899706
     24          8           0       -3.820440    6.542614    3.802220
     25          7           0       -6.717112    2.635299   -0.742328
     26          6           0       -6.938719    3.995082   -0.388789
     27          6           0       -7.933021    4.669433   -1.207260
     28          6           0       -8.469863    3.692144   -2.014373
     29          6           0       -7.697823    2.509952   -1.738484
     30          6           0       -8.330070    6.083180   -1.126363
     31          6           0       -9.462251    3.771421   -3.008106
     32          6           0       -8.876002    3.824874   -4.514331
     33          7           0       -6.397164   -0.135916   -1.079288
     34          6           0       -7.364189   -0.014732   -2.034736
     35          6           0       -7.577968   -1.290823   -2.686699
     36          6           0       -6.544225   -2.108419   -2.124005
     37          6           0       -5.947069   -1.425746   -1.107065
     38          6           0       -8.534423   -1.632142   -3.768194
     39          6           0       -6.169577   -3.576385   -2.005548
     40          8           0       -6.539844   -4.538823   -2.665231
     41          6           0       -5.003027   -3.559175   -0.950377
     42          6           0       -5.247732   -4.655872    0.094857
     43          8           0       -5.597962   -4.494483    1.186068
     44          8           0       -5.044140   -5.841049   -0.373887
     45          6           0       -5.268917   -6.922058    0.577357
     46          6           0        2.299678   -5.041747    0.546447
     47          6           0        3.378116   -4.112652    0.928741
     48          6           0        4.037908   -3.237582    0.095180
     49          6           0        3.699331   -3.072833   -1.378923
     50          6           0        5.165971   -2.401561    0.667674
     51          6           0        6.437637   -2.655624    0.019279
     52          6           0        7.605748   -1.755360    0.602376
     53          6           0        9.031033   -2.009914   -0.014207
     54          6           0        9.669023   -3.451352    0.287626
     55          6           0       10.085901   -0.939760    0.517509
     56          6           0       11.413511   -0.857051   -0.217435
     57          6           0       12.215620    0.275904    0.280575
     58          6           0       13.573474    0.481877   -0.513119
     59          6           0       14.409824   -0.764370   -0.230120
     60          6           0       14.179279    1.865321   -0.162346
     61          6           0       15.469480    2.181522   -0.981376
     62          6           0       16.027351    3.494244   -0.622200
     63          6           0       17.253693    3.966384   -1.516139
     64          6           0       16.890800    4.079262   -2.951261
     65          6           0       17.787125    5.221264   -0.979642
     66          1           0       -2.901890    0.927530    3.687892
     67          1           0       -6.326285    5.591938    0.464114
     68          1           0       -8.638729    1.216218   -3.312387
     69          1           0       -3.750562   -3.239182    1.792229
     70          1           0       -1.820423   -1.248036    2.854330
     71          1           0       -2.707929   -2.643624    4.184815
     72          1           0       -3.305993   -0.977599    4.577705
     73          1           0       -4.612036   -2.265102    3.819743
     74          1           0       -2.240374   -3.233719   -0.374666
     75          1           0       -1.665462   -1.883152    0.099147
     76          1           0       -0.420789   -3.141714    2.471506
     77          1           0       -1.453705   -4.443355    1.873319
     78          1           0       -1.603407    3.444363    3.819937
     79          1           0       -2.610317    4.832647    4.362712
     80          1           0       -2.926244    3.248924    5.132998
     81          1           0       -4.940635    6.920973    2.123236
     82          1           0      -10.140631    2.935847   -3.171811
     83          1           0      -10.110847    4.634788   -2.988052
     84          1           0       -9.634842    3.971966   -5.311581
     85          1           0       -8.035990    4.656815   -4.454633
     86          1           0       -8.443706    2.870221   -4.774868
     87          1           0       -8.137975   -1.246958   -4.789809
     88          1           0       -8.328798   -2.738285   -3.899479
     89          1           0       -9.616306   -1.424348   -3.709147
     90          1           0       -4.203866   -3.700555   -1.504677
     91          1           0        2.373096   -6.138196    0.987213
     92          1           0        2.314790   -4.986005   -0.467158
     93          1           0        3.585628   -4.071344    2.020968
     94          1           0        2.753672   -3.721357   -1.515700
     95          1           0        3.657783   -1.972209   -1.640490
     96          1           0        4.530707   -3.656197   -2.080608
     97          1           0        4.801458   -1.406696    0.368233
     98          1           0        5.291677   -2.414796    1.732465
     99          1           0        6.756619   -3.596373    0.035514
    100          1           0        6.483840   -2.570766   -1.133332
    101          1           0        7.299730   -0.632918    0.619092
    102          1           0        7.704086   -1.619446    1.715249
    103          1           0        8.940644   -1.983151   -1.141876
    104          1           0        8.834191   -4.267983    0.102920
    105          1           0       10.590678   -3.667470   -0.539559
    106          1           0        9.826277   -3.462651    1.301809
    107          1           0        9.815177    0.043242    0.383654
    108          1           0       10.053702   -0.855387    1.636558
    109          1           0       11.957736   -1.896346   -0.219924
    110          1           0       11.213752   -0.651703   -1.272362
    111          1           0       11.685831    1.169968    0.299436
    112          1           0       12.555355    0.112094    1.355716
    113          1           0       13.197254    0.603714   -1.445368
    114          1           0       14.607957   -0.649364    0.913732
    115          1           0       14.042668   -1.781105   -0.606889
    116          1           0       15.392225   -0.599240   -0.725514
    117          1           0       13.295436    2.673584   -0.089619
    118          1           0       14.503752    1.783663    0.890831
    119          1           0       16.162028    1.164618   -0.914972
    120          1           0       15.119099    2.255467   -2.121591
    121          1           0       15.325690    4.287111   -0.460286
    122          1           0       16.349247    3.488076    0.528509
    123          1           0       18.149791    3.221516   -1.403196
    124          1           0       16.223414    5.025475   -2.927751
    125          1           0       17.738779    4.258429   -3.535867
    126          1           0       16.284510    3.196298   -3.398280
    127          1           0       17.857334    5.399629    0.147257
    128          1           0       18.791742    5.473808   -1.459222
    129          1           0       17.199146    6.050803   -1.385525
    130          1           0       -4.994622   -7.880106    0.203149
    131          1           0       -6.453963   -6.995015    0.683258
    132          1           0       -4.824202   -6.689570    1.530286
    133          8           0       -7.928502    6.943802   -0.358482
    134          1           0       -9.175957    6.205325   -1.756260
 ---------------------------------------------------------------------

 SCF Done:  E(RCAM-B3LYP) =  -3043.46776743     A.U. after   16 cycles

 Excitation energies and oscillator strengths:

 Excited State   1:      Singlet-A      1.9431 eV  638.07 nm  f=0.1833  <S**2>=0.000
     243 -> 246       -0.27315
     244 -> 245        0.64502
 This state for optimization and/or second-order correction.
 Total Energy, E(TD-HF/TD-KS) =  -3043.39635893
 Copying the excited state density for this state as the 1-particle RhoCI density.

 The electronic state is 1-A.
 Alpha  occ. eigenvalues --  -46.80369 -19.22850 -19.21903 -19.19043 -19.18330
 Alpha  occ. eigenvalues --  -19.17608 -19.16866 -19.16485 -14.39046 -14.37450
 Alpha  occ. eigenvalues --  -14.36429 -14.35818 -10.35875 -10.34621 -10.31909
 Alpha  occ. eigenvalues --  -10.31106 -10.30948 -10.28270 -10.27870 -10.27245
 Alpha  occ. eigenvalues --  -10.27211 -10.26526 -10.26511 -10.26496 -10.26369
 Alpha  occ. eigenvalues --  -10.26355 -10.26220 -10.25670 -10.25333 -10.25171
 Alpha  occ. eigenvalues --  -10.25075 -10.24496 -10.24465 -10.24265 -10.24118
 Alpha  occ. eigenvalues --  -10.24052 -10.23933 -10.23812 -10.23738 -10.23707
 Alpha  occ. eigenvalues --  -10.23665 -10.23639 -10.23616 -10.23513 -10.23322
 Alpha  occ. eigenvalues --  -10.22920 -10.22813 -10.22792 -10.22575 -10.22208
 Alpha  occ. eigenvalues --  -10.22109 -10.22042 -10.21815 -10.21770 -10.21465
 Alpha  occ. eigenvalues --  -10.21445 -10.21268 -10.21224 -10.21207 -10.20911
 Alpha  occ. eigenvalues --  -10.20809 -10.20581 -10.20345 -10.20336 -10.20070
 Alpha  occ. eigenvalues --  -10.19631  -3.09058  -1.83988  -1.83568  -1.83441
 Alpha  occ. eigenvalues --   -1.17063  -1.13531  -1.07517  -1.06937  -1.06715
 Alpha  occ. eigenvalues --   -1.06524  -1.03862  -1.00031  -0.98758  -0.98248
 Alpha  occ. eigenvalues --   -0.96847  -0.89055  -0.86894  -0.86691  -0.86170
 Alpha  occ. eigenvalues --   -0.85424  -0.84807  -0.84455  -0.84024  -0.82765
 Alpha  occ. eigenvalues --   -0.82516  -0.82354  -0.81888  -0.80865  -0.79997
 Alpha  occ. eigenvalues --   -0.79429  -0.78665  -0.77906  -0.77560  -0.76518
 Alpha  occ. eigenvalues --   -0.75493  -0.74622  -0.74046  -0.73919  -0.71871
 Alpha  occ. eigenvalues --   -0.70762  -0.70564  -0.70366  -0.69822  -0.69598
 Alpha  occ. eigenvalues --   -0.69353  -0.68841  -0.67938  -0.67389  -0.66671
 Alpha  occ. eigenvalues --   -0.65916  -0.64501  -0.63939  -0.62757  -0.62480
 Alpha  occ. eigenvalues --   -0.61773  -0.60458  -0.60381  -0.60124  -0.59169
 Alpha  occ. eigenvalues --   -0.58848  -0.58621  -0.58345  -0.57761  -0.57109
 Alpha  occ. eigenvalues --   -0.56547  -0.55764  -0.55377  -0.55166  -0.55088
 Alpha  occ. eigenvalues --   -0.54672  -0.53862  -0.53477  -0.53042  -0.52567
 Alpha  occ. eigenvalues --   -0.51943  -0.51537  -0.51230  -0.51188  -0.50465
 Alpha  occ. eigenvalues --   -0.50355  -0.50157  -0.49893  -0.49496  -0.48834
 Alpha  occ. eigenvalues --   -0.48670  -0.48427  -0.48116  -0.47917  -0.47831
 Alpha  occ. eigenvalues --   -0.47525  -0.47421  -0.47268  -0.46956  -0.46941
 Alpha  occ. eigenvalues --   -0.46897  -0.46708  -0.46210  -0.46052  -0.45830
 Alpha  occ. eigenvalues --   -0.45574  -0.45331  -0.45082  -0.45020  -0.44826
 Alpha  occ. eigenvalues --   -0.44633  -0.44326  -0.44203  -0.44152  -0.43649
 Alpha  occ. eigenvalues --   -0.43398  -0.43244  -0.43008  -0.42786  -0.42666
 Alpha  occ. eigenvalues --   -0.42544  -0.42403  -0.42192  -0.41975  -0.41781
 Alpha  occ. eigenvalues --   -0.41413  -0.41271  -0.41029  -0.40960  -0.40684
 Alpha  occ. eigenvalues --   -0.40574  -0.40366  -0.40225  -0.40155  -0.40089
 Alpha  occ. eigenvalues --   -0.39960  -0.39773  -0.39546  -0.39405  -0.39301
 Alpha  occ. eigenvalues --   -0.38931  -0.38788  -0.38537  -0.38490  -0.38251
 Alpha  occ. eigenvalues --   -0.38163  -0.38001  -0.37757  -0.37225  -0.37155
 Alpha  occ. eigenvalues --   -0.36939  -0.36842  -0.36498  -0.36208  -0.35742
 Alpha  occ. eigenvalues --   -0.35625  -0.35502  -0.35430  -0.35139  -0.34871
 Alpha  occ. eigenvalues --   -0.34330  -0.33855  -0.33469  -0.33232  -0.33010
 Alpha  occ. eigenvalues --   -0.32679  -0.32377  -0.32242  -0.31900  -0.31674
 Alpha  occ. eigenvalues --   -0.31473  -0.31348  -0.31188  -0.30546  -0.29909
 Alpha  occ. eigenvalues --   -0.29253  -0.28826  -0.27823  -0.27744  -0.27353
 Alpha  occ. eigenvalues --   -0.26761  -0.26732  -0.22894  -0.21802
 Alpha virt. eigenvalues --   -0.09097  -0.06991  -0.01890  -0.01588   0.00190
 Alpha virt. eigenvalues --    0.02143   0.03249   0.03447   0.04378   0.04782
 Alpha virt. eigenvalues --    0.05023   0.05574   0.07236   0.08373   0.08998

 Mulliken charges:
               1
     1  Mg   0.811689
     2  C    0.071890
     3  C   -0.205449
     4  C   -0.150362
     5  C   -0.187600
     6  N   -0.615871
     7  C    0.211733
     8  C   -0.120190
     9  C   -0.183381
    10  C    0.387152
    11  C   -0.276104
    12  C   -0.180764
    13  C   -0.261974
    14  C    0.600437
    15  O   -0.435402
    16  O   -0.474518
    17  N   -0.715073
    18  C    0.347762
    19  C    0.027633
    20  C    0.010356
    21  C    0.287605
    22  C   -0.374427
    23  C    0.197840
    24  O   -0.427574
    25  N   -0.660452
    26  C    0.260463
    27  C   -0.021595
    28  C    0.113694
    29  C    0.301398
    30  C    0.274721
    31  C   -0.308160
    32  C   -0.319474
    33  N   -0.724062
    34  C    0.274113
    35  C    0.014464
    36  C   -0.030195
    37  C    0.325155
    38  C   -0.407466
    39  C    0.375282
    40  O   -0.454512
    41  C   -0.312932
    42  C    0.609254
    43  O   -0.452460
    44  O   -0.423821
    45  C   -0.094502
    46  C    0.010329
    47  C   -0.118940
    48  C    0.110721
    49  C   -0.357276
    50  C   -0.210348
    51  C   -0.160805
    52  C   -0.186928
    53  C   -0.058894
    54  C   -0.294099
    55  C   -0.175284
    56  C   -0.170573
    57  C   -0.178921
    58  C   -0.055647
    59  C   -0.300373
    60  C   -0.182822
    61  C   -0.152210
    62  C   -0.159678
    63  C   -0.039660
    64  C   -0.293757
    65  C   -0.309299
    66  H    0.065728
    67  H    0.114486
    68  H    0.088697
    69  H    0.137499
    70  H    0.100028
    71  H    0.108587
    72  H    0.114239
    73  H    0.117854
    74  H    0.129846
    75  H    0.127715
    76  H    0.114577
    77  H    0.144426
    78  H    0.105285
    79  H    0.157278
    80  H    0.133854
    81  H    0.075639
    82  H    0.126506
    83  H    0.122996
    84  H    0.114459
    85  H    0.103510
    86  H    0.121154
    87  H    0.121039
    88  H    0.149249
    89  H    0.131678
    90  H    0.163864
    91  H    0.095081
    92  H    0.110771
    93  H    0.073118
    94  H    0.133920
    95  H    0.121736
    96  H    0.094382
    97  H    0.099500
    98  H    0.104825
    99  H    0.112989
   100  H    0.083520
   101  H    0.074813
   102  H    0.079313
   103  H    0.076389
   104  H    0.079450
   105  H    0.086529
   106  H    0.122144
   107  H    0.094660
   108  H    0.079193
   109  H    0.077589
   110  H    0.093184
   111  H    0.086215
   112  H    0.073576
   113  H    0.090371
   114  H    0.094651
   115  H    0.109036
   116  H    0.091186
   117  H    0.074824
   118  H    0.086003
   119  H    0.081371
   120  H    0.073912
   121  H    0.100999
   122  H    0.064442
   123  H    0.072167
   124  H    0.084870
   125  H    0.111349
   126  H    0.097153
   127  H    0.099495
   128  H    0.087864
   129  H    0.094230
   130  H    0.135348
   131  H    0.119087
   132  H    0.139545
   133  O   -0.420477
   134  H    0.069627
 Sum of Mulliken charges =   0.00000

 Dipole moment (field-independent basis, Debye):
    X=              0.8061    Y=             -4.7611    Z=             -1.9461  Tot=              5.2063
 Quadrupole moment (field-independent basis, Debye-Ang):
   XX=           -375.4603   YY=           -438.9872   ZZ=           -396.5563
   XY=             13.2327   XZ=             23.3098   YZ=            -39.6665

 Normal termination of Gaussian 09 at Thu Oct  3 11:54:27 2019.
