 Gaussian 09, Revision D.01,
 Gaussian 09:  ES64L-G09RevD.01 24-Apr-2013

 ----------------------------------------------------------------------
 # td=(NStates=1) iop(3/107=0140000000,3/108=0140000000) iop(3/107=0140
 000000,3/108=0140000000) CAM-B3LYP/6-31G(d,p)
 ----------------------------------------------------------------------

 --
 TD
 --
 Symbolic Z-matrix:
 Charge =  0 Multiplicity = 1

                         Standard orientation:
 ---------------------------------------------------------------------
 Center     Atomic      Atomic             Coordinates (Angstroms)
 Number     Number       Type             X           Y           Z
 ---------------------------------------------------------------------
      1         12           0       -5.595714    1.224248    0.151593
      2          6           0       -5.026597   -2.158883   -0.336701
      3          6           0       -3.408282    1.243757    2.782724
      4          6           0       -6.118747    4.559709    0.636170
      5          6           0       -8.080286    1.140466   -2.239625
      6          7           0       -4.342704   -0.237507    1.085027
      7          6           0       -4.308773   -1.616031    0.703536
      8          6           0       -3.203445   -2.299483    1.464866
      9          6           0       -2.820618   -1.295502    2.611005
     10          6           0       -3.581133    0.008087    2.163409
     11          6           0       -3.280350   -1.804096    3.983048
     12          6           0       -1.950000   -2.618513    0.667346
     13          6           0       -0.975650   -3.552165    1.364819
     14          6           0        0.247348   -3.915181    0.529944
     15          8           0        0.387032   -3.464612   -0.562358
     16          8           0        1.018033   -4.577065    1.325438
     17          7           0       -4.953529    2.665156    1.513357
     18          6           0       -4.054934    2.470589    2.543129
     19          6           0       -3.617323    3.733269    3.135135
     20          6           0       -4.518836    4.642622    2.504495
     21          6           0       -5.176720    4.023564    1.453020
     22          6           0       -2.752533    3.956291    4.224752
     23          6           0       -4.524711    6.092037    2.723324
     24          8           0       -3.797051    6.622939    3.568409
     25          7           0       -6.944751    2.568831   -0.651349
     26          6           0       -6.872971    3.930396   -0.335500
     27          6           0       -7.899928    4.580046   -1.244534
     28          6           0       -8.463144    3.677744   -2.042436
     29          6           0       -7.746196    2.386117   -1.703950
     30          6           0       -8.370521    5.924237   -1.150111
     31          6           0       -9.544945    3.811342   -3.020042
     32          6           0       -8.947620    3.835218   -4.484493
     33          7           0       -6.443156   -0.170553   -1.061368
     34          6           0       -7.371367   -0.064059   -2.100862
     35          6           0       -7.681320   -1.319382   -2.629116
     36          6           0       -6.739960   -2.154926   -2.065548
     37          6           0       -6.050359   -1.499277   -1.069606
     38          6           0       -8.429518   -1.658765   -3.894902
     39          6           0       -6.330277   -3.541388   -1.990225
     40          8           0       -6.729649   -4.561912   -2.543451
     41          6           0       -5.124218   -3.579378   -0.846845
     42          6           0       -5.425931   -4.645664    0.166452
     43          8           0       -5.685707   -4.477035    1.357683
     44          8           0       -5.182573   -5.880906   -0.362930
     45          6           0       -5.573232   -6.926662    0.708202
     46          6           0        2.251728   -5.000286    0.638712
     47          6           0        3.337703   -3.981703    0.926267
     48          6           0        3.906790   -3.231827    0.008647
     49          6           0        3.715227   -3.106667   -1.417927
     50          6           0        5.117979   -2.306155    0.579315
     51          6           0        6.561167   -2.584442    0.150198
     52          6           0        7.560224   -1.601671    0.708174
     53          6           0        8.893856   -1.863706    0.029050
     54          6           0        9.466666   -3.319702    0.192009
     55          6           0        9.917419   -0.865847    0.555016
     56          6           0       11.299810   -0.879668   -0.253976
     57          6           0       12.288479    0.372306    0.178367
     58          6           0       13.628769    0.401870   -0.587802
     59          6           0       14.527752   -0.742147   -0.401540
     60          6           0       14.313131    1.793937   -0.233129
     61          6           0       15.689426    1.968733   -0.854891
     62          6           0       16.141271    3.455906   -0.788082
     63          6           0       17.493385    3.703064   -1.379949
     64          6           0       17.338500    3.733899   -2.952342
     65          6           0       17.992810    5.001040   -0.811315
     66          1           0       -2.500489    1.354410    3.595307
     67          1           0       -6.358699    5.525163    0.618622
     68          1           0       -8.745930    1.129863   -3.218879
     69          1           0       -3.480247   -3.406156    1.834646
     70          1           0       -1.581289   -1.074843    2.554448
     71          1           0       -2.524717   -2.605813    4.085290
     72          1           0       -3.335693   -1.034411    4.899799
     73          1           0       -4.439080   -2.249516    3.918388
     74          1           0       -2.122444   -3.195331   -0.211244
     75          1           0       -1.601660   -1.642966    0.334571
     76          1           0       -0.717176   -3.115317    2.365534
     77          1           0       -1.390553   -4.571487    1.605309
     78          1           0       -1.752908    4.094927    3.634919
     79          1           0       -2.891198    4.943236    4.776454
     80          1           0       -2.620527    3.093445    5.141519
     81          1           0       -5.369792    6.857515    2.179713
     82          1           0      -10.303213    3.042024   -2.872073
     83          1           0      -10.302751    4.561010   -2.906670
     84          1           0       -9.937754    3.791370   -4.988523
     85          1           0       -8.340233    4.812018   -4.674272
     86          1           0       -8.257112    2.867186   -4.837419
     87          1           0       -7.971739   -1.168872   -4.778326
     88          1           0       -8.487250   -2.847538   -3.934222
     89          1           0       -9.529839   -1.150067   -3.799861
     90          1           0       -4.121160   -3.765107   -1.325501
     91          1           0        2.606494   -5.873293    1.217770
     92          1           0        2.389515   -5.423187   -0.466713
     93          1           0        3.920728   -3.862115    1.844087
     94          1           0        2.725064   -3.307053   -1.740707
     95          1           0        3.792243   -2.208208   -1.768682
     96          1           0        4.259648   -3.872809   -2.121227
     97          1           0        4.856897   -1.307301    0.534912
     98          1           0        5.183327   -2.617479    1.722132
     99          1           0        6.925254   -3.598800    0.622650
    100          1           0        6.709838   -2.686771   -0.973424
    101          1           0        7.213676   -0.666869    0.603451
    102          1           0        7.545885   -1.542395    1.807462
    103          1           0        8.894581   -1.663457   -1.159029
    104          1           0        8.488201   -3.852918   -0.120122
    105          1           0       10.432398   -3.477584   -0.351540
    106          1           0        9.898600   -3.618703    1.006501
    107          1           0        9.831060    0.192142    0.592228
    108          1           0       10.172587   -1.280895    1.649802
    109          1           0       12.058171   -1.777916    0.008990
    110          1           0       11.024117   -1.030647   -1.232825
    111          1           0       11.809841    1.106688   -0.022944
    112          1           0       12.424566    0.134087    1.146940
    113          1           0       13.264087    0.583667   -1.596394
    114          1           0       14.822815   -1.040427    0.508092
    115          1           0       13.922899   -1.503308   -0.756817
    116          1           0       15.443036   -0.599851   -1.069219
    117          1           0       13.627354    2.606778   -0.281745
    118          1           0       14.609389    1.993902    0.908354
    119          1           0       16.633863    1.364116   -0.480393
    120          1           0       15.368251    1.826810   -2.050728
    121          1           0       15.435659    4.446680   -0.975288
    122          1           0       16.322233    3.463527    0.471536
    123          1           0       18.195038    2.993324   -1.054305
    124          1           0       16.625118    4.561762   -3.320772
    125          1           0       18.369459    3.831592   -3.225377
    126          1           0       16.749309    2.810302   -3.240125
    127          1           0       18.202975    5.090296    0.300012
    128          1           0       18.949132    5.177269   -1.370072
    129          1           0       17.366500    5.702677   -1.158868
    130          1           0       -5.455353   -7.874219    0.112432
    131          1           0       -6.652932   -6.906478    0.904719
    132          1           0       -4.855772   -6.960141    1.501367
    133          8           0       -7.835296    6.798698   -0.540868
    134          1           0       -9.196998    6.390740   -1.851914
 ---------------------------------------------------------------------

 SCF Done:  E(RCAM-B3LYP) =  -3043.34745884     A.U. after   16 cycles

 Excitation energies and oscillator strengths:

 Excited State   1:      Singlet-A      1.9972 eV  620.78 nm  f=0.2403  <S**2>=0.000
     243 -> 246        0.22581
     244 -> 245        0.66193
 This state for optimization and/or second-order correction.
 Total Energy, E(TD-HF/TD-KS) =  -3043.27406193
 Copying the excited state density for this state as the 1-particle RhoCI density.

 The electronic state is 1-A.
 Alpha  occ. eigenvalues --  -46.81515 -19.24690 -19.22284 -19.17331 -19.17210
 Alpha  occ. eigenvalues --  -19.16812 -19.16763 -19.16723 -14.39213 -14.37406
 Alpha  occ. eigenvalues --  -14.36426 -14.35858 -10.34734 -10.34670 -10.31643
 Alpha  occ. eigenvalues --  -10.30976 -10.30148 -10.29592 -10.27756 -10.27581
 Alpha  occ. eigenvalues --  -10.27539 -10.27152 -10.26813 -10.26629 -10.25817
 Alpha  occ. eigenvalues --  -10.25576 -10.25439 -10.25192 -10.25067 -10.25054
 Alpha  occ. eigenvalues --  -10.24998 -10.24879 -10.24770 -10.24482 -10.24185
 Alpha  occ. eigenvalues --  -10.24143 -10.24133 -10.24068 -10.24056 -10.24017
 Alpha  occ. eigenvalues --  -10.23939 -10.23199 -10.23183 -10.23120 -10.22986
 Alpha  occ. eigenvalues --  -10.22932 -10.22911 -10.22571 -10.22188 -10.22099
 Alpha  occ. eigenvalues --  -10.21879 -10.21685 -10.21596 -10.21244 -10.21237
 Alpha  occ. eigenvalues --  -10.21107 -10.20976 -10.20868 -10.20828 -10.20441
 Alpha  occ. eigenvalues --  -10.20102 -10.19819 -10.19775 -10.19018 -10.18556
 Alpha  occ. eigenvalues --  -10.18227  -3.09980  -1.84932  -1.84453  -1.84371
 Alpha  occ. eigenvalues --   -1.16293  -1.11434  -1.08357  -1.07114  -1.06182
 Alpha  occ. eigenvalues --   -1.05528  -1.02707  -1.00237  -0.99438  -0.99176
 Alpha  occ. eigenvalues --   -0.98216  -0.88313  -0.86336  -0.86110  -0.85572
 Alpha  occ. eigenvalues --   -0.85270  -0.85159  -0.84710  -0.83849  -0.83666
 Alpha  occ. eigenvalues --   -0.83452  -0.82613  -0.81026  -0.80171  -0.79539
 Alpha  occ. eigenvalues --   -0.79199  -0.78243  -0.77776  -0.77244  -0.76428
 Alpha  occ. eigenvalues --   -0.75535  -0.75105  -0.73970  -0.72625  -0.72291
 Alpha  occ. eigenvalues --   -0.71832  -0.71511  -0.70737  -0.70238  -0.69218
 Alpha  occ. eigenvalues --   -0.68956  -0.68826  -0.66761  -0.66385  -0.66015
 Alpha  occ. eigenvalues --   -0.65193  -0.64363  -0.63938  -0.62109  -0.61973
 Alpha  occ. eigenvalues --   -0.60889  -0.60670  -0.60381  -0.59596  -0.59171
 Alpha  occ. eigenvalues --   -0.58616  -0.58439  -0.57777  -0.57340  -0.56361
 Alpha  occ. eigenvalues --   -0.56048  -0.55671  -0.55555  -0.54255  -0.54043
 Alpha  occ. eigenvalues --   -0.53655  -0.53487  -0.53132  -0.52946  -0.52363
 Alpha  occ. eigenvalues --   -0.52015  -0.51633  -0.51452  -0.50995  -0.50486
 Alpha  occ. eigenvalues --   -0.49745  -0.49649  -0.49612  -0.49268  -0.49192
 Alpha  occ. eigenvalues --   -0.48953  -0.48468  -0.48238  -0.48019  -0.47563
 Alpha  occ. eigenvalues --   -0.47469  -0.47213  -0.47032  -0.46734  -0.46527
 Alpha  occ. eigenvalues --   -0.46416  -0.46194  -0.45969  -0.45766  -0.45585
 Alpha  occ. eigenvalues --   -0.45341  -0.45198  -0.45138  -0.44817  -0.44760
 Alpha  occ. eigenvalues --   -0.44310  -0.44156  -0.44039  -0.43784  -0.43497
 Alpha  occ. eigenvalues --   -0.43292  -0.43117  -0.42844  -0.42760  -0.42583
 Alpha  occ. eigenvalues --   -0.42528  -0.42382  -0.42331  -0.42035  -0.41938
 Alpha  occ. eigenvalues --   -0.41707  -0.41393  -0.41216  -0.41106  -0.40909
 Alpha  occ. eigenvalues --   -0.40722  -0.40626  -0.40556  -0.40504  -0.40073
 Alpha  occ. eigenvalues --   -0.39717  -0.39427  -0.39240  -0.38988  -0.38941
 Alpha  occ. eigenvalues --   -0.38792  -0.38496  -0.38411  -0.38214  -0.38178
 Alpha  occ. eigenvalues --   -0.38017  -0.37841  -0.37529  -0.37329  -0.37082
 Alpha  occ. eigenvalues --   -0.37028  -0.36653  -0.36584  -0.36115  -0.35301
 Alpha  occ. eigenvalues --   -0.35243  -0.35018  -0.34973  -0.34700  -0.34407
 Alpha  occ. eigenvalues --   -0.33904  -0.33466  -0.33367  -0.33151  -0.33065
 Alpha  occ. eigenvalues --   -0.32635  -0.31911  -0.31883  -0.31489  -0.31397
 Alpha  occ. eigenvalues --   -0.30641  -0.30520  -0.29899  -0.29743  -0.29393
 Alpha  occ. eigenvalues --   -0.29267  -0.28183  -0.27861  -0.27620  -0.27409
 Alpha  occ. eigenvalues --   -0.27387  -0.26856  -0.23061  -0.21650
 Alpha virt. eigenvalues --   -0.09124  -0.05809  -0.01732  -0.00567   0.00981
 Alpha virt. eigenvalues --    0.02864   0.03143   0.03651   0.04312   0.04944
 Alpha virt. eigenvalues --    0.05199   0.05883   0.07672   0.08113   0.08986

 Mulliken charges:
               1
     1  Mg   0.824102
     2  C    0.091188
     3  C   -0.201939
     4  C   -0.115653
     5  C   -0.156454
     6  N   -0.637806
     7  C    0.308584
     8  C   -0.155969
     9  C   -0.145383
    10  C    0.361305
    11  C   -0.286489
    12  C   -0.156496
    13  C   -0.289669
    14  C    0.620159
    15  O   -0.456269
    16  O   -0.420685
    17  N   -0.706991
    18  C    0.316487
    19  C    0.085240
    20  C   -0.041803
    21  C    0.339778
    22  C   -0.396312
    23  C    0.228376
    24  O   -0.425958
    25  N   -0.680447
    26  C    0.281875
    27  C   -0.028982
    28  C    0.085064
    29  C    0.280473
    30  C    0.213225
    31  C   -0.272478
    32  C   -0.297672
    33  N   -0.715738
    34  C    0.259222
    35  C    0.018177
    36  C    0.049785
    37  C    0.268327
    38  C   -0.369667
    39  C    0.346075
    40  O   -0.459468
    41  C   -0.337219
    42  C    0.632930
    43  O   -0.484518
    44  O   -0.457872
    45  C   -0.099213
    46  C   -0.035256
    47  C   -0.134498
    48  C    0.160657
    49  C   -0.386967
    50  C   -0.249516
    51  C   -0.183086
    52  C   -0.151563
    53  C   -0.059403
    54  C   -0.304992
    55  C   -0.165379
    56  C   -0.220400
    57  C   -0.151430
    58  C   -0.066730
    59  C   -0.309193
    60  C   -0.162310
    61  C   -0.159159
    62  C   -0.139811
    63  C   -0.059422
    64  C   -0.307640
    65  C   -0.293431
    66  H    0.084543
    67  H    0.097815
    68  H    0.081042
    69  H    0.110631
    70  H    0.086568
    71  H    0.114348
    72  H    0.100696
    73  H    0.113454
    74  H    0.109870
    75  H    0.111105
    76  H    0.120881
    77  H    0.122166
    78  H    0.131547
    79  H    0.171466
    80  H    0.098636
    81  H    0.070040
    82  H    0.120915
    83  H    0.124931
    84  H    0.115856
    85  H    0.119928
    86  H    0.097980
    87  H    0.138524
    88  H    0.143059
    89  H    0.095168
    90  H    0.162328
    91  H    0.120508
    92  H    0.139370
    93  H    0.085245
    94  H    0.142788
    95  H    0.124795
    96  H    0.105987
    97  H    0.110607
    98  H    0.071661
    99  H    0.093511
   100  H    0.093792
   101  H    0.103518
   102  H    0.091787
   103  H    0.068841
   104  H    0.094332
   105  H    0.095716
   106  H    0.113528
   107  H    0.093982
   108  H    0.066860
   109  H    0.058296
   110  H    0.095601
   111  H    0.086624
   112  H    0.107575
   113  H    0.089734
   114  H    0.113886
   115  H    0.108107
   116  H    0.096927
   117  H    0.097647
   118  H    0.054492
   119  H    0.101736
   120  H    0.052791
   121  H    0.071702
   122  H    0.030952
   123  H    0.088444
   124  H    0.092163
   125  H    0.108983
   126  H    0.105264
   127  H    0.099002
   128  H    0.076588
   129  H    0.108757
   130  H    0.118804
   131  H    0.149333
   132  H    0.143853
   133  O   -0.400080
   134  H    0.048801
 Sum of Mulliken charges =   0.00000

 Dipole moment (field-independent basis, Debye):
    X=              2.0811    Y=             -4.0233    Z=             -1.2477  Tot=              4.6984
 Quadrupole moment (field-independent basis, Debye-Ang):
   XX=           -381.8035   YY=           -434.4301   ZZ=           -395.6341
   XY=             -5.9392   XZ=             24.8898   YZ=            -34.0242

 Normal termination of Gaussian 09 at Fri Oct  4 02:29:45 2019.
