 Gaussian 09, Revision D.01,
 Gaussian 09:  ES64L-G09RevD.01 24-Apr-2013

 ----------------------------------------------------------------------
 # td=(NStates=1) iop(3/107=0140000000,3/108=0140000000) iop(3/107=0140
 000000,3/108=0140000000) CAM-B3LYP/6-31G(d,p)
 ----------------------------------------------------------------------

 --
 TD
 --
 Symbolic Z-matrix:
 Charge =  0 Multiplicity = 1

                         Standard orientation:
 ---------------------------------------------------------------------
 Center     Atomic      Atomic             Coordinates (Angstroms)
 Number     Number       Type             X           Y           Z
 ---------------------------------------------------------------------
      1         12           0       -5.637763    1.227323    0.099803
      2          6           0       -5.057678   -2.142551   -0.267245
      3          6           0       -3.395242    1.142502    2.756494
      4          6           0       -6.116627    4.563251    0.657738
      5          6           0       -7.974588    1.170186   -2.336587
      6          7           0       -4.428223   -0.252522    1.076368
      7          6           0       -4.314125   -1.642451    0.760091
      8          6           0       -3.131465   -2.337716    1.490016
      9          6           0       -2.944303   -1.343082    2.560902
     10          6           0       -3.502511   -0.049388    2.096277
     11          6           0       -3.630821   -1.838125    3.912037
     12          6           0       -1.884803   -2.673617    0.674369
     13          6           0       -0.979440   -3.612464    1.466783
     14          6           0        0.203097   -3.945127    0.614107
     15          8           0        0.413508   -3.482643   -0.516704
     16          8           0        1.061024   -4.913754    1.124312
     17          7           0       -4.777820    2.704147    1.434843
     18          6           0       -3.816908    2.447460    2.393399
     19          6           0       -3.609312    3.636619    3.057272
     20          6           0       -4.477819    4.654106    2.597729
     21          6           0       -5.115876    4.002267    1.469479
     22          6           0       -2.658008    3.663270    4.320902
     23          6           0       -4.514030    6.121491    2.846496
     24          8           0       -3.806277    6.570267    3.775201
     25          7           0       -6.786084    2.615159   -0.752209
     26          6           0       -6.905515    3.924729   -0.362996
     27          6           0       -7.956106    4.608856   -1.128052
     28          6           0       -8.515156    3.611353   -1.945591
     29          6           0       -7.785380    2.406324   -1.657212
     30          6           0       -8.463676    6.032718   -1.091287
     31          6           0       -9.508945    3.861094   -3.084966
     32          6           0       -8.775342    3.983740   -4.453296
     33          7           0       -6.335886   -0.058305   -1.151922
     34          6           0       -7.329861    0.020328   -2.179727
     35          6           0       -7.472946   -1.351228   -2.771030
     36          6           0       -6.601574   -2.200985   -2.081469
     37          6           0       -5.956630   -1.366336   -1.120618
     38          6           0       -8.454098   -1.703830   -3.730615
     39          6           0       -6.076257   -3.514761   -1.938985
     40          8           0       -6.508802   -4.580796   -2.518857
     41          6           0       -5.021867   -3.524415   -0.865825
     42          6           0       -5.337401   -4.576718    0.212844
     43          8           0       -6.015963   -4.383626    1.307822
     44          8           0       -4.986016   -5.795013   -0.294752
     45          6           0       -5.424725   -6.934495    0.483611
     46          6           0        2.312853   -5.130213    0.468394
     47          6           0        3.317659   -4.042628    0.808706
     48          6           0        3.972882   -3.166819    0.019572
     49          6           0        3.716546   -3.038036   -1.479171
     50          6           0        5.057515   -2.272211    0.673409
     51          6           0        6.509877   -2.711367    0.080947
     52          6           0        7.655672   -1.869563    0.699352
     53          6           0        9.070275   -2.120092   -0.140426
     54          6           0        9.518092   -3.485341    0.068513
     55          6           0        9.964410   -1.031597    0.407760
     56          6           0       11.357196   -0.882207   -0.217135
     57          6           0       12.235011    0.225572    0.401561
     58          6           0       13.590503    0.366529   -0.437315
     59          6           0       14.534844   -0.674902   -0.181775
     60          6           0       14.237357    1.813069   -0.093346
     61          6           0       15.409947    2.078658   -0.953591
     62          6           0       16.007399    3.536133   -0.624713
     63          6           0       17.249682    3.882071   -1.413593
     64          6           0       17.027323    4.013050   -2.874645
     65          6           0       17.698105    5.402645   -0.999652
     66          1           0       -2.585004    1.144526    3.547418
     67          1           0       -6.355337    5.625302    0.608326
     68          1           0       -8.596912    1.162731   -3.188897
     69          1           0       -3.601815   -3.167556    1.780559
     70          1           0       -1.899570   -1.091778    2.734265
     71          1           0       -3.309597   -2.733116    4.000360
     72          1           0       -3.171269   -1.125542    4.513777
     73          1           0       -4.642697   -1.730109    3.692345
     74          1           0       -2.492703   -3.050538   -0.263209
     75          1           0       -1.494119   -1.674099    0.425992
     76          1           0       -0.653425   -3.063046    2.229205
     77          1           0       -1.465766   -4.540665    1.770185
     78          1           0       -1.584001    3.494236    3.870104
     79          1           0       -2.503712    4.789837    4.531910
     80          1           0       -2.869992    3.211224    5.111460
     81          1           0       -5.289627    6.653229    2.290756
     82          1           0      -10.218761    3.081452   -3.266512
     83          1           0      -10.058498    4.815609   -2.703485
     84          1           0       -9.622232    4.033014   -5.082590
     85          1           0       -8.055501    4.787944   -4.392743
     86          1           0       -8.177361    3.067255   -4.670943
     87          1           0       -8.517713   -0.884548   -4.740119
     88          1           0       -8.261137   -2.656935   -4.288244
     89          1           0       -9.514740   -1.429325   -3.338171
     90          1           0       -4.011632   -3.843835   -1.096397
     91          1           0        2.666545   -6.027593    0.742912
     92          1           0        2.043088   -5.085402   -0.595560
     93          1           0        3.404355   -3.898569    1.915173
     94          1           0        2.622382   -3.109625   -1.534907
     95          1           0        4.222551   -1.978842   -1.743718
     96          1           0        4.298799   -3.594431   -1.962164
     97          1           0        4.919424   -1.360759    0.222494
     98          1           0        5.200152   -2.373859    1.712906
     99          1           0        6.646466   -3.749539    0.436490
    100          1           0        6.443185   -2.596083   -0.839822
    101          1           0        7.430504   -0.788414    0.410430
    102          1           0        7.710674   -2.293538    1.723482
    103          1           0        8.783090   -1.927285   -1.277475
    104          1           0        8.559549   -4.221941   -0.231714
    105          1           0       10.402815   -3.719026   -0.468885
    106          1           0        9.702203   -3.769069    1.165767
    107          1           0        9.465122   -0.102213    0.316020
    108          1           0       10.145800   -1.064457    1.580226
    109          1           0       11.958746   -1.643107   -0.001500
    110          1           0       11.284637   -0.752913   -1.268724
    111          1           0       11.550874    1.229636    0.417731
    112          1           0       12.470545   -0.293193    1.517690
    113          1           0       13.139700    0.372425   -1.440269
    114          1           0       14.756039   -0.805369    0.953266
    115          1           0       14.396034   -1.767933   -0.524552
    116          1           0       15.601068   -0.378840   -0.607938
    117          1           0       13.406867    2.427458   -0.195075
    118          1           0       14.452196    1.776367    0.938252
    119          1           0       16.151242    1.382534   -0.788915
    120          1           0       15.110168    2.295008   -2.021079
    121          1           0       15.268379    4.224593   -0.858758
    122          1           0       16.081002    3.701962    0.395828
    123          1           0       17.973809    3.172762   -1.142848
    124          1           0       16.224936    4.658656   -3.301920
    125          1           0       17.953653    4.646160   -3.470768
    126          1           0       16.750730    3.061850   -3.481527
    127          1           0       17.998905    5.346490    0.060005
    128          1           0       18.550087    5.828018   -1.482317
    129          1           0       16.873904    5.996357   -1.042997
    130          1           0       -5.558786   -7.627124   -0.120303
    131          1           0       -6.323579   -6.860197    1.116058
    132          1           0       -4.612279   -7.137786    1.388743
    133          8           0       -7.848417    6.833603   -0.362275
    134          1           0       -9.318960    6.245501   -1.657668
 ---------------------------------------------------------------------

 SCF Done:  E(RCAM-B3LYP) =  -3043.39859315     A.U. after   16 cycles

 Excitation energies and oscillator strengths:

 Excited State   1:      Singlet-A      1.9982 eV  620.48 nm  f=0.1758  <S**2>=0.000
     243 -> 245       -0.14565
     243 -> 246        0.24176
     244 -> 245        0.62767
     244 -> 246        0.12133
 This state for optimization and/or second-order correction.
 Total Energy, E(TD-HF/TD-KS) =  -3043.32516106
 Copying the excited state density for this state as the 1-particle RhoCI density.

 The electronic state is 1-A.
 Alpha  occ. eigenvalues --  -46.80872 -19.24638 -19.21687 -19.18100 -19.17964
 Alpha  occ. eigenvalues --  -19.17527 -19.16889 -19.16596 -14.38552 -14.37281
 Alpha  occ. eigenvalues --  -14.37057 -14.35880 -10.36703 -10.35711 -10.31978
 Alpha  occ. eigenvalues --  -10.31436 -10.30269 -10.27433 -10.27418 -10.27027
 Alpha  occ. eigenvalues --  -10.26834 -10.26742 -10.26706 -10.26679 -10.26366
 Alpha  occ. eigenvalues --  -10.26284 -10.25792 -10.25599 -10.25575 -10.25482
 Alpha  occ. eigenvalues --  -10.24617 -10.24607 -10.24460 -10.24432 -10.24018
 Alpha  occ. eigenvalues --  -10.23837 -10.23834 -10.23657 -10.23458 -10.23317
 Alpha  occ. eigenvalues --  -10.23120 -10.22962 -10.22706 -10.22689 -10.22656
 Alpha  occ. eigenvalues --  -10.22603 -10.22564 -10.22353 -10.21876 -10.21820
 Alpha  occ. eigenvalues --  -10.21686 -10.21644 -10.21530 -10.21227 -10.20714
 Alpha  occ. eigenvalues --  -10.20693 -10.20673 -10.20587 -10.20472 -10.20337
 Alpha  occ. eigenvalues --  -10.20017 -10.19603 -10.19548 -10.19186 -10.19063
 Alpha  occ. eigenvalues --  -10.18718  -3.09599  -1.84523  -1.84078  -1.84020
 Alpha  occ. eigenvalues --   -1.12920  -1.12074  -1.06198  -1.04398  -1.03697
 Alpha  occ. eigenvalues --   -1.03598  -1.02046  -1.00314  -0.99446  -0.99158
 Alpha  occ. eigenvalues --   -0.98061  -0.89664  -0.87507  -0.85627  -0.85328
 Alpha  occ. eigenvalues --   -0.85103  -0.84797  -0.84188  -0.84097  -0.83782
 Alpha  occ. eigenvalues --   -0.83206  -0.82906  -0.81306  -0.80674  -0.80056
 Alpha  occ. eigenvalues --   -0.79431  -0.78696  -0.78413  -0.77660  -0.76906
 Alpha  occ. eigenvalues --   -0.75882  -0.75250  -0.74713  -0.73807  -0.72250
 Alpha  occ. eigenvalues --   -0.71525  -0.70482  -0.70186  -0.69997  -0.69974
 Alpha  occ. eigenvalues --   -0.69533  -0.69165  -0.68127  -0.67267  -0.66796
 Alpha  occ. eigenvalues --   -0.66401  -0.65227  -0.64950  -0.62969  -0.62431
 Alpha  occ. eigenvalues --   -0.62129  -0.61445  -0.60279  -0.60086  -0.59573
 Alpha  occ. eigenvalues --   -0.59167  -0.58125  -0.58057  -0.57368  -0.57154
 Alpha  occ. eigenvalues --   -0.56589  -0.55889  -0.55563  -0.55299  -0.55001
 Alpha  occ. eigenvalues --   -0.54394  -0.54228  -0.53909  -0.53010  -0.52825
 Alpha  occ. eigenvalues --   -0.52470  -0.52261  -0.51797  -0.51460  -0.51156
 Alpha  occ. eigenvalues --   -0.51101  -0.50397  -0.49658  -0.49447  -0.49383
 Alpha  occ. eigenvalues --   -0.49261  -0.48729  -0.48696  -0.48494  -0.48362
 Alpha  occ. eigenvalues --   -0.47970  -0.47795  -0.47674  -0.47031  -0.46942
 Alpha  occ. eigenvalues --   -0.46722  -0.46628  -0.46357  -0.46307  -0.46145
 Alpha  occ. eigenvalues --   -0.45850  -0.45795  -0.45381  -0.45367  -0.45203
 Alpha  occ. eigenvalues --   -0.45014  -0.44805  -0.44377  -0.44259  -0.44052
 Alpha  occ. eigenvalues --   -0.43746  -0.43683  -0.43454  -0.42986  -0.42884
 Alpha  occ. eigenvalues --   -0.42685  -0.42292  -0.42277  -0.41932  -0.41720
 Alpha  occ. eigenvalues --   -0.41592  -0.41386  -0.40968  -0.40914  -0.40672
 Alpha  occ. eigenvalues --   -0.40484  -0.40401  -0.40166  -0.40073  -0.40022
 Alpha  occ. eigenvalues --   -0.39853  -0.39690  -0.39562  -0.39055  -0.38840
 Alpha  occ. eigenvalues --   -0.38720  -0.38573  -0.38311  -0.38233  -0.38194
 Alpha  occ. eigenvalues --   -0.37704  -0.37675  -0.37369  -0.37169  -0.37127
 Alpha  occ. eigenvalues --   -0.36859  -0.36744  -0.36297  -0.35973  -0.35792
 Alpha  occ. eigenvalues --   -0.35771  -0.35431  -0.35331  -0.34831  -0.34559
 Alpha  occ. eigenvalues --   -0.34368  -0.34202  -0.34164  -0.33367  -0.33319
 Alpha  occ. eigenvalues --   -0.32605  -0.32494  -0.32279  -0.32124  -0.31301
 Alpha  occ. eigenvalues --   -0.30896  -0.30791  -0.30751  -0.29469  -0.29124
 Alpha  occ. eigenvalues --   -0.28810  -0.28725  -0.28305  -0.28166  -0.27310
 Alpha  occ. eigenvalues --   -0.26897  -0.26221  -0.23117  -0.21814
 Alpha virt. eigenvalues --   -0.08999  -0.07044  -0.02469  -0.01328  -0.00258
 Alpha virt. eigenvalues --    0.00828   0.02478   0.03465   0.04191   0.04638
 Alpha virt. eigenvalues --    0.04807   0.05154   0.06778   0.08070   0.09076

 Mulliken charges:
               1
     1  Mg   0.833954
     2  C    0.065381
     3  C   -0.195567
     4  C   -0.165238
     5  C   -0.194479
     6  N   -0.608815
     7  C    0.260320
     8  C   -0.121817
     9  C   -0.198902
    10  C    0.347615
    11  C   -0.266699
    12  C   -0.150337
    13  C   -0.249711
    14  C    0.604457
    15  O   -0.466329
    16  O   -0.489844
    17  N   -0.685731
    18  C    0.343013
    19  C   -0.030856
    20  C   -0.015239
    21  C    0.310107
    22  C   -0.376168
    23  C    0.244717
    24  O   -0.426303
    25  N   -0.695116
    26  C    0.279766
    27  C   -0.046391
    28  C    0.020194
    29  C    0.292896
    30  C    0.267685
    31  C   -0.244603
    32  C   -0.302943
    33  N   -0.772150
    34  C    0.308643
    35  C    0.059844
    36  C    0.110785
    37  C    0.293863
    38  C   -0.409933
    39  C    0.347565
    40  O   -0.497591
    41  C   -0.311626
    42  C    0.610949
    43  O   -0.498248
    44  O   -0.428139
    45  C   -0.072514
    46  C    0.021230
    47  C   -0.153137
    48  C    0.104364
    49  C   -0.355625
    50  C   -0.218243
    51  C   -0.185828
    52  C   -0.175013
    53  C   -0.044908
    54  C   -0.291985
    55  C   -0.154659
    56  C   -0.176426
    57  C   -0.179038
    58  C   -0.041821
    59  C   -0.309086
    60  C   -0.170434
    61  C   -0.178063
    62  C   -0.188915
    63  C   -0.046364
    64  C   -0.293006
    65  C   -0.326824
    66  H    0.076839
    67  H    0.133108
    68  H    0.078167
    69  H    0.109650
    70  H    0.091327
    71  H    0.115976
    72  H    0.117708
    73  H    0.135738
    74  H    0.093527
    75  H    0.126106
    76  H    0.155319
    77  H    0.149197
    78  H    0.099630
    79  H    0.145201
    80  H    0.131604
    81  H    0.105399
    82  H    0.115758
    83  H    0.092150
    84  H    0.121377
    85  H    0.123313
    86  H    0.112566
    87  H    0.078086
    88  H    0.158496
    89  H    0.143786
    90  H    0.168687
    91  H    0.122334
    92  H    0.116827
    93  H    0.070106
    94  H    0.160691
    95  H    0.072687
    96  H    0.137870
    97  H    0.102136
    98  H    0.097154
    99  H    0.096484
   100  H    0.092683
   101  H    0.086664
   102  H    0.096396
   103  H    0.068495
   104  H    0.072669
   105  H    0.110704
   106  H    0.092739
   107  H    0.090154
   108  H    0.067184
   109  H    0.108218
   110  H    0.085347
   111  H    0.063403
   112  H    0.054456
   113  H    0.087475
   114  H    0.091658
   115  H    0.097304
   116  H    0.086820
   117  H    0.094943
   118  H    0.098786
   119  H    0.104181
   120  H    0.096122
   121  H    0.093116
   122  H    0.090089
   123  H    0.096684
   124  H    0.103721
   125  H    0.061758
   126  H    0.084066
   127  H    0.089061
   128  H    0.105285
   129  H    0.115992
   130  H    0.136482
   131  H    0.149946
   132  H    0.092913
   133  O   -0.431343
   134  H    0.094134
 Sum of Mulliken charges =   0.00000

 Dipole moment (field-independent basis, Debye):
    X=              0.4115    Y=             -4.3505    Z=             -2.3208  Tot=              4.9479
 Quadrupole moment (field-independent basis, Debye-Ang):
   XX=           -365.2823   YY=           -433.2903   ZZ=           -397.7853
   XY=             -0.4818   XZ=             33.8144   YZ=            -39.6962

 Normal termination of Gaussian 09 at Tue Oct  8 09:28:03 2019.
