 Gaussian 09, Revision D.01,
 Gaussian 09:  ES64L-G09RevD.01 24-Apr-2013

 ----------------------------------------------------------------------
 # td=(NStates=1) iop(3/107=0140000000,3/108=0140000000) iop(3/107=0140
 000000,3/108=0140000000) CAM-B3LYP/6-31G(d,p)
 ----------------------------------------------------------------------

 --
 TD
 --
 Symbolic Z-matrix:
 Charge =  0 Multiplicity = 1

                         Standard orientation:
 ---------------------------------------------------------------------
 Center     Atomic      Atomic             Coordinates (Angstroms)
 Number     Number       Type             X           Y           Z
 ---------------------------------------------------------------------
      1         12           0       -5.452842    1.199307    0.238380
      2          6           0       -4.881196   -2.084233   -0.313135
      3          6           0       -3.353315    1.286231    2.811484
      4          6           0       -6.219675    4.576967    0.620624
      5          6           0       -8.030244    1.056616   -2.368389
      6          7           0       -4.240263   -0.224647    1.081378
      7          6           0       -4.174046   -1.589421    0.701296
      8          6           0       -3.181495   -2.350564    1.569687
      9          6           0       -2.716886   -1.321590    2.623209
     10          6           0       -3.487624   -0.011987    2.174204
     11          6           0       -3.381211   -1.644118    4.055189
     12          6           0       -1.993822   -2.636434    0.673450
     13          6           0       -0.953704   -3.532492    1.403848
     14          6           0        0.169124   -3.931425    0.603628
     15          8           0        0.439989   -3.444274   -0.510528
     16          8           0        1.003283   -4.801276    1.234923
     17          7           0       -4.850221    2.718033    1.306627
     18          6           0       -3.905752    2.518069    2.362820
     19          6           0       -3.759580    3.745044    3.166694
     20          6           0       -4.553552    4.646197    2.474216
     21          6           0       -5.242113    3.996348    1.425206
     22          6           0       -2.847134    3.864919    4.324078
     23          6           0       -4.676230    6.096394    2.837031
     24          8           0       -4.004965    6.624824    3.739578
     25          7           0       -6.936872    2.556717   -0.682144
     26          6           0       -6.997372    3.909476   -0.307522
     27          6           0       -8.034737    4.505698   -1.185960
     28          6           0       -8.496923    3.563758   -2.057707
     29          6           0       -7.924020    2.285141   -1.663846
     30          6           0       -8.395348    5.948234   -1.208239
     31          6           0       -9.598035    3.636968   -3.225798
     32          6           0       -8.804027    3.842654   -4.495369
     33          7           0       -6.224965   -0.145655   -1.150833
     34          6           0       -7.277152   -0.048703   -2.126845
     35          6           0       -7.476522   -1.360990   -2.697180
     36          6           0       -6.577715   -2.197265   -2.065671
     37          6           0       -5.899564   -1.429804   -1.144220
     38          6           0       -8.496088   -1.651882   -3.798661
     39          6           0       -6.098953   -3.566662   -1.958805
     40          8           0       -6.588051   -4.583321   -2.474140
     41          6           0       -5.032918   -3.563463   -0.884515
     42          6           0       -5.302735   -4.642234    0.238417
     43          8           0       -5.733815   -4.519067    1.290304
     44          8           0       -5.009787   -5.940452   -0.291289
     45          6           0       -5.307073   -7.049090    0.557406
     46          6           0        2.293039   -4.970236    0.525340
     47          6           0        3.379001   -4.008780    0.984104
     48          6           0        4.011923   -3.215893    0.130421
     49          6           0        3.710193   -3.009105   -1.364973
     50          6           0        5.200339   -2.343829    0.693886
     51          6           0        6.565167   -2.624028   -0.018305
     52          6           0        7.592689   -1.762306    0.508522
     53          6           0        9.019703   -1.959014   -0.080678
     54          6           0        9.581560   -3.293000    0.209607
     55          6           0        9.974872   -0.847084    0.477220
     56          6           0       11.368677   -0.877317   -0.196124
     57          6           0       12.140323    0.302625    0.294312
     58          6           0       13.451898    0.459366   -0.549744
     59          6           0       14.334767   -0.717178   -0.402149
     60          6           0       14.241975    1.724886   -0.224418
     61          6           0       15.573222    2.111982   -0.927539
     62          6           0       16.078586    3.516762   -0.575272
     63          6           0       17.334781    3.908114   -1.370697
     64          6           0       17.030846    3.840686   -2.896745
     65          6           0       17.877334    5.323896   -0.968046
     66          1           0       -2.767370    1.128581    3.741737
     67          1           0       -6.527135    5.596140    0.798393
     68          1           0       -8.853993    1.074618   -3.131902
     69          1           0       -3.689601   -3.325190    1.847649
     70          1           0       -1.749521   -1.010657    2.568633
     71          1           0       -3.119759   -2.648135    4.191257
     72          1           0       -2.937550   -0.880935    4.676248
     73          1           0       -4.492177   -1.703607    4.107967
     74          1           0       -2.318343   -3.240610   -0.137102
     75          1           0       -1.627353   -1.675069    0.438597
     76          1           0       -0.601076   -3.030858    2.267665
     77          1           0       -1.220965   -4.381107    1.943644
     78          1           0       -1.764174    3.712996    3.888556
     79          1           0       -3.005472    4.849921    4.914324
     80          1           0       -3.156169    3.154084    5.033076
     81          1           0       -5.365941    6.675889    2.154531
     82          1           0      -10.300844    2.704604   -3.241731
     83          1           0      -10.103841    4.521416   -3.018523
     84          1           0       -9.557191    4.252855   -5.355248
     85          1           0       -8.082559    4.614927   -4.335091
     86          1           0       -8.141039    3.048756   -5.025586
     87          1           0       -8.109131   -0.895729   -4.642731
     88          1           0       -8.556932   -2.614517   -4.118541
     89          1           0       -9.489579   -1.365038   -3.511217
     90          1           0       -4.246771   -3.981410   -1.502487
     91          1           0        2.505059   -5.960844    0.752319
     92          1           0        2.071723   -4.968961   -0.464160
     93          1           0        3.547893   -4.071829    2.082411
     94          1           0        2.732496   -3.459534   -1.681370
     95          1           0        3.946852   -1.810694   -1.236198
     96          1           0        4.559156   -3.692810   -1.938509
     97          1           0        4.848166   -1.286413    0.173055
     98          1           0        5.490576   -2.352807    1.730801
     99          1           0        6.759283   -3.584360    0.360543
    100          1           0        6.398215   -2.757861   -1.095260
    101          1           0        7.166093   -0.714529    0.461363
    102          1           0        7.718546   -2.001944    1.554688
    103          1           0        8.906382   -1.780917   -1.115899
    104          1           0        8.655744   -4.028700    0.062800
    105          1           0       10.437337   -3.864337   -0.438711
    106          1           0        9.740038   -3.141142    1.272859
    107          1           0        9.491782    0.039314    0.343848
    108          1           0        9.999359   -1.162870    1.597114
    109          1           0       11.935654   -1.867281    0.165722
    110          1           0       11.205913   -0.667975   -1.181507
    111          1           0       11.679017    1.183825    0.210570
    112          1           0       12.260193    0.007449    1.358483
    113          1           0       13.081127    0.412758   -1.633391
    114          1           0       14.563457   -0.861562    0.751106
    115          1           0       13.700333   -1.574450   -0.595720
    116          1           0       15.259017   -0.752479   -0.949271
    117          1           0       13.462860    2.602463   -0.451558
    118          1           0       14.385263    1.512006    0.875303
    119          1           0       16.403893    1.203773   -0.891793
    120          1           0       15.219879    2.314343   -1.994110
    121          1           0       15.071761    4.173292   -0.889186
    122          1           0       16.166259    3.706207    0.455591
    123          1           0       18.012729    3.112157   -1.089849
    124          1           0       15.971906    4.337195   -3.049070
    125          1           0       17.824586    4.057813   -3.370905
    126          1           0       16.862670    2.745973   -3.088047
    127          1           0       17.945017    5.519524    0.100845
    128          1           0       18.900054    5.535294   -1.356291
    129          1           0       17.297920    6.119365   -1.441110
    130          1           0       -4.914511   -7.877290    0.030165
    131          1           0       -6.402949   -7.163316    0.850688
    132          1           0       -4.870209   -6.995422    1.358556
    133          8           0       -7.985869    6.887572   -0.501422
    134          1           0       -9.097530    6.159383   -2.010291
 ---------------------------------------------------------------------

 SCF Done:  E(RCAM-B3LYP) =  -3043.49905888     A.U. after   15 cycles

 Excitation energies and oscillator strengths:

 Excited State   1:      Singlet-A      2.0216 eV  613.31 nm  f=0.2236  <S**2>=0.000
     243 -> 246        0.20737
     244 -> 245        0.66848
 This state for optimization and/or second-order correction.
 Total Energy, E(TD-HF/TD-KS) =  -3043.42476773
 Copying the excited state density for this state as the 1-particle RhoCI density.

 The electronic state is 1-A.
 Alpha  occ. eigenvalues --  -46.81412 -19.21830 -19.20748 -19.19327 -19.17400
 Alpha  occ. eigenvalues --  -19.17112 -19.16498 -19.16310 -14.39357 -14.37185
 Alpha  occ. eigenvalues --  -14.36693 -14.36647 -10.35737 -10.34356 -10.31152
 Alpha  occ. eigenvalues --  -10.30866 -10.30235 -10.28829 -10.28009 -10.27527
 Alpha  occ. eigenvalues --  -10.26343 -10.26222 -10.25982 -10.25899 -10.25890
 Alpha  occ. eigenvalues --  -10.25771 -10.25740 -10.25334 -10.25302 -10.25258
 Alpha  occ. eigenvalues --  -10.24920 -10.24816 -10.24780 -10.24700 -10.24659
 Alpha  occ. eigenvalues --  -10.24650 -10.24443 -10.24303 -10.23731 -10.23433
 Alpha  occ. eigenvalues --  -10.23292 -10.23161 -10.23041 -10.23033 -10.22968
 Alpha  occ. eigenvalues --  -10.22964 -10.22939 -10.22917 -10.22827 -10.22493
 Alpha  occ. eigenvalues --  -10.21854 -10.21757 -10.21663 -10.21644 -10.21555
 Alpha  occ. eigenvalues --  -10.21311 -10.21216 -10.20921 -10.20836 -10.20758
 Alpha  occ. eigenvalues --  -10.20439 -10.20279 -10.20114 -10.19697 -10.19551
 Alpha  occ. eigenvalues --  -10.19397  -3.10006  -1.84941  -1.84455  -1.84443
 Alpha  occ. eigenvalues --   -1.15136  -1.11978  -1.05688  -1.05419  -1.05221
 Alpha  occ. eigenvalues --   -1.05032  -1.02683  -1.00424  -0.99777  -0.99244
 Alpha  occ. eigenvalues --   -0.96852  -0.88444  -0.87291  -0.86958  -0.85655
 Alpha  occ. eigenvalues --   -0.85236  -0.84519  -0.84041  -0.83858  -0.83553
 Alpha  occ. eigenvalues --   -0.83437  -0.82979  -0.82511  -0.80962  -0.80377
 Alpha  occ. eigenvalues --   -0.78836  -0.78532  -0.78080  -0.77166  -0.76865
 Alpha  occ. eigenvalues --   -0.75793  -0.75457  -0.74812  -0.73585  -0.72719
 Alpha  occ. eigenvalues --   -0.71255  -0.70404  -0.70177  -0.69973  -0.69699
 Alpha  occ. eigenvalues --   -0.69615  -0.69211  -0.67984  -0.66593  -0.65853
 Alpha  occ. eigenvalues --   -0.65692  -0.64706  -0.64346  -0.63355  -0.62244
 Alpha  occ. eigenvalues --   -0.62229  -0.60777  -0.60340  -0.59315  -0.59157
 Alpha  occ. eigenvalues --   -0.58993  -0.57925  -0.57793  -0.57118  -0.56914
 Alpha  occ. eigenvalues --   -0.56384  -0.56167  -0.55637  -0.55290  -0.54863
 Alpha  occ. eigenvalues --   -0.54289  -0.53830  -0.53549  -0.52616  -0.52528
 Alpha  occ. eigenvalues --   -0.52299  -0.51765  -0.51490  -0.51208  -0.50915
 Alpha  occ. eigenvalues --   -0.50543  -0.50381  -0.50193  -0.49636  -0.49482
 Alpha  occ. eigenvalues --   -0.48793  -0.48707  -0.48405  -0.48313  -0.48030
 Alpha  occ. eigenvalues --   -0.47837  -0.47591  -0.47415  -0.47268  -0.46997
 Alpha  occ. eigenvalues --   -0.46617  -0.46585  -0.46460  -0.46184  -0.45845
 Alpha  occ. eigenvalues --   -0.45666  -0.45515  -0.45457  -0.45081  -0.44938
 Alpha  occ. eigenvalues --   -0.44785  -0.44431  -0.44297  -0.44052  -0.43875
 Alpha  occ. eigenvalues --   -0.43833  -0.43794  -0.43447  -0.43193  -0.43025
 Alpha  occ. eigenvalues --   -0.42761  -0.42632  -0.42408  -0.42359  -0.42223
 Alpha  occ. eigenvalues --   -0.41996  -0.41759  -0.41611  -0.41344  -0.40960
 Alpha  occ. eigenvalues --   -0.40829  -0.40727  -0.40567  -0.40339  -0.40187
 Alpha  occ. eigenvalues --   -0.39886  -0.39811  -0.39439  -0.39429  -0.39253
 Alpha  occ. eigenvalues --   -0.39125  -0.38746  -0.38678  -0.38455  -0.38389
 Alpha  occ. eigenvalues --   -0.38164  -0.37979  -0.37688  -0.37470  -0.36883
 Alpha  occ. eigenvalues --   -0.36687  -0.36419  -0.36392  -0.36157  -0.35893
 Alpha  occ. eigenvalues --   -0.35753  -0.35440  -0.35278  -0.35050  -0.34561
 Alpha  occ. eigenvalues --   -0.34058  -0.33898  -0.33764  -0.33559  -0.33226
 Alpha  occ. eigenvalues --   -0.33092  -0.32690  -0.32320  -0.31998  -0.31618
 Alpha  occ. eigenvalues --   -0.31398  -0.31349  -0.30320  -0.30168  -0.30053
 Alpha  occ. eigenvalues --   -0.28773  -0.28271  -0.27899  -0.27823  -0.27598
 Alpha  occ. eigenvalues --   -0.27586  -0.27499  -0.23973  -0.21423
 Alpha virt. eigenvalues --   -0.08699  -0.06391  -0.01608  -0.00693   0.00456
 Alpha virt. eigenvalues --    0.03150   0.03505   0.03958   0.04085   0.04317
 Alpha virt. eigenvalues --    0.04490   0.05738   0.07614   0.08086   0.08817

 Mulliken charges:
               1
     1  Mg   0.832365
     2  C    0.079204
     3  C   -0.195987
     4  C   -0.171640
     5  C   -0.156401
     6  N   -0.640156
     7  C    0.267987
     8  C   -0.158841
     9  C   -0.156053
    10  C    0.311141
    11  C   -0.308500
    12  C   -0.151719
    13  C   -0.281347
    14  C    0.617394
    15  O   -0.501604
    16  O   -0.494707
    17  N   -0.739129
    18  C    0.277352
    19  C    0.068967
    20  C   -0.055536
    21  C    0.365858
    22  C   -0.377538
    23  C    0.254375
    24  O   -0.428463
    25  N   -0.676951
    26  C    0.318919
    27  C   -0.043271
    28  C   -0.006220
    29  C    0.253977
    30  C    0.253036
    31  C   -0.210828
    32  C   -0.310027
    33  N   -0.712928
    34  C    0.275828
    35  C   -0.010757
    36  C    0.068423
    37  C    0.291583
    38  C   -0.357073
    39  C    0.336128
    40  O   -0.466105
    41  C   -0.302363
    42  C    0.605141
    43  O   -0.404394
    44  O   -0.484282
    45  C   -0.064293
    46  C    0.011903
    47  C   -0.136937
    48  C    0.121389
    49  C   -0.327217
    50  C   -0.221625
    51  C   -0.175490
    52  C   -0.168388
    53  C   -0.070918
    54  C   -0.290176
    55  C   -0.173703
    56  C   -0.171235
    57  C   -0.154270
    58  C   -0.068395
    59  C   -0.298672
    60  C   -0.147696
    61  C   -0.172786
    62  C   -0.150020
    63  C   -0.051626
    64  C   -0.295683
    65  C   -0.324318
    66  H    0.083987
    67  H    0.129539
    68  H    0.100847
    69  H    0.120277
    70  H    0.127725
    71  H    0.121349
    72  H    0.115731
    73  H    0.135118
    74  H    0.122791
    75  H    0.125101
    76  H    0.144117
    77  H    0.136414
    78  H    0.125451
    79  H    0.154864
    80  H    0.130278
    81  H    0.090916
    82  H    0.110013
    83  H    0.126365
    84  H    0.082906
    85  H    0.128520
    86  H    0.110666
    87  H    0.111896
    88  H    0.151588
    89  H    0.131477
    90  H    0.169492
    91  H    0.113569
    92  H    0.124229
    93  H    0.083922
    94  H    0.154367
    95  H    0.100879
    96  H    0.100477
    97  H    0.062672
    98  H    0.103478
    99  H    0.109110
   100  H    0.095745
   101  H    0.085193
   102  H    0.083833
   103  H    0.083541
   104  H    0.078140
   105  H    0.099509
   106  H    0.098514
   107  H    0.095495
   108  H    0.065173
   109  H    0.096151
   110  H    0.100169
   111  H    0.094291
   112  H    0.084681
   113  H    0.063310
   114  H    0.069861
   115  H    0.098541
   116  H    0.104762
   117  H    0.059941
   118  H    0.082359
   119  H    0.066487
   120  H    0.097534
   121  H    0.049127
   122  H    0.095396
   123  H    0.092036
   124  H    0.094906
   125  H    0.106658
   126  H    0.099896
   127  H    0.101971
   128  H    0.093626
   129  H    0.105978
   130  H    0.123362
   131  H    0.108822
   132  H    0.122302
   133  O   -0.443505
   134  H    0.061360
 Sum of Mulliken charges =   0.00000

 Dipole moment (field-independent basis, Debye):
    X=              2.2570    Y=             -4.9261    Z=              0.3045  Tot=              5.4271
 Quadrupole moment (field-independent basis, Debye-Ang):
   XX=           -384.4743   YY=           -449.5982   ZZ=           -389.9792
   XY=              7.6306   XZ=             14.1043   YZ=            -33.6721

 Normal termination of Gaussian 09 at Mon Oct  7 19:31:06 2019.
