 Gaussian 09, Revision D.01,
 Gaussian 09:  ES64L-G09RevD.01 24-Apr-2013

 ----------------------------------------------------------------------
 # td=(NStates=1) iop(3/107=0140000000,3/108=0140000000) iop(3/107=0140
 000000,3/108=0140000000) CAM-B3LYP/6-31G(d,p)
 ----------------------------------------------------------------------

 --
 TD
 --
 Symbolic Z-matrix:
 Charge =  0 Multiplicity = 1

                         Standard orientation:
 ---------------------------------------------------------------------
 Center     Atomic      Atomic             Coordinates (Angstroms)
 Number     Number       Type             X           Y           Z
 ---------------------------------------------------------------------
      1         12           0       -5.584338    1.246284    0.224390
      2          6           0       -4.981999   -2.152913   -0.336865
      3          6           0       -3.484623    1.149198    2.845955
      4          6           0       -6.261010    4.569942    0.607034
      5          6           0       -8.013802    1.219858   -2.413901
      6          7           0       -4.273703   -0.246531    0.933920
      7          6           0       -4.136685   -1.622670    0.649000
      8          6           0       -3.270315   -2.345360    1.493934
      9          6           0       -2.956535   -1.359294    2.589591
     10          6           0       -3.561026   -0.091988    2.119726
     11          6           0       -3.517474   -1.877016    4.047795
     12          6           0       -2.049496   -2.688669    0.532348
     13          6           0       -0.956619   -3.485575    1.402368
     14          6           0        0.162078   -3.957721    0.499716
     15          8           0        0.386757   -3.499323   -0.610192
     16          8           0        1.068452   -4.633798    1.260235
     17          7           0       -5.004887    2.686689    1.500569
     18          6           0       -3.985843    2.452455    2.399612
     19          6           0       -3.718179    3.751142    3.164382
     20          6           0       -4.439331    4.719248    2.447147
     21          6           0       -5.307218    4.004102    1.459034
     22          6           0       -2.672252    3.870543    4.344613
     23          6           0       -4.646763    6.108587    2.800860
     24          8           0       -3.933278    6.668410    3.670701
     25          7           0       -6.894258    2.602281   -0.716237
     26          6           0       -6.930467    3.862015   -0.332760
     27          6           0       -7.928573    4.588335   -1.142928
     28          6           0       -8.362332    3.593440   -1.958158
     29          6           0       -7.789457    2.421548   -1.722966
     30          6           0       -8.229350    6.015488   -1.157433
     31          6           0       -9.476894    3.779110   -3.138129
     32          6           0       -8.770635    3.666618   -4.586794
     33          7           0       -6.323952   -0.121808   -1.050459
     34          6           0       -7.288876   -0.020690   -2.134525
     35          6           0       -7.496630   -1.354499   -2.759128
     36          6           0       -6.709304   -2.248833   -2.087415
     37          6           0       -5.905318   -1.350847   -1.112577
     38          6           0       -8.418626   -1.532783   -3.895326
     39          6           0       -6.210497   -3.522047   -2.008398
     40          8           0       -6.666301   -4.502136   -2.616523
     41          6           0       -5.095305   -3.576715   -0.943048
     42          6           0       -5.348289   -4.663936    0.147630
     43          8           0       -5.688057   -4.398694    1.237714
     44          8           0       -5.178337   -5.849160   -0.301274
     45          6           0       -5.467509   -6.952688    0.568145
     46          6           0        2.333677   -4.982251    0.772975
     47          6           0        3.385215   -4.006360    1.102427
     48          6           0        4.067107   -3.191456    0.311138
     49          6           0        3.700011   -3.171836   -1.200101
     50          6           0        5.192030   -2.296291    0.822908
     51          6           0        6.540551   -2.643736    0.176171
     52          6           0        7.640489   -1.782228    0.741798
     53          6           0        8.985103   -1.877363    0.013020
     54          6           0        9.550675   -3.349433    0.076628
     55          6           0       10.005103   -0.872587    0.531281
     56          6           0       11.310609   -0.915183   -0.179765
     57          6           0       12.138949    0.339512    0.085097
     58          6           0       13.485879    0.456410   -0.619104
     59          6           0       14.287542   -0.815436   -0.523798
     60          6           0       14.222189    1.704181   -0.286052
     61          6           0       15.552410    2.060476   -1.066899
     62          6           0       16.135853    3.430676   -0.546035
     63          6           0       17.389569    3.795438   -1.357463
     64          6           0       17.245030    3.825277   -2.845821
     65          6           0       17.917199    5.207420   -0.813333
     66          1           0       -2.911270    1.345297    3.754108
     67          1           0       -6.398233    5.619411    0.766919
     68          1           0       -8.637364    1.096956   -3.306302
     69          1           0       -3.778574   -3.488196    1.797732
     70          1           0       -2.010392   -1.204328    3.029880
     71          1           0       -2.761642   -2.862955    4.283772
     72          1           0       -3.287937   -1.006166    4.726649
     73          1           0       -4.515526   -2.207191    4.118667
     74          1           0       -2.299283   -3.349909   -0.188569
     75          1           0       -1.753747   -1.800664    0.265139
     76          1           0       -0.736104   -2.827770    2.392386
     77          1           0       -1.546995   -4.359077    1.966432
     78          1           0       -1.704681    3.611224    3.865983
     79          1           0       -2.842907    4.817824    4.936037
     80          1           0       -2.847922    2.978974    5.191747
     81          1           0       -5.487159    6.663960    2.304287
     82          1           0      -10.369347    2.990017   -3.085137
     83          1           0       -9.846721    4.867351   -3.211671
     84          1           0       -9.465072    3.941300   -5.248712
     85          1           0       -7.802806    4.170444   -4.776828
     86          1           0       -8.675833    2.327596   -4.973743
     87          1           0       -8.230515   -0.687910   -4.660782
     88          1           0       -8.127414   -2.624016   -4.231066
     89          1           0       -9.479966   -1.565579   -3.597562
     90          1           0       -4.019284   -4.040107   -1.436048
     91          1           0        2.523402   -6.018259    0.936574
     92          1           0        2.289562   -5.085843   -0.232650
     93          1           0        3.772314   -4.064180    2.073206
     94          1           0        2.684146   -3.148685   -1.578213
     95          1           0        3.796383   -2.253620   -1.496596
     96          1           0        4.366005   -3.945894   -1.633938
     97          1           0        4.851440   -1.322674    0.804203
     98          1           0        5.272359   -2.429369    1.892683
     99          1           0        6.580464   -3.763808    0.294531
    100          1           0        6.352709   -2.428628   -0.919724
    101          1           0        7.224173   -0.752348    0.667887
    102          1           0        7.785464   -2.050471    1.935027
    103          1           0        8.701180   -1.570006   -1.195473
    104          1           0        8.889032   -4.057643   -0.223605
    105          1           0       10.471750   -3.638138   -0.784783
    106          1           0       10.169293   -3.432256    1.039662
    107          1           0        9.744279    0.273846    0.427050
    108          1           0       10.025027   -1.046819    1.647015
    109          1           0       12.096807   -1.686782    0.022096
    110          1           0       11.093773   -0.940295   -1.316790
    111          1           0       11.563393    1.329939   -0.026490
    112          1           0       12.429247    0.327585    1.126973
    113          1           0       13.203246    0.458199   -1.700444
    114          1           0       14.791917   -0.977958    0.504266
    115          1           0       13.640599   -1.477063   -0.824902
    116          1           0       15.272774   -0.904595   -1.093180
    117          1           0       13.664074    2.642516   -0.450433
    118          1           0       14.473816    1.703731    0.677695
    119          1           0       16.401064    1.504420   -0.997577
    120          1           0       15.036635    2.079842   -2.014732
    121          1           0       15.484932    4.242840   -1.021771
    122          1           0       16.113424    3.398926    0.524609
    123          1           0       18.183357    3.102383   -1.000131
    124          1           0       16.167471    4.409238   -3.406925
    125          1           0       18.234349    4.172935   -3.294945
    126          1           0       16.889168    2.797329   -3.291779
    127          1           0       18.239637    5.229761    0.193182
    128          1           0       18.773785    5.765570   -1.526970
    129          1           0       17.064497    6.111437   -0.807374
    130          1           0       -5.196895   -7.859384    0.095329
    131          1           0       -6.337079   -7.028990    0.919845
    132          1           0       -4.798372   -6.917023    1.417325
    133          8           0       -7.760260    6.947049   -0.388135
    134          1           0       -8.950271    6.289467   -1.932162
 ---------------------------------------------------------------------

 SCF Done:  E(RCAM-B3LYP) =  -3043.34262427     A.U. after   16 cycles

 Excitation energies and oscillator strengths:

 Excited State   1:      Singlet-A      1.9648 eV  631.03 nm  f=0.1740  <S**2>=0.000
     243 -> 246        0.24699
     244 -> 245        0.65318
 This state for optimization and/or second-order correction.
 Total Energy, E(TD-HF/TD-KS) =  -3043.27041971
 Copying the excited state density for this state as the 1-particle RhoCI density.

 The electronic state is 1-A.
 Alpha  occ. eigenvalues --  -46.81717 -19.23706 -19.22106 -19.18078 -19.17089
 Alpha  occ. eigenvalues --  -19.16568 -19.16402 -19.15933 -14.39514 -14.37520
 Alpha  occ. eigenvalues --  -14.37333 -14.36484 -10.35985 -10.34974 -10.30365
 Alpha  occ. eigenvalues --  -10.30351 -10.30047 -10.28849 -10.28127 -10.27666
 Alpha  occ. eigenvalues --  -10.27194 -10.26795 -10.26492 -10.26411 -10.26274
 Alpha  occ. eigenvalues --  -10.26084 -10.26083 -10.26045 -10.25943 -10.25760
 Alpha  occ. eigenvalues --  -10.25454 -10.25361 -10.25154 -10.24976 -10.24949
 Alpha  occ. eigenvalues --  -10.24872 -10.24859 -10.24093 -10.24050 -10.24023
 Alpha  occ. eigenvalues --  -10.24005 -10.23985 -10.23597 -10.23498 -10.23418
 Alpha  occ. eigenvalues --  -10.22959 -10.22940 -10.22887 -10.22543 -10.22421
 Alpha  occ. eigenvalues --  -10.22367 -10.22338 -10.22206 -10.22203 -10.22089
 Alpha  occ. eigenvalues --  -10.22068 -10.21426 -10.21081 -10.20994 -10.20937
 Alpha  occ. eigenvalues --  -10.20549 -10.19966 -10.19645 -10.19609 -10.19426
 Alpha  occ. eigenvalues --  -10.19247  -3.10334  -1.85270  -1.84786  -1.84767
 Alpha  occ. eigenvalues --   -1.17234  -1.13418  -1.07345  -1.05413  -1.05213
 Alpha  occ. eigenvalues --   -1.04046  -1.02376  -1.01540  -1.00390  -0.99269
 Alpha  occ. eigenvalues --   -0.98851  -0.87492  -0.86516  -0.86138  -0.85919
 Alpha  occ. eigenvalues --   -0.85478  -0.84533  -0.84441  -0.83434  -0.83295
 Alpha  occ. eigenvalues --   -0.83046  -0.82021  -0.81726  -0.81030  -0.80294
 Alpha  occ. eigenvalues --   -0.79429  -0.78348  -0.77777  -0.77213  -0.76867
 Alpha  occ. eigenvalues --   -0.75544  -0.74750  -0.74110  -0.73452  -0.72502
 Alpha  occ. eigenvalues --   -0.72048  -0.71091  -0.70324  -0.69860  -0.69479
 Alpha  occ. eigenvalues --   -0.69174  -0.69090  -0.67875  -0.66925  -0.66119
 Alpha  occ. eigenvalues --   -0.65336  -0.65231  -0.64757  -0.62857  -0.62710
 Alpha  occ. eigenvalues --   -0.62211  -0.61594  -0.60703  -0.60481  -0.59986
 Alpha  occ. eigenvalues --   -0.58471  -0.57814  -0.57678  -0.57486  -0.57292
 Alpha  occ. eigenvalues --   -0.56703  -0.56318  -0.55990  -0.54732  -0.54388
 Alpha  occ. eigenvalues --   -0.54188  -0.53714  -0.53320  -0.52772  -0.52354
 Alpha  occ. eigenvalues --   -0.52241  -0.52105  -0.51937  -0.51599  -0.51169
 Alpha  occ. eigenvalues --   -0.50616  -0.50523  -0.49897  -0.49577  -0.49499
 Alpha  occ. eigenvalues --   -0.49388  -0.48638  -0.48392  -0.48198  -0.48152
 Alpha  occ. eigenvalues --   -0.47757  -0.47533  -0.47175  -0.47009  -0.46834
 Alpha  occ. eigenvalues --   -0.46805  -0.46614  -0.46339  -0.46151  -0.45900
 Alpha  occ. eigenvalues --   -0.45791  -0.45417  -0.45279  -0.45056  -0.44689
 Alpha  occ. eigenvalues --   -0.44603  -0.44433  -0.44247  -0.43882  -0.43743
 Alpha  occ. eigenvalues --   -0.43626  -0.43558  -0.43114  -0.42996  -0.42870
 Alpha  occ. eigenvalues --   -0.42793  -0.42692  -0.42247  -0.41990  -0.41692
 Alpha  occ. eigenvalues --   -0.41138  -0.41022  -0.40740  -0.40507  -0.40426
 Alpha  occ. eigenvalues --   -0.40212  -0.39995  -0.39931  -0.39722  -0.39710
 Alpha  occ. eigenvalues --   -0.39553  -0.39273  -0.39051  -0.38989  -0.38686
 Alpha  occ. eigenvalues --   -0.38467  -0.38371  -0.38082  -0.38027  -0.37935
 Alpha  occ. eigenvalues --   -0.37410  -0.37343  -0.36973  -0.36883  -0.36780
 Alpha  occ. eigenvalues --   -0.36662  -0.36408  -0.35957  -0.35769  -0.35649
 Alpha  occ. eigenvalues --   -0.35102  -0.35041  -0.34822  -0.34783  -0.34482
 Alpha  occ. eigenvalues --   -0.34375  -0.34265  -0.34188  -0.33928  -0.33261
 Alpha  occ. eigenvalues --   -0.32872  -0.32638  -0.32395  -0.32124  -0.31766
 Alpha  occ. eigenvalues --   -0.31381  -0.31208  -0.31045  -0.30416  -0.29503
 Alpha  occ. eigenvalues --   -0.29092  -0.28136  -0.28031  -0.27925  -0.27519
 Alpha  occ. eigenvalues --   -0.27385  -0.27342  -0.22931  -0.21405
 Alpha virt. eigenvalues --   -0.08606  -0.06733  -0.02184  -0.01004  -0.00161
 Alpha virt. eigenvalues --    0.00901   0.02585   0.03809   0.04290   0.04485
 Alpha virt. eigenvalues --    0.04680   0.05577   0.05823   0.07478   0.08514

 Mulliken charges:
               1
     1  Mg   0.825113
     2  C    0.081737
     3  C   -0.197310
     4  C   -0.134862
     5  C   -0.151785
     6  N   -0.639817
     7  C    0.318370
     8  C   -0.177597
     9  C   -0.160009
    10  C    0.362346
    11  C   -0.299608
    12  C   -0.134043
    13  C   -0.278519
    14  C    0.603996
    15  O   -0.449581
    16  O   -0.452436
    17  N   -0.698088
    18  C    0.263698
    19  C    0.037889
    20  C   -0.035420
    21  C    0.311695
    22  C   -0.362190
    23  C    0.224483
    24  O   -0.442081
    25  N   -0.720093
    26  C    0.328335
    27  C   -0.008507
    28  C   -0.000974
    29  C    0.338092
    30  C    0.236193
    31  C   -0.242995
    32  C   -0.282905
    33  N   -0.693651
    34  C    0.221412
    35  C    0.035615
    36  C    0.092025
    37  C    0.281124
    38  C   -0.389018
    39  C    0.333621
    40  O   -0.486955
    41  C   -0.336661
    42  C    0.608288
    43  O   -0.454672
    44  O   -0.405678
    45  C   -0.090308
    46  C    0.010469
    47  C   -0.115980
    48  C    0.089122
    49  C   -0.373609
    50  C   -0.233141
    51  C   -0.175998
    52  C   -0.148790
    53  C   -0.037541
    54  C   -0.294950
    55  C   -0.162379
    56  C   -0.164334
    57  C   -0.182346
    58  C   -0.060758
    59  C   -0.302970
    60  C   -0.183092
    61  C   -0.184719
    62  C   -0.172624
    63  C   -0.050143
    64  C   -0.279282
    65  C   -0.298631
    66  H    0.079940
    67  H    0.134903
    68  H    0.094727
    69  H    0.122645
    70  H    0.126834
    71  H    0.077365
    72  H    0.111431
    73  H    0.145303
    74  H    0.122991
    75  H    0.129435
    76  H    0.126863
    77  H    0.109111
    78  H    0.143939
    79  H    0.165874
    80  H    0.088487
    81  H    0.102401
    82  H    0.110846
    83  H    0.108895
    84  H    0.132644
    85  H    0.129315
    86  H    0.021013
    87  H    0.122564
    88  H    0.142687
    89  H    0.143192
    90  H    0.127856
    91  H    0.111038
    92  H    0.117483
    93  H    0.066996
    94  H    0.142968
    95  H    0.112588
    96  H    0.117171
    97  H    0.113780
    98  H    0.096650
    99  H    0.098605
   100  H    0.098532
   101  H    0.099207
   102  H    0.063177
   103  H    0.044200
   104  H    0.122440
   105  H    0.057391
   106  H    0.106781
   107  H    0.082037
   108  H    0.086566
   109  H    0.102440
   110  H    0.082105
   111  H    0.075352
   112  H    0.090647
   113  H    0.070686
   114  H    0.079493
   115  H    0.115879
   116  H    0.094330
   117  H    0.087296
   118  H    0.089654
   119  H    0.095454
   120  H    0.099980
   121  H    0.087306
   122  H    0.099463
   123  H    0.094041
   124  H    0.054480
   125  H    0.109216
   126  H    0.100974
   127  H    0.112748
   128  H    0.067834
   129  H    0.069292
   130  H    0.130999
   131  H    0.147395
   132  H    0.118193
   133  O   -0.466358
   134  H    0.075657
 Sum of Mulliken charges =   0.00000

 Dipole moment (field-independent basis, Debye):
    X=              2.4053    Y=             -6.9448    Z=              0.1251  Tot=              7.3506
 Quadrupole moment (field-independent basis, Debye-Ang):
   XX=           -384.3046   YY=           -443.9830   ZZ=           -394.9995
   XY=             10.9399   XZ=             23.7940   YZ=            -36.3624

 Normal termination of Gaussian 09 at Mon Oct  7 08:39:14 2019.
