 Gaussian 09, Revision D.01,
 Gaussian 09:  ES64L-G09RevD.01 24-Apr-2013

 ----------------------------------------------------------------------
 # td=(NStates=1) iop(3/107=0140000000,3/108=0140000000) iop(3/107=0140
 000000,3/108=0140000000) CAM-B3LYP/6-31G(d,p)
 ----------------------------------------------------------------------

 --
 TD
 --
 Symbolic Z-matrix:
 Charge =  0 Multiplicity = 1

                         Standard orientation:
 ---------------------------------------------------------------------
 Center     Atomic      Atomic             Coordinates (Angstroms)
 Number     Number       Type             X           Y           Z
 ---------------------------------------------------------------------
      1         12           0       -5.514184    1.250955    0.172554
      2          6           0       -4.999546   -2.112252   -0.398492
      3          6           0       -3.279510    1.120636    2.705552
      4          6           0       -6.161512    4.566376    0.658181
      5          6           0       -7.965011    1.230139   -2.280298
      6          7           0       -4.288297   -0.250098    0.993754
      7          6           0       -4.263952   -1.643584    0.593816
      8          6           0       -3.268771   -2.425123    1.486633
      9          6           0       -2.971912   -1.369175    2.689806
     10          6           0       -3.596920   -0.078696    2.079746
     11          6           0       -3.611764   -1.763394    3.997568
     12          6           0       -2.015028   -2.864381    0.660807
     13          6           0       -1.027251   -3.727128    1.522321
     14          6           0        0.282778   -4.016996    0.623371
     15          8           0        0.496435   -3.522885   -0.494551
     16          8           0        1.088994   -4.926832    1.194522
     17          7           0       -4.859083    2.622839    1.427245
     18          6           0       -3.920248    2.406318    2.434566
     19          6           0       -3.621337    3.662235    3.216181
     20          6           0       -4.486368    4.589244    2.573890
     21          6           0       -5.136821    3.883996    1.488349
     22          6           0       -2.763410    3.837176    4.360373
     23          6           0       -4.554620    5.983235    3.039755
     24          8           0       -3.861784    6.624086    3.854250
     25          7           0       -6.875378    2.667501   -0.657055
     26          6           0       -6.854914    4.003026   -0.395156
     27          6           0       -7.795856    4.691045   -1.302991
     28          6           0       -8.367409    3.651257   -2.096841
     29          6           0       -7.730983    2.494227   -1.759535
     30          6           0       -8.181805    6.068948   -1.249612
     31          6           0       -9.447128    3.797663   -3.084324
     32          6           0       -8.843223    4.065187   -4.439924
     33          7           0       -6.299703   -0.056998   -1.157689
     34          6           0       -7.432146    0.033750   -2.098516
     35          6           0       -7.572456   -1.220096   -2.697471
     36          6           0       -6.677144   -2.104253   -2.059316
     37          6           0       -6.003465   -1.389385   -1.174446
     38          6           0       -8.719253   -1.497257   -3.746720
     39          6           0       -6.159687   -3.582312   -1.957222
     40          8           0       -6.636225   -4.533216   -2.564345
     41          6           0       -5.031512   -3.461108   -0.904703
     42          6           0       -5.322373   -4.647955    0.083013
     43          8           0       -5.670348   -4.422984    1.219013
     44          8           0       -4.953416   -5.788948   -0.450073
     45          6           0       -5.290537   -6.935699    0.489803
     46          6           0        2.332751   -5.123541    0.407111
     47          6           0        3.352294   -4.378995    0.910530
     48          6           0        4.081173   -3.429772    0.146444
     49          6           0        3.793421   -3.100399   -1.308941
     50          6           0        5.121245   -2.508193    0.890117
     51          6           0        6.495386   -2.816528    0.102589
     52          6           0        7.594725   -1.918552    0.811477
     53          6           0        8.957238   -1.933463   -0.050610
     54          6           0        9.731943   -3.365945   -0.057839
     55          6           0        9.958214   -0.882750    0.417219
     56          6           0       11.294734   -0.769317   -0.257542
     57          6           0       12.152838    0.416107    0.189656
     58          6           0       13.445432    0.490905   -0.674050
     59          6           0       14.308992   -0.737870   -0.414087
     60          6           0       14.118069    1.774789   -0.204687
     61          6           0       15.358429    2.203862   -1.007186
     62          6           0       15.917110    3.584340   -0.594479
     63          6           0       17.319162    3.966201   -1.311258
     64          6           0       17.223607    3.971915   -2.797013
     65          6           0       17.667817    5.415404   -0.699008
     66          1           0       -2.706724    1.137850    3.521005
     67          1           0       -6.198687    5.597632    1.027336
     68          1           0       -8.543111    1.182727   -3.074389
     69          1           0       -3.577388   -3.317753    1.926322
     70          1           0       -1.919562   -1.265247    3.022497
     71          1           0       -3.172777   -2.761074    4.375782
     72          1           0       -3.494836   -0.919367    4.565549
     73          1           0       -4.490363   -2.334260    3.725649
     74          1           0       -2.260123   -3.309111   -0.253284
     75          1           0       -1.470652   -1.905397    0.243388
     76          1           0       -0.760762   -3.177756    2.479381
     77          1           0       -1.307102   -4.702295    1.877198
     78          1           0       -1.934322    3.409915    4.197912
     79          1           0       -2.743922    4.848522    4.604262
     80          1           0       -3.178290    3.377009    5.296360
     81          1           0       -5.440766    6.477354    2.407651
     82          1           0      -10.027075    2.817059   -3.044990
     83          1           0      -10.204932    4.600699   -2.806811
     84          1           0       -9.485379    4.172947   -5.008943
     85          1           0       -8.332032    4.940958   -4.247696
     86          1           0       -8.278614    3.209786   -4.612924
     87          1           0       -8.589495   -0.764664   -4.486472
     88          1           0       -8.761692   -2.625086   -4.082854
     89          1           0       -9.693703   -1.369525   -3.200595
     90          1           0       -4.211589   -3.766251   -1.347010
     91          1           0        2.567915   -6.127551    0.507805
     92          1           0        2.109600   -4.944435   -0.716951
     93          1           0        3.777701   -4.601243    1.899049
     94          1           0        2.812749   -3.451140   -1.443327
     95          1           0        3.947158   -1.968958   -1.535434
     96          1           0        4.251620   -3.761751   -2.001141
     97          1           0        4.802733   -1.363207    0.705833
     98          1           0        5.343343   -2.998134    1.949798
     99          1           0        6.841976   -3.711897    0.243830
    100          1           0        6.274881   -2.544359   -0.981901
    101          1           0        7.313807   -0.854610    0.928802
    102          1           0        7.725726   -2.239369    1.882719
    103          1           0        8.833176   -1.822092   -1.180902
    104          1           0        9.152504   -4.262245   -0.362073
    105          1           0       10.578612   -3.428186   -0.854233
    106          1           0       10.003276   -3.810371    0.999683
    107          1           0        9.366892    0.057385    0.225312
    108          1           0       10.047260   -0.927065    1.506082
    109          1           0       11.871328   -1.751015   -0.177774
    110          1           0       11.243482   -0.731012   -1.408522
    111          1           0       11.598375    1.380658   -0.252137
    112          1           0       12.446951    0.268670    1.206434
    113          1           0       13.277361    0.487028   -1.785662
    114          1           0       14.523955   -0.791645    0.661558
    115          1           0       13.677957   -1.727220   -0.507956
    116          1           0       15.158266   -0.902140   -1.217612
    117          1           0       13.352011    2.586413   -0.380354
    118          1           0       14.618447    1.617111    0.788256
    119          1           0       16.194484    1.506790   -0.969780
    120          1           0       14.992039    2.353100   -2.023902
    121          1           0       15.130952    4.460597   -0.883030
    122          1           0       16.027107    3.594677    0.465002
    123          1           0       18.034383    3.135186   -0.932668
    124          1           0       16.512783    4.725250   -3.054746
    125          1           0       17.937666    4.518487   -3.276895
    126          1           0       16.871199    3.058799   -3.485841
    127          1           0       17.873121    5.290860    0.233603
    128          1           0       18.539300    5.792793   -1.297812
    129          1           0       16.877013    5.960204   -0.904736
    130          1           0       -4.993480   -7.687903    0.010654
    131          1           0       -6.406880   -6.890546    0.853456
    132          1           0       -4.969330   -6.617035    1.434120
    133          8           0       -7.786818    6.887678   -0.457395
    134          1           0       -8.943686    6.513941   -2.036377
 ---------------------------------------------------------------------

 SCF Done:  E(RCAM-B3LYP) =  -3043.39484005     A.U. after   15 cycles

 Excitation energies and oscillator strengths:

 Excited State   1:      Singlet-A      2.0066 eV  617.87 nm  f=0.2090  <S**2>=0.000
     243 -> 246       -0.19580
     244 -> 245        0.67219
 This state for optimization and/or second-order correction.
 Total Energy, E(TD-HF/TD-KS) =  -3043.32109734
 Copying the excited state density for this state as the 1-particle RhoCI density.

 The electronic state is 1-A.
 Alpha  occ. eigenvalues --  -46.81022 -19.24511 -19.22598 -19.18000 -19.17947
 Alpha  occ. eigenvalues --  -19.17859 -19.16983 -19.15752 -14.38775 -14.37422
 Alpha  occ. eigenvalues --  -14.36296 -14.35468 -10.35795 -10.35406 -10.32564
 Alpha  occ. eigenvalues --  -10.31380 -10.29486 -10.27901 -10.27729 -10.27456
 Alpha  occ. eigenvalues --  -10.27260 -10.26995 -10.26207 -10.26197 -10.25307
 Alpha  occ. eigenvalues --  -10.25166 -10.25139 -10.24962 -10.24895 -10.24776
 Alpha  occ. eigenvalues --  -10.24454 -10.24414 -10.24157 -10.24041 -10.24012
 Alpha  occ. eigenvalues --  -10.23801 -10.23573 -10.23515 -10.23491 -10.23464
 Alpha  occ. eigenvalues --  -10.23262 -10.23241 -10.23086 -10.23069 -10.22569
 Alpha  occ. eigenvalues --  -10.22462 -10.22239 -10.22204 -10.21690 -10.21668
 Alpha  occ. eigenvalues --  -10.21610 -10.21416 -10.21306 -10.21301 -10.21222
 Alpha  occ. eigenvalues --  -10.21194 -10.21009 -10.21002 -10.20899 -10.20677
 Alpha  occ. eigenvalues --  -10.20444 -10.20182 -10.19660 -10.19544 -10.18415
 Alpha  occ. eigenvalues --  -10.18320  -3.09660  -1.84595  -1.84120  -1.84090
 Alpha  occ. eigenvalues --   -1.15075  -1.12760  -1.07041  -1.06353  -1.06044
 Alpha  occ. eigenvalues --   -1.05371  -1.03360  -1.01425  -0.99576  -0.99057
 Alpha  occ. eigenvalues --   -0.98026  -0.89827  -0.86604  -0.85702  -0.85279
 Alpha  occ. eigenvalues --   -0.85004  -0.84849  -0.84293  -0.83791  -0.83352
 Alpha  occ. eigenvalues --   -0.82519  -0.82173  -0.81186  -0.80550  -0.79834
 Alpha  occ. eigenvalues --   -0.79394  -0.78646  -0.78354  -0.78131  -0.76780
 Alpha  occ. eigenvalues --   -0.76490  -0.74651  -0.74245  -0.73894  -0.73096
 Alpha  occ. eigenvalues --   -0.72480  -0.70713  -0.70070  -0.69847  -0.69642
 Alpha  occ. eigenvalues --   -0.69295  -0.67986  -0.67417  -0.66758  -0.65870
 Alpha  occ. eigenvalues --   -0.65600  -0.64192  -0.63666  -0.62398  -0.62165
 Alpha  occ. eigenvalues --   -0.61602  -0.61167  -0.59892  -0.59850  -0.58673
 Alpha  occ. eigenvalues --   -0.58273  -0.58150  -0.57928  -0.57453  -0.56989
 Alpha  occ. eigenvalues --   -0.56600  -0.56564  -0.55901  -0.55410  -0.55155
 Alpha  occ. eigenvalues --   -0.54459  -0.53337  -0.52927  -0.52703  -0.52155
 Alpha  occ. eigenvalues --   -0.52009  -0.51766  -0.51567  -0.50976  -0.50863
 Alpha  occ. eigenvalues --   -0.50502  -0.50358  -0.50218  -0.49819  -0.49596
 Alpha  occ. eigenvalues --   -0.49252  -0.49102  -0.48751  -0.48617  -0.48482
 Alpha  occ. eigenvalues --   -0.48188  -0.47803  -0.47565  -0.47544  -0.47167
 Alpha  occ. eigenvalues --   -0.46857  -0.46680  -0.46585  -0.46414  -0.45948
 Alpha  occ. eigenvalues --   -0.45567  -0.45483  -0.45408  -0.45319  -0.45080
 Alpha  occ. eigenvalues --   -0.44830  -0.44276  -0.44179  -0.43884  -0.43729
 Alpha  occ. eigenvalues --   -0.43695  -0.43471  -0.43273  -0.43150  -0.42937
 Alpha  occ. eigenvalues --   -0.42554  -0.42431  -0.42246  -0.42042  -0.41762
 Alpha  occ. eigenvalues --   -0.41686  -0.41495  -0.41220  -0.41204  -0.41041
 Alpha  occ. eigenvalues --   -0.40978  -0.40841  -0.40671  -0.40557  -0.40404
 Alpha  occ. eigenvalues --   -0.40221  -0.40032  -0.39896  -0.39582  -0.39381
 Alpha  occ. eigenvalues --   -0.38999  -0.38710  -0.38566  -0.38482  -0.38077
 Alpha  occ. eigenvalues --   -0.37835  -0.37806  -0.37356  -0.37333  -0.36952
 Alpha  occ. eigenvalues --   -0.36598  -0.36438  -0.36018  -0.35856  -0.35680
 Alpha  occ. eigenvalues --   -0.35674  -0.35458  -0.34956  -0.34858  -0.34495
 Alpha  occ. eigenvalues --   -0.34457  -0.34294  -0.33682  -0.33531  -0.33436
 Alpha  occ. eigenvalues --   -0.32979  -0.32666  -0.32116  -0.31974  -0.31711
 Alpha  occ. eigenvalues --   -0.31430  -0.31035  -0.30232  -0.30070  -0.29855
 Alpha  occ. eigenvalues --   -0.28789  -0.28076  -0.27648  -0.27535  -0.26785
 Alpha  occ. eigenvalues --   -0.26694  -0.25773  -0.23920  -0.21350
 Alpha virt. eigenvalues --   -0.08810  -0.06629  -0.01244  -0.00432   0.01256
 Alpha virt. eigenvalues --    0.01934   0.03775   0.03839   0.03976   0.04438
 Alpha virt. eigenvalues --    0.04933   0.05979   0.08439   0.08925   0.09539

 Mulliken charges:
               1
     1  Mg   0.816310
     2  C    0.112138
     3  C   -0.168336
     4  C   -0.160256
     5  C   -0.177156
     6  N   -0.649502
     7  C    0.257220
     8  C   -0.140002
     9  C   -0.165332
    10  C    0.402110
    11  C   -0.300029
    12  C   -0.173826
    13  C   -0.274681
    14  C    0.603248
    15  O   -0.482019
    16  O   -0.460159
    17  N   -0.699542
    18  C    0.244277
    19  C    0.060971
    20  C   -0.044235
    21  C    0.325852
    22  C   -0.377135
    23  C    0.258516
    24  O   -0.435768
    25  N   -0.680468
    26  C    0.325583
    27  C   -0.028826
    28  C    0.072074
    29  C    0.309134
    30  C    0.215123
    31  C   -0.282734
    32  C   -0.247159
    33  N   -0.732015
    34  C    0.297617
    35  C   -0.041156
    36  C   -0.002001
    37  C    0.329716
    38  C   -0.366213
    39  C    0.383164
    40  O   -0.450940
    41  C   -0.330092
    42  C    0.618244
    43  O   -0.478870
    44  O   -0.438653
    45  C   -0.083675
    46  C   -0.023561
    47  C   -0.103872
    48  C    0.112560
    49  C   -0.378115
    50  C   -0.227055
    51  C   -0.166119
    52  C   -0.193509
    53  C   -0.044623
    54  C   -0.327651
    55  C   -0.153254
    56  C   -0.184927
    57  C   -0.148886
    58  C   -0.060000
    59  C   -0.310833
    60  C   -0.149213
    61  C   -0.189215
    62  C   -0.161148
    63  C   -0.072177
    64  C   -0.303098
    65  C   -0.303044
    66  H    0.061587
    67  H    0.120969
    68  H    0.056478
    69  H    0.115969
    70  H    0.106117
    71  H    0.093047
    72  H    0.116998
    73  H    0.135555
    74  H    0.122967
    75  H    0.113950
    76  H    0.130344
    77  H    0.135314
    78  H    0.131352
    79  H    0.167123
    80  H    0.125420
    81  H    0.056682
    82  H    0.096073
    83  H    0.108918
    84  H    0.103860
    85  H    0.117977
    86  H    0.106568
    87  H    0.131470
    88  H    0.137987
    89  H    0.130401
    90  H    0.168926
    91  H    0.113678
    92  H    0.127438
    93  H    0.081231
    94  H    0.150107
    95  H    0.107034
    96  H    0.130674
    97  H    0.104983
    98  H    0.090224
    99  H    0.119924
   100  H    0.098664
   101  H    0.090144
   102  H    0.090472
   103  H    0.081906
   104  H    0.088487
   105  H    0.096521
   106  H    0.081639
   107  H    0.078305
   108  H    0.087724
   109  H    0.091110
   110  H    0.072897
   111  H    0.081822
   112  H    0.100156
   113  H    0.078005
   114  H    0.099722
   115  H    0.083374
   116  H    0.094573
   117  H    0.084482
   118  H    0.083417
   119  H    0.092924
   120  H    0.088973
   121  H    0.054703
   122  H    0.087696
   123  H    0.070666
   124  H    0.096650
   125  H    0.104921
   126  H    0.093554
   127  H    0.116561
   128  H    0.088145
   129  H    0.117813
   130  H    0.129094
   131  H    0.132389
   132  H    0.153765
   133  O   -0.417304
   134  H    0.035909
 Sum of Mulliken charges =   0.00000

 Dipole moment (field-independent basis, Debye):
    X=              2.3194    Y=             -7.2016    Z=             -0.4566  Tot=              7.5796
 Quadrupole moment (field-independent basis, Debye-Ang):
   XX=           -390.9040   YY=           -434.4015   ZZ=           -388.6699
   XY=             23.1093   XZ=             17.3269   YZ=            -34.8006

 Normal termination of Gaussian 09 at Thu Oct  3 21:47:57 2019.
