 Gaussian 09, Revision D.01,
 Gaussian 09:  ES64L-G09RevD.01 24-Apr-2013

 ----------------------------------------------------------------------
 # td=(NStates=1) iop(3/107=0140000000,3/108=0140000000) iop(3/107=0140
 000000,3/108=0140000000) CAM-B3LYP/6-31G(d,p)
 ----------------------------------------------------------------------

 --
 TD
 --
 Symbolic Z-matrix:
 Charge =  0 Multiplicity = 1

                         Standard orientation:
 ---------------------------------------------------------------------
 Center     Atomic      Atomic             Coordinates (Angstroms)
 Number     Number       Type             X           Y           Z
 ---------------------------------------------------------------------
      1         12           0       -5.672047    1.144082    0.191663
      2          6           0       -4.976542   -2.086185   -0.413575
      3          6           0       -3.370804    1.228140    2.759361
      4          6           0       -6.393989    4.536523    0.660881
      5          6           0       -7.959240    1.095187   -2.392630
      6          7           0       -4.273365   -0.297352    0.998444
      7          6           0       -4.172346   -1.646801    0.609408
      8          6           0       -3.199277   -2.269494    1.457220
      9          6           0       -2.860033   -1.341542    2.595438
     10          6           0       -3.509847    0.026516    2.130394
     11          6           0       -3.431737   -1.842735    3.996184
     12          6           0       -1.852018   -2.647424    0.676270
     13          6           0       -0.908321   -3.516517    1.523773
     14          6           0        0.333600   -3.996261    0.681110
     15          8           0        0.522990   -3.572776   -0.444404
     16          8           0        1.152486   -4.742689    1.404915
     17          7           0       -5.001901    2.578453    1.462208
     18          6           0       -4.110067    2.441350    2.611357
     19          6           0       -3.800837    3.641001    3.275504
     20          6           0       -4.674459    4.653323    2.659201
     21          6           0       -5.316173    3.922308    1.485930
     22          6           0       -2.930331    3.762219    4.417000
     23          6           0       -4.809718    6.131184    2.963783
     24          8           0       -4.261884    6.609300    3.862703
     25          7           0       -6.920326    2.585842   -0.747484
     26          6           0       -7.043388    3.851721   -0.360248
     27          6           0       -8.024863    4.515719   -1.232976
     28          6           0       -8.453368    3.567368   -2.041936
     29          6           0       -7.735162    2.376577   -1.765816
     30          6           0       -8.437185    5.854151   -1.121718
     31          6           0       -9.512229    3.748481   -3.251499
     32          6           0       -8.857784    4.006817   -4.545616
     33          7           0       -6.308378   -0.081950   -1.162228
     34          6           0       -7.275504   -0.104393   -2.187547
     35          6           0       -7.432214   -1.340574   -2.776448
     36          6           0       -6.520109   -2.189850   -2.089448
     37          6           0       -5.876156   -1.380436   -1.139749
     38          6           0       -8.332142   -1.757203   -3.995293
     39          6           0       -6.071397   -3.536296   -2.116481
     40          8           0       -6.407708   -4.502296   -2.732165
     41          6           0       -4.962316   -3.583564   -0.972237
     42          6           0       -5.246349   -4.712302    0.017000
     43          8           0       -5.633423   -4.383320    1.124178
     44          8           0       -4.974372   -5.858029   -0.376691
     45          6           0       -5.301747   -6.874749    0.537254
     46          6           0        2.391204   -5.111426    0.699828
     47          6           0        3.487402   -4.106491    1.110749
     48          6           0        4.105621   -3.248852    0.244038
     49          6           0        3.796445   -3.258087   -1.298432
     50          6           0        5.117843   -2.355125    0.795081
     51          6           0        6.447831   -2.774578    0.188760
     52          6           0        7.574459   -1.761779    0.658011
     53          6           0        8.989584   -1.951759   -0.024930
     54          6           0        9.547279   -3.295420    0.199363
     55          6           0        9.964299   -0.823024    0.480432
     56          6           0       11.334132   -0.764881   -0.192676
     57          6           0       12.175528    0.410823    0.085890
     58          6           0       13.585380    0.551134   -0.591045
     59          6           0       14.485193   -0.638718   -0.251444
     60          6           0       14.142647    1.919686   -0.128243
     61          6           0       15.362453    2.302345   -0.916202
     62          6           0       16.012225    3.594152   -0.622623
     63          6           0       17.277560    3.924125   -1.481627
     64          6           0       16.849914    3.929799   -2.973744
     65          6           0       17.963216    5.189442   -1.060092
     66          1           0       -2.777098    1.149707    3.647803
     67          1           0       -6.674882    5.562546    0.888905
     68          1           0       -8.471400    1.028090   -3.230626
     69          1           0       -3.704773   -3.181804    1.852708
     70          1           0       -1.698291   -1.211866    2.932740
     71          1           0       -2.696812   -2.689027    4.375372
     72          1           0       -3.182809   -1.188674    4.906776
     73          1           0       -4.613675   -2.172589    3.993772
     74          1           0       -2.159413   -3.081823   -0.191458
     75          1           0       -1.286896   -1.644598    0.481185
     76          1           0       -0.337745   -3.079951    2.377154
     77          1           0       -1.502820   -4.221080    1.994145
     78          1           0       -2.034309    3.683672    4.086879
     79          1           0       -3.052630    4.820709    5.028238
     80          1           0       -3.305522    2.792872    5.083980
     81          1           0       -5.410953    6.589753    2.164261
     82          1           0      -10.097165    2.905589   -3.157510
     83          1           0      -10.127268    4.642686   -3.124411
     84          1           0       -9.723015    3.983297   -5.308803
     85          1           0       -8.198656    4.869516   -4.473647
     86          1           0       -8.289936    3.187083   -4.875360
     87          1           0       -8.179520   -1.116548   -5.060457
     88          1           0       -8.444852   -2.963297   -4.333442
     89          1           0       -9.349904   -1.622236   -3.693884
     90          1           0       -4.211336   -3.684963   -1.451008
     91          1           0        2.647174   -6.127251    1.034911
     92          1           0        2.168910   -4.983606   -0.544199
     93          1           0        3.822713   -4.132564    2.190186
     94          1           0        2.836827   -3.391566   -1.396420
     95          1           0        4.158508   -2.223487   -1.384328
     96          1           0        4.422048   -3.955502   -1.791511
     97          1           0        4.986317   -1.358635    0.470372
     98          1           0        5.379060   -2.177890    1.847798
     99          1           0        6.609785   -3.716644    0.300594
    100          1           0        6.472681   -2.732757   -0.898155
    101          1           0        7.390797   -0.577032    0.337108
    102          1           0        7.689547   -1.842342    1.726086
    103          1           0        9.089821   -1.954464   -1.175758
    104          1           0        8.821227   -4.133981   -0.021093
    105          1           0       10.452586   -3.466713   -0.494396
    106          1           0       10.079081   -3.443407    1.201436
    107          1           0        9.489273    0.095876    0.479311
    108          1           0       10.172062   -0.707287    1.633876
    109          1           0       11.787992   -1.554437   -0.204870
    110          1           0       10.998358   -0.727573   -1.235132
    111          1           0       11.303884    1.260463   -0.018420
    112          1           0       12.591132    0.320435    1.061051
    113          1           0       13.334938    0.543437   -1.707719
    114          1           0       14.761503   -0.726671    0.730565
    115          1           0       14.195355   -1.781221   -0.663376
    116          1           0       15.455102   -0.483220   -0.752212
    117          1           0       13.388247    2.561449   -0.504842
    118          1           0       14.221405    2.050178    1.037839
    119          1           0       16.324516    1.711330   -0.929448
    120          1           0       15.203798    2.478304   -1.953599
    121          1           0       15.299986    4.310577   -0.857979
    122          1           0       16.226744    3.788896    0.431139
    123          1           0       17.993578    3.123020   -1.368901
    124          1           0       15.966084    4.735152   -3.185281
    125          1           0       17.613027    4.200727   -3.401322
    126          1           0       16.586275    2.886196   -3.382967
    127          1           0       18.376149    4.869729   -0.013550
    128          1           0       18.892364    5.370327   -1.776820
    129          1           0       17.399221    6.069172   -1.201626
    130          1           0       -5.239132   -7.856001   -0.068944
    131          1           0       -6.286942   -6.840443    0.981834
    132          1           0       -4.430452   -6.540255    1.448241
    133          8           0       -7.855334    6.786612   -0.463778
    134          1           0       -9.386522    6.202517   -1.497064
 ---------------------------------------------------------------------

 SCF Done:  E(RCAM-B3LYP) =  -3043.31958110     A.U. after   16 cycles

 Excitation energies and oscillator strengths:

 Excited State   1:      Singlet-A      1.9508 eV  635.54 nm  f=0.1821  <S**2>=0.000
     243 -> 246        0.25425
     244 -> 245        0.64907
 This state for optimization and/or second-order correction.
 Total Energy, E(TD-HF/TD-KS) =  -3043.24788932
 Copying the excited state density for this state as the 1-particle RhoCI density.

 The electronic state is 1-A.
 Alpha  occ. eigenvalues --  -46.80801 -19.25062 -19.23133 -19.17277 -19.17067
 Alpha  occ. eigenvalues --  -19.17049 -19.16312 -19.16045 -14.38232 -14.36862
 Alpha  occ. eigenvalues --  -14.36634 -14.36096 -10.35131 -10.34767 -10.30681
 Alpha  occ. eigenvalues --  -10.30437 -10.29934 -10.29673 -10.29024 -10.27088
 Alpha  occ. eigenvalues --  -10.26975 -10.26900 -10.26255 -10.26127 -10.25831
 Alpha  occ. eigenvalues --  -10.25721 -10.25637 -10.25577 -10.25508 -10.25271
 Alpha  occ. eigenvalues --  -10.24458 -10.24017 -10.23813 -10.23681 -10.23502
 Alpha  occ. eigenvalues --  -10.23368 -10.23317 -10.23256 -10.23234 -10.23137
 Alpha  occ. eigenvalues --  -10.23105 -10.22922 -10.22846 -10.22599 -10.22534
 Alpha  occ. eigenvalues --  -10.22494 -10.22449 -10.22348 -10.22032 -10.21972
 Alpha  occ. eigenvalues --  -10.21651 -10.21545 -10.21538 -10.21321 -10.21211
 Alpha  occ. eigenvalues --  -10.21006 -10.20951 -10.20863 -10.20622 -10.20606
 Alpha  occ. eigenvalues --  -10.20212 -10.20166 -10.19795 -10.19557 -10.18714
 Alpha  occ. eigenvalues --  -10.17868  -3.09437  -1.84365  -1.83924  -1.83848
 Alpha  occ. eigenvalues --   -1.19342  -1.13926  -1.10233  -1.08233  -1.05361
 Alpha  occ. eigenvalues --   -1.04892  -1.03334  -1.01892  -0.99818  -0.97799
 Alpha  occ. eigenvalues --   -0.96231  -0.88634  -0.86658  -0.85974  -0.85402
 Alpha  occ. eigenvalues --   -0.84864  -0.84755  -0.84358  -0.83319  -0.83195
 Alpha  occ. eigenvalues --   -0.83138  -0.81895  -0.80910  -0.80743  -0.80086
 Alpha  occ. eigenvalues --   -0.79862  -0.78721  -0.78123  -0.77306  -0.76858
 Alpha  occ. eigenvalues --   -0.75739  -0.74562  -0.73842  -0.73333  -0.71991
 Alpha  occ. eigenvalues --   -0.71631  -0.71503  -0.71076  -0.70165  -0.69806
 Alpha  occ. eigenvalues --   -0.69429  -0.68777  -0.67095  -0.66341  -0.66208
 Alpha  occ. eigenvalues --   -0.65659  -0.65117  -0.64074  -0.63509  -0.61745
 Alpha  occ. eigenvalues --   -0.61404  -0.61238  -0.60843  -0.59898  -0.59219
 Alpha  occ. eigenvalues --   -0.58924  -0.58483  -0.57819  -0.57644  -0.56956
 Alpha  occ. eigenvalues --   -0.56540  -0.56146  -0.55379  -0.55267  -0.54959
 Alpha  occ. eigenvalues --   -0.54512  -0.53677  -0.53451  -0.52647  -0.52022
 Alpha  occ. eigenvalues --   -0.51946  -0.51694  -0.51595  -0.51583  -0.50976
 Alpha  occ. eigenvalues --   -0.50695  -0.50476  -0.50292  -0.49783  -0.49022
 Alpha  occ. eigenvalues --   -0.48872  -0.48508  -0.48019  -0.47877  -0.47605
 Alpha  occ. eigenvalues --   -0.47480  -0.47404  -0.47212  -0.47082  -0.46800
 Alpha  occ. eigenvalues --   -0.46744  -0.46553  -0.46375  -0.46092  -0.45752
 Alpha  occ. eigenvalues --   -0.45568  -0.45375  -0.45223  -0.44760  -0.44690
 Alpha  occ. eigenvalues --   -0.44234  -0.44169  -0.44030  -0.43789  -0.43645
 Alpha  occ. eigenvalues --   -0.43506  -0.43374  -0.43226  -0.43061  -0.42649
 Alpha  occ. eigenvalues --   -0.42426  -0.42267  -0.42199  -0.41991  -0.41914
 Alpha  occ. eigenvalues --   -0.41747  -0.41629  -0.41428  -0.41149  -0.40892
 Alpha  occ. eigenvalues --   -0.40689  -0.40503  -0.40257  -0.40207  -0.39949
 Alpha  occ. eigenvalues --   -0.39775  -0.39542  -0.39478  -0.39165  -0.38948
 Alpha  occ. eigenvalues --   -0.38838  -0.38340  -0.38098  -0.37908  -0.37749
 Alpha  occ. eigenvalues --   -0.37591  -0.37362  -0.37036  -0.36954  -0.36672
 Alpha  occ. eigenvalues --   -0.36558  -0.36259  -0.36042  -0.35829  -0.35590
 Alpha  occ. eigenvalues --   -0.35332  -0.35050  -0.35010  -0.34841  -0.34448
 Alpha  occ. eigenvalues --   -0.34216  -0.33886  -0.33640  -0.33606  -0.33343
 Alpha  occ. eigenvalues --   -0.33093  -0.32693  -0.32513  -0.32169  -0.31693
 Alpha  occ. eigenvalues --   -0.31032  -0.30461  -0.30281  -0.30230  -0.29763
 Alpha  occ. eigenvalues --   -0.29314  -0.28206  -0.27634  -0.27437  -0.27291
 Alpha  occ. eigenvalues --   -0.26658  -0.26565  -0.22534  -0.21423
 Alpha virt. eigenvalues --   -0.08853  -0.06322  -0.01603  -0.00379   0.01408
 Alpha virt. eigenvalues --    0.03570   0.03862   0.04406   0.04714   0.05119
 Alpha virt. eigenvalues --    0.05321   0.06499   0.07783   0.08169   0.09275

 Mulliken charges:
               1
     1  Mg   0.825103
     2  C    0.029347
     3  C   -0.167820
     4  C   -0.160604
     5  C   -0.156295
     6  N   -0.656278
     7  C    0.334270
     8  C   -0.187739
     9  C   -0.128357
    10  C    0.339906
    11  C   -0.311366
    12  C   -0.152398
    13  C   -0.269455
    14  C    0.602875
    15  O   -0.470339
    16  O   -0.441970
    17  N   -0.664799
    18  C    0.256622
    19  C    0.062498
    20  C   -0.082205
    21  C    0.273150
    22  C   -0.366941
    23  C    0.271407
    24  O   -0.384372
    25  N   -0.678457
    26  C    0.316347
    27  C    0.036962
    28  C   -0.023390
    29  C    0.299405
    30  C    0.191114
    31  C   -0.215253
    32  C   -0.302438
    33  N   -0.767199
    34  C    0.258937
    35  C    0.057747
    36  C    0.028435
    37  C    0.362468
    38  C   -0.378461
    39  C    0.311997
    40  O   -0.446202
    41  C   -0.273733
    42  C    0.605666
    43  O   -0.498988
    44  O   -0.357876
    45  C   -0.092724
    46  C   -0.028930
    47  C   -0.120907
    48  C    0.085769
    49  C   -0.347219
    50  C   -0.226439
    51  C   -0.184925
    52  C   -0.176923
    53  C   -0.053593
    54  C   -0.303013
    55  C   -0.176049
    56  C   -0.151517
    57  C   -0.155513
    58  C   -0.075517
    59  C   -0.314190
    60  C   -0.160398
    61  C   -0.176669
    62  C   -0.165836
    63  C   -0.073811
    64  C   -0.284951
    65  C   -0.297456
    66  H    0.077166
    67  H    0.141098
    68  H    0.069026
    69  H    0.136468
    70  H    0.089665
    71  H    0.091828
    72  H    0.102794
    73  H    0.114764
    74  H    0.121561
    75  H    0.111397
    76  H    0.131608
    77  H    0.131752
    78  H    0.145785
    79  H    0.142019
    80  H    0.099255
    81  H    0.079969
    82  H    0.115792
    83  H    0.110734
    84  H    0.099551
    85  H    0.122031
    86  H    0.116228
    87  H    0.105933
    88  H    0.130798
    89  H    0.138921
    90  H    0.138350
    91  H    0.119263
    92  H    0.118868
    93  H    0.079557
    94  H    0.153294
    95  H    0.110401
    96  H    0.128924
    97  H    0.108330
    98  H    0.103009
    99  H    0.111966
   100  H    0.096024
   101  H    0.068847
   102  H    0.105062
   103  H    0.082273
   104  H    0.093591
   105  H    0.087260
   106  H    0.093304
   107  H    0.088619
   108  H    0.059994
   109  H    0.090521
   110  H    0.074245
   111  H    0.058878
   112  H    0.087844
   113  H    0.079130
   114  H    0.115670
   115  H    0.074181
   116  H    0.110910
   117  H    0.111530
   118  H    0.084815
   119  H    0.077561
   120  H    0.102612
   121  H    0.084898
   122  H    0.069246
   123  H    0.086811
   124  H    0.074984
   125  H    0.103248
   126  H    0.094972
   127  H    0.097871
   128  H    0.077571
   129  H    0.115617
   130  H    0.128552
   131  H    0.156065
   132  H    0.098925
   133  O   -0.454798
   134  H    0.084547
 Sum of Mulliken charges =   0.00000

 Dipole moment (field-independent basis, Debye):
    X=              2.3132    Y=             -5.7034    Z=             -1.0031  Tot=              6.2359
 Quadrupole moment (field-independent basis, Debye-Ang):
   XX=           -354.4276   YY=           -429.3759   ZZ=           -393.7699
   XY=             18.7227   XZ=             19.6548   YZ=            -29.6478

 Normal termination of Gaussian 09 at Fri Oct  4 13:11:57 2019.
