 Gaussian 09, Revision D.01,
 Gaussian 09:  ES64L-G09RevD.01 24-Apr-2013

 ----------------------------------------------------------------------
 # td=(NStates=1) iop(3/107=0140000000,3/108=0140000000) iop(3/107=0140
 000000,3/108=0140000000) CAM-B3LYP/6-31G(d,p)
 ----------------------------------------------------------------------

 --
 TD
 --
 Symbolic Z-matrix:
 Charge =  0 Multiplicity = 1

                         Standard orientation:
 ---------------------------------------------------------------------
 Center     Atomic      Atomic             Coordinates (Angstroms)
 Number     Number       Type             X           Y           Z
 ---------------------------------------------------------------------
      1         12           0       -5.650451    1.209406    0.212815
      2          6           0       -5.008632   -2.242751   -0.423765
      3          6           0       -3.440782    1.192542    2.700763
      4          6           0       -6.332963    4.472870    0.649976
      5          6           0       -8.073414    1.151962   -2.306465
      6          7           0       -4.501827   -0.330952    1.019827
      7          6           0       -4.240128   -1.542964    0.567704
      8          6           0       -3.126492   -2.252545    1.411428
      9          6           0       -2.937364   -1.258612    2.576641
     10          6           0       -3.609403   -0.022648    2.032854
     11          6           0       -3.496311   -1.854428    3.909921
     12          6           0       -1.819398   -2.512351    0.583366
     13          6           0       -0.884296   -3.453085    1.347986
     14          6           0        0.345244   -3.824724    0.542384
     15          8           0        0.619756   -3.362602   -0.560498
     16          8           0        1.143055   -4.631077    1.321094
     17          7           0       -5.090908    2.620888    1.472278
     18          6           0       -4.099692    2.402574    2.440939
     19          6           0       -3.728534    3.722759    3.051520
     20          6           0       -4.633141    4.642968    2.571652
     21          6           0       -5.451118    3.952649    1.531923
     22          6           0       -2.796006    3.777133    4.212167
     23          6           0       -4.762780    6.033192    2.936461
     24          8           0       -4.106881    6.540229    3.855472
     25          7           0       -6.977130    2.543444   -0.638840
     26          6           0       -6.979427    3.812599   -0.309639
     27          6           0       -7.925035    4.611926   -1.283562
     28          6           0       -8.517685    3.611883   -2.006187
     29          6           0       -7.867069    2.347020   -1.629925
     30          6           0       -8.271948    6.062581   -1.248354
     31          6           0       -9.556788    3.787313   -3.134042
     32          6           0       -8.885041    4.028035   -4.491437
     33          7           0       -6.473505   -0.145443   -1.027032
     34          6           0       -7.547198   -0.099382   -1.920922
     35          6           0       -7.680215   -1.387085   -2.628514
     36          6           0       -6.709509   -2.206208   -2.050449
     37          6           0       -6.028680   -1.479794   -1.063236
     38          6           0       -8.627708   -1.730361   -3.712707
     39          6           0       -6.250922   -3.602981   -2.056100
     40          8           0       -6.575098   -4.635417   -2.717469
     41          6           0       -5.001441   -3.611258   -0.981525
     42          6           0       -5.187180   -4.715066    0.007587
     43          8           0       -5.576346   -4.539940    1.189097
     44          8           0       -4.923172   -5.901291   -0.481933
     45          6           0       -5.293817   -7.038596    0.395083
     46          6           0        2.414515   -4.997265    0.642242
     47          6           0        3.487985   -4.117642    1.133351
     48          6           0        4.158462   -3.271482    0.306146
     49          6           0        3.673992   -2.986372   -1.073796
     50          6           0        5.293652   -2.465490    0.854898
     51          6           0        6.578442   -2.661988    0.197121
     52          6           0        7.763923   -1.847138    0.607516
     53          6           0        9.144521   -1.981443   -0.066037
     54          6           0        9.718614   -3.432416    0.248550
     55          6           0       10.022702   -0.924991    0.466489
     56          6           0       11.483341   -0.930014   -0.141713
     57          6           0       12.261821    0.290898    0.198553
     58          6           0       13.569352    0.462643   -0.602714
     59          6           0       14.435759   -0.714606   -0.348003
     60          6           0       14.352479    1.710485   -0.091737
     61          6           0       15.568234    2.128055   -1.017677
     62          6           0       16.056618    3.694569   -0.705939
     63          6           0       17.316176    3.992616   -1.514455
     64          6           0       17.028214    4.139504   -2.978165
     65          6           0       17.876834    5.339243   -1.032043
     66          1           0       -2.746111    1.146699    3.435579
     67          1           0       -6.368883    5.614183    0.583148
     68          1           0       -8.553905    1.292183   -3.261916
     69          1           0       -3.689185   -3.267580    1.908727
     70          1           0       -1.707767   -0.951637    2.713545
     71          1           0       -2.966863   -2.758643    4.207687
     72          1           0       -3.370253   -1.148327    4.687348
     73          1           0       -4.630924   -2.029862    3.774150
     74          1           0       -2.054813   -2.577471   -0.541287
     75          1           0       -1.348016   -1.310785    0.486946
     76          1           0       -0.504099   -2.816337    2.204128
     77          1           0       -1.476307   -4.292263    1.796844
     78          1           0       -1.826013    3.403474    4.078119
     79          1           0       -2.707277    4.744980    4.585855
     80          1           0       -3.346645    3.249891    5.238868
     81          1           0       -5.607789    6.710299    2.427063
     82          1           0      -10.257705    3.020079   -3.298074
     83          1           0      -10.141009    4.841061   -2.755048
     84          1           0       -9.588836    4.130543   -5.354537
     85          1           0       -8.146658    4.874863   -4.372391
     86          1           0       -8.074434    3.253263   -4.713945
     87          1           0       -8.514072   -1.276948   -4.831865
     88          1           0       -8.511555   -2.782657   -3.816125
     89          1           0       -9.652467   -1.612896   -3.259449
     90          1           0       -4.185381   -3.817275   -1.573045
     91          1           0        2.279981   -6.148927    0.967859
     92          1           0        2.200841   -4.841268   -0.455484
     93          1           0        3.707195   -4.131272    2.145844
     94          1           0        2.852438   -3.334434   -1.406393
     95          1           0        3.635775   -1.846027   -1.170282
     96          1           0        4.363698   -3.215074   -1.717375
     97          1           0        4.985192   -1.422245    0.733960
     98          1           0        5.455199   -2.674622    1.919084
     99          1           0        6.867987   -3.669304    0.020159
    100          1           0        6.473485   -2.465632   -0.996823
    101          1           0        7.401729   -0.858932    0.549717
    102          1           0        8.185005   -2.079730    1.544854
    103          1           0        9.129544   -1.840233   -1.242226
    104          1           0        9.132362   -4.166103   -0.376544
    105          1           0       10.874090   -3.662504   -0.066919
    106          1           0        9.632303   -3.587637    1.292418
    107          1           0        9.698699   -0.003824    0.337284
    108          1           0       10.033373   -1.129365    1.593351
    109          1           0       12.009308   -1.673944    0.146730
    110          1           0       11.580534   -0.949550   -1.173569
    111          1           0       11.560506    1.068854   -0.105337
    112          1           0       12.480503    0.057859    1.297681
    113          1           0       13.239209    0.735855   -1.737190
    114          1           0       14.750018   -0.780229    0.722521
    115          1           0       13.992340   -1.714625   -0.483023
    116          1           0       15.512371   -0.694565   -0.947408
    117          1           0       13.695592    2.690650    0.044624
    118          1           0       14.788487    1.502503    1.101439
    119          1           0       16.348751    1.416068   -0.920886
    120          1           0       15.213050    2.262872   -1.959205
    121          1           0       15.153664    4.338466   -0.857386
    122          1           0       16.495291    3.828922    0.164079
    123          1           0       17.933565    3.146936   -1.047016
    124          1           0       16.079250    4.866264   -2.977883
    125          1           0       17.816829    4.403643   -3.623063
    126          1           0       16.495033    3.183883   -3.251204
    127          1           0       18.010790    5.183831    0.100681
    128          1           0       19.062182    5.482616   -1.387361
    129          1           0       17.346682    6.215204   -1.298505
    130          1           0       -4.781638   -7.873987   -0.173887
    131          1           0       -6.315305   -7.405865    0.497559
    132          1           0       -4.769631   -7.004246    1.307202
    133          8           0       -7.994932    6.798764   -0.297914
    134          1           0       -8.895947    6.459132   -2.099290
 ---------------------------------------------------------------------

 SCF Done:  E(RCAM-B3LYP) =  -3043.46855110     A.U. after   16 cycles

 Excitation energies and oscillator strengths:

 Excited State   1:      Singlet-A      1.9325 eV  641.56 nm  f=0.2392  <S**2>=0.000
     243 -> 246        0.23140
     244 -> 245        0.66101
 This state for optimization and/or second-order correction.
 Total Energy, E(TD-HF/TD-KS) =  -3043.39753199
 Copying the excited state density for this state as the 1-particle RhoCI density.

 The electronic state is 1-A.
 Alpha  occ. eigenvalues --  -46.80778 -19.23741 -19.21600 -19.17978 -19.17801
 Alpha  occ. eigenvalues --  -19.17652 -19.16751 -19.16090 -14.39445 -14.37244
 Alpha  occ. eigenvalues --  -14.37111 -14.36642 -10.35156 -10.34936 -10.32605
 Alpha  occ. eigenvalues --  -10.31661 -10.30640 -10.27902 -10.27818 -10.27814
 Alpha  occ. eigenvalues --  -10.27638 -10.27164 -10.26354 -10.26287 -10.26212
 Alpha  occ. eigenvalues --  -10.26039 -10.25798 -10.25432 -10.25318 -10.25198
 Alpha  occ. eigenvalues --  -10.25157 -10.25099 -10.24988 -10.24771 -10.24718
 Alpha  occ. eigenvalues --  -10.24684 -10.24289 -10.23952 -10.23715 -10.23535
 Alpha  occ. eigenvalues --  -10.23519 -10.23288 -10.23244 -10.23169 -10.23088
 Alpha  occ. eigenvalues --  -10.22630 -10.22611 -10.22541 -10.22520 -10.22339
 Alpha  occ. eigenvalues --  -10.22220 -10.21849 -10.21816 -10.21693 -10.21634
 Alpha  occ. eigenvalues --  -10.21518 -10.21223 -10.20924 -10.20658 -10.20422
 Alpha  occ. eigenvalues --  -10.20338 -10.20231 -10.20162 -10.19871 -10.18649
 Alpha  occ. eigenvalues --  -10.17945  -3.09616  -1.84533  -1.84102  -1.84034
 Alpha  occ. eigenvalues --   -1.13983  -1.11748  -1.06669  -1.05390  -1.04478
 Alpha  occ. eigenvalues --   -1.04168  -1.02498  -1.01365  -1.00932  -0.98516
 Alpha  occ. eigenvalues --   -0.98021  -0.88588  -0.87421  -0.86207  -0.85898
 Alpha  occ. eigenvalues --   -0.84952  -0.84823  -0.84521  -0.84156  -0.83710
 Alpha  occ. eigenvalues --   -0.83103  -0.82813  -0.81584  -0.80924  -0.79939
 Alpha  occ. eigenvalues --   -0.78667  -0.78416  -0.78114  -0.77440  -0.76429
 Alpha  occ. eigenvalues --   -0.75357  -0.75152  -0.74033  -0.73675  -0.72517
 Alpha  occ. eigenvalues --   -0.72023  -0.70859  -0.70626  -0.69608  -0.69243
 Alpha  occ. eigenvalues --   -0.69082  -0.68700  -0.67391  -0.66397  -0.66008
 Alpha  occ. eigenvalues --   -0.65943  -0.64892  -0.64330  -0.62803  -0.62238
 Alpha  occ. eigenvalues --   -0.61292  -0.60783  -0.60062  -0.59563  -0.58765
 Alpha  occ. eigenvalues --   -0.58105  -0.57781  -0.57757  -0.57251  -0.56679
 Alpha  occ. eigenvalues --   -0.56414  -0.56161  -0.55547  -0.54913  -0.54699
 Alpha  occ. eigenvalues --   -0.54394  -0.53688  -0.53105  -0.52787  -0.52413
 Alpha  occ. eigenvalues --   -0.51894  -0.51439  -0.51235  -0.51017  -0.50780
 Alpha  occ. eigenvalues --   -0.50638  -0.50127  -0.49854  -0.49645  -0.49404
 Alpha  occ. eigenvalues --   -0.48704  -0.48396  -0.48110  -0.47963  -0.47793
 Alpha  occ. eigenvalues --   -0.47326  -0.47148  -0.46940  -0.46824  -0.46733
 Alpha  occ. eigenvalues --   -0.46495  -0.46344  -0.46260  -0.45975  -0.45906
 Alpha  occ. eigenvalues --   -0.45681  -0.45553  -0.45030  -0.44956  -0.44692
 Alpha  occ. eigenvalues --   -0.44502  -0.44312  -0.44206  -0.43787  -0.43572
 Alpha  occ. eigenvalues --   -0.43385  -0.43344  -0.43040  -0.42977  -0.42949
 Alpha  occ. eigenvalues --   -0.42842  -0.42499  -0.42310  -0.42073  -0.41825
 Alpha  occ. eigenvalues --   -0.41707  -0.41444  -0.41386  -0.41231  -0.41030
 Alpha  occ. eigenvalues --   -0.40829  -0.40621  -0.40541  -0.40466  -0.40351
 Alpha  occ. eigenvalues --   -0.40213  -0.39928  -0.39497  -0.39374  -0.39261
 Alpha  occ. eigenvalues --   -0.39085  -0.38693  -0.38451  -0.38407  -0.37991
 Alpha  occ. eigenvalues --   -0.37678  -0.37573  -0.37529  -0.37193  -0.37001
 Alpha  occ. eigenvalues --   -0.36944  -0.36467  -0.36247  -0.35978  -0.35573
 Alpha  occ. eigenvalues --   -0.35534  -0.35144  -0.34909  -0.34715  -0.34435
 Alpha  occ. eigenvalues --   -0.34216  -0.34057  -0.33909  -0.33680  -0.33103
 Alpha  occ. eigenvalues --   -0.32680  -0.32422  -0.32107  -0.31904  -0.31873
 Alpha  occ. eigenvalues --   -0.31386  -0.30964  -0.30674  -0.30193  -0.29865
 Alpha  occ. eigenvalues --   -0.29281  -0.28440  -0.28379  -0.27929  -0.27850
 Alpha  occ. eigenvalues --   -0.27477  -0.27239  -0.23088  -0.21151
 Alpha virt. eigenvalues --   -0.08742  -0.06296  -0.02415  -0.01315  -0.00234
 Alpha virt. eigenvalues --    0.02463   0.02860   0.02949   0.03492   0.04122
 Alpha virt. eigenvalues --    0.04984   0.06009   0.07279   0.08254   0.08877

 Mulliken charges:
               1
     1  Mg   0.823135
     2  C    0.089244
     3  C   -0.159076
     4  C   -0.176732
     5  C   -0.168854
     6  N   -0.620113
     7  C    0.296359
     8  C   -0.162735
     9  C   -0.127377
    10  C    0.329543
    11  C   -0.308319
    12  C   -0.163031
    13  C   -0.253485
    14  C    0.613339
    15  O   -0.471415
    16  O   -0.478951
    17  N   -0.725341
    18  C    0.304090
    19  C    0.042381
    20  C    0.000277
    21  C    0.323020
    22  C   -0.373578
    23  C    0.215294
    24  O   -0.421693
    25  N   -0.673156
    26  C    0.321512
    27  C   -0.026782
    28  C    0.004508
    29  C    0.299986
    30  C    0.238182
    31  C   -0.220637
    32  C   -0.313209
    33  N   -0.702396
    34  C    0.249190
    35  C    0.016506
    36  C    0.048106
    37  C    0.287785
    38  C   -0.392133
    39  C    0.353707
    40  O   -0.478109
    41  C   -0.323482
    42  C    0.628691
    43  O   -0.511157
    44  O   -0.427243
    45  C   -0.098990
    46  C   -0.032140
    47  C   -0.099124
    48  C    0.124897
    49  C   -0.345546
    50  C   -0.219555
    51  C   -0.181313
    52  C   -0.138913
    53  C   -0.083530
    54  C   -0.308508
    55  C   -0.143107
    56  C   -0.181520
    57  C   -0.168345
    58  C   -0.039579
    59  C   -0.308647
    60  C   -0.151705
    61  C   -0.185607
    62  C   -0.168482
    63  C   -0.054952
    64  C   -0.292772
    65  C   -0.291960
    66  H    0.078625
    67  H    0.134563
    68  H    0.099870
    69  H    0.117982
    70  H    0.066911
    71  H    0.120206
    72  H    0.114112
    73  H    0.125493
    74  H    0.119962
    75  H    0.066922
    76  H    0.145150
    77  H    0.138089
    78  H    0.126188
    79  H    0.162958
    80  H    0.095585
    81  H    0.080917
    82  H    0.122330
    83  H    0.079500
    84  H    0.117269
    85  H    0.108905
    86  H    0.106756
    87  H    0.115589
    88  H    0.155065
    89  H    0.129162
    90  H    0.165867
    91  H    0.106807
    92  H    0.131170
    93  H    0.081088
    94  H    0.142232
    95  H    0.099427
    96  H    0.124516
    97  H    0.102619
    98  H    0.101414
    99  H    0.100845
   100  H    0.059109
   101  H    0.091710
   102  H    0.086646
   103  H    0.060756
   104  H    0.104387
   105  H    0.084480
   106  H    0.108501
   107  H    0.096707
   108  H    0.068591
   109  H    0.100944
   110  H    0.088342
   111  H    0.084227
   112  H    0.081254
   113  H    0.067159
   114  H    0.107658
   115  H    0.103934
   116  H    0.076363
   117  H    0.070211
   118  H    0.045973
   119  H    0.100480
   120  H    0.110443
   121  H    0.079922
   122  H    0.094674
   123  H    0.081809
   124  H    0.082464
   125  H    0.111045
   126  H    0.092086
   127  H    0.083721
   128  H    0.063652
   129  H    0.114374
   130  H    0.118380
   131  H    0.147983
   132  H    0.143980
   133  O   -0.412930
   134  H    0.080420
 Sum of Mulliken charges =   0.00000

 Dipole moment (field-independent basis, Debye):
    X=              2.4298    Y=             -4.1562    Z=             -1.6844  Tot=              5.1005
 Quadrupole moment (field-independent basis, Debye-Ang):
   XX=           -390.7214   YY=           -434.6143   ZZ=           -395.5668
   XY=              2.4327   XZ=             27.3100   YZ=            -39.5070

 Normal termination of Gaussian 09 at Sat Oct  5 12:32:59 2019.
