 Gaussian 09, Revision D.01,
 Gaussian 09:  ES64L-G09RevD.01 24-Apr-2013

 ----------------------------------------------------------------------
 # td=(NStates=1) iop(3/107=0140000000,3/108=0140000000) iop(3/107=0140
 000000,3/108=0140000000) CAM-B3LYP/6-31G(d,p)
 ----------------------------------------------------------------------

 --
 TD
 --
 Symbolic Z-matrix:
 Charge =  0 Multiplicity = 1

                         Standard orientation:
 ---------------------------------------------------------------------
 Center     Atomic      Atomic             Coordinates (Angstroms)
 Number     Number       Type             X           Y           Z
 ---------------------------------------------------------------------
      1         12           0       -5.629409    1.238083    0.150324
      2          6           0       -5.052026   -2.148667   -0.339514
      3          6           0       -3.401569    1.193007    2.845893
      4          6           0       -6.362464    4.497254    0.745816
      5          6           0       -7.970118    1.133364   -2.454303
      6          7           0       -4.352125   -0.253180    1.044029
      7          6           0       -4.291491   -1.594828    0.721825
      8          6           0       -3.272957   -2.376665    1.498537
      9          6           0       -3.084931   -1.375605    2.659547
     10          6           0       -3.670670   -0.051095    2.125111
     11          6           0       -3.801508   -1.678222    4.000832
     12          6           0       -2.023250   -2.679758    0.545711
     13          6           0       -0.955623   -3.361626    1.304708
     14          6           0        0.341025   -3.747120    0.527205
     15          8           0        0.461681   -3.406495   -0.612589
     16          8           0        1.054536   -4.545084    1.196822
     17          7           0       -4.911411    2.581947    1.476291
     18          6           0       -4.007042    2.380713    2.418466
     19          6           0       -3.729103    3.650191    3.114993
     20          6           0       -4.513993    4.539898    2.474693
     21          6           0       -5.318994    3.947095    1.486590
     22          6           0       -2.820582    3.813097    4.274180
     23          6           0       -4.616741    6.019322    2.793695
     24          8           0       -3.955755    6.536903    3.690737
     25          7           0       -6.863897    2.640191   -0.708427
     26          6           0       -7.075872    3.915192   -0.354903
     27          6           0       -7.964021    4.643352   -1.258922
     28          6           0       -8.546147    3.640796   -2.025245
     29          6           0       -7.744421    2.426798   -1.706195
     30          6           0       -8.255111    5.969643   -1.148082
     31          6           0       -9.436861    3.771998   -3.189680
     32          6           0       -8.742422    3.956783   -4.499578
     33          7           0       -6.399143   -0.126216   -1.186488
     34          6           0       -7.364661    0.003376   -2.195430
     35          6           0       -7.606526   -1.369803   -2.762337
     36          6           0       -6.643454   -2.257121   -2.122035
     37          6           0       -5.954673   -1.401906   -1.148247
     38          6           0       -8.584473   -1.772046   -3.748157
     39          6           0       -6.212028   -3.594890   -1.989137
     40          8           0       -6.627776   -4.623848   -2.425064
     41          6           0       -5.086987   -3.566743   -0.864621
     42          6           0       -5.284939   -4.599548    0.126839
     43          8           0       -5.733312   -4.306870    1.240180
     44          8           0       -5.042899   -5.857978   -0.274875
     45          6           0       -5.207284   -6.864247    0.643408
     46          6           0        2.291498   -4.965446    0.534094
     47          6           0        3.415263   -4.154586    0.913689
     48          6           0        3.944764   -3.206635    0.224721
     49          6           0        3.649895   -2.846615   -1.206649
     50          6           0        5.253992   -2.276882    0.786503
     51          6           0        6.518398   -2.711382    0.135095
     52          6           0        7.718414   -1.768174    0.621509
     53          6           0        9.078574   -1.974971   -0.018107
     54          6           0        9.548094   -3.410089    0.097352
     55          6           0       10.038393   -0.933576    0.401051
     56          6           0       11.382900   -0.864160   -0.282976
     57          6           0       12.281554    0.321114    0.160089
     58          6           0       13.599120    0.435120   -0.460783
     59          6           0       14.552046   -0.790221   -0.272619
     60          6           0       14.263959    1.723945   -0.175720
     61          6           0       15.653872    2.001936   -0.926613
     62          6           0       16.109204    3.447477   -0.713132
     63          6           0       17.423053    3.830495   -1.356099
     64          6           0       17.309696    3.972738   -2.907530
     65          6           0       17.951418    5.176602   -0.777499
     66          1           0       -2.896499    1.179502    3.836154
     67          1           0       -6.714806    5.573345    1.079023
     68          1           0       -8.794226    1.182313   -2.920785
     69          1           0       -3.679110   -3.212871    2.247947
     70          1           0       -2.119980   -1.119475    3.013305
     71          1           0       -3.251651   -2.622274    4.306959
     72          1           0       -3.691033   -0.925873    4.767966
     73          1           0       -4.970786   -2.030248    4.013506
     74          1           0       -2.411291   -3.329635   -0.222026
     75          1           0       -1.628106   -1.700616    0.110044
     76          1           0       -0.604663   -2.633722    2.229980
     77          1           0       -1.515381   -4.278802    1.739939
     78          1           0       -1.872691    3.184824    4.083219
     79          1           0       -2.673656    4.822716    4.214503
     80          1           0       -3.164794    3.349518    5.320381
     81          1           0       -5.167850    6.716594    2.069198
     82          1           0       -9.944380    2.802408   -3.228245
     83          1           0      -10.194387    4.460454   -3.065452
     84          1           0       -9.385511    3.859359   -5.143629
     85          1           0       -8.025748    4.796968   -4.558237
     86          1           0       -8.076416    3.003368   -4.591220
     87          1           0       -8.793621   -1.302873   -4.836438
     88          1           0       -8.488885   -2.831505   -4.211002
     89          1           0       -9.633571   -1.644012   -3.248402
     90          1           0       -4.113493   -3.832264   -1.621224
     91          1           0        2.423854   -6.000991    0.655005
     92          1           0        2.184731   -4.868382   -0.486072
     93          1           0        3.778050   -4.102473    2.008708
     94          1           0        2.574379   -3.223336   -1.488642
     95          1           0        3.776198   -1.795885   -1.390802
     96          1           0        4.443079   -3.413128   -1.796865
     97          1           0        5.109677   -1.275729    0.718837
     98          1           0        5.376065   -2.440370    1.889725
     99          1           0        6.753360   -3.776126    0.216721
    100          1           0        6.454133   -2.645461   -0.962927
    101          1           0        7.391529   -0.707091    0.603029
    102          1           0        8.057507   -1.885646    1.635631
    103          1           0        8.709091   -1.727890   -1.082223
    104          1           0        8.870983   -4.142973   -0.323356
    105          1           0       10.478331   -3.496884   -0.135118
    106          1           0        9.702964   -3.773214    1.197444
    107          1           0        9.616504   -0.044069    0.135403
    108          1           0       10.176293   -0.915243    1.363649
    109          1           0       12.136860   -1.866311   -0.037103
    110          1           0       11.319581   -0.992832   -1.422164
    111          1           0       11.772912    1.188462    0.000842
    112          1           0       12.540925   -0.039835    1.293681
    113          1           0       13.409318    0.226577   -1.510927
    114          1           0       14.870846   -1.007928    0.660854
    115          1           0       14.051003   -1.825413   -0.503182
    116          1           0       15.357560   -0.437394   -0.894792
    117          1           0       13.577518    2.432475   -0.369064
    118          1           0       14.289020    2.048190    1.082084
    119          1           0       16.328665    1.153443   -0.645750
    120          1           0       15.327815    1.803784   -1.875641
    121          1           0       15.274455    4.069661   -0.894367
    122          1           0       16.024460    3.622128    0.353749
    123          1           0       18.154846    3.184357   -1.271797
    124          1           0       16.408226    4.597285   -3.181608
    125          1           0       18.288290    4.508045   -3.186374
    126          1           0       17.047399    2.988747   -3.446153
    127          1           0       18.146749    5.174653    0.278413
    128          1           0       19.024436    5.542935   -1.216613
    129          1           0       17.235382    5.948596   -1.045074
    130          1           0       -4.899172   -7.979976    0.135681
    131          1           0       -6.329485   -6.931192    0.736892
    132          1           0       -4.889705   -6.402868    1.656245
    133          8           0       -7.743230    6.759641   -0.415200
    134          1           0       -8.932265    6.143694   -1.891486
 ---------------------------------------------------------------------

 SCF Done:  E(RCAM-B3LYP) =  -3043.39895794     A.U. after   15 cycles

 Excitation energies and oscillator strengths:

 Excited State   1:      Singlet-A      2.0566 eV  602.86 nm  f=0.1590  <S**2>=0.000
     243 -> 245        0.15617
     243 -> 246        0.25588
     244 -> 245        0.59755
     244 -> 246       -0.20656
 This state for optimization and/or second-order correction.
 Total Energy, E(TD-HF/TD-KS) =  -3043.32337946
 Copying the excited state density for this state as the 1-particle RhoCI density.

 The electronic state is 1-A.
 Alpha  occ. eigenvalues --  -46.81691 -19.23852 -19.22772 -19.17117 -19.17050
 Alpha  occ. eigenvalues --  -19.16766 -19.16598 -19.15989 -14.39009 -14.37243
 Alpha  occ. eigenvalues --  -14.37062 -14.36016 -10.34950 -10.34800 -10.31287
 Alpha  occ. eigenvalues --  -10.30572 -10.28908 -10.28034 -10.27628 -10.27497
 Alpha  occ. eigenvalues --  -10.27211 -10.26946 -10.26720 -10.26521 -10.26411
 Alpha  occ. eigenvalues --  -10.25816 -10.25770 -10.25755 -10.25726 -10.25051
 Alpha  occ. eigenvalues --  -10.24972 -10.24656 -10.24241 -10.24238 -10.23782
 Alpha  occ. eigenvalues --  -10.23664 -10.23625 -10.23597 -10.23525 -10.23330
 Alpha  occ. eigenvalues --  -10.23184 -10.23117 -10.22893 -10.22615 -10.22410
 Alpha  occ. eigenvalues --  -10.22352 -10.21968 -10.21962 -10.21822 -10.21629
 Alpha  occ. eigenvalues --  -10.21495 -10.21455 -10.21355 -10.21133 -10.21081
 Alpha  occ. eigenvalues --  -10.20983 -10.20878 -10.20837 -10.20832 -10.20831
 Alpha  occ. eigenvalues --  -10.20768 -10.20675 -10.20339 -10.19346 -10.19323
 Alpha  occ. eigenvalues --  -10.18755  -3.10219  -1.85167  -1.84711  -1.84599
 Alpha  occ. eigenvalues --   -1.16952  -1.14783  -1.08506  -1.07469  -1.06257
 Alpha  occ. eigenvalues --   -1.06092  -1.04676  -1.01706  -1.00646  -0.99329
 Alpha  occ. eigenvalues --   -0.98812  -0.88730  -0.86963  -0.86535  -0.86430
 Alpha  occ. eigenvalues --   -0.85685  -0.85431  -0.84258  -0.83875  -0.83421
 Alpha  occ. eigenvalues --   -0.83159  -0.83053  -0.81978  -0.81160  -0.80796
 Alpha  occ. eigenvalues --   -0.79847  -0.78966  -0.78068  -0.77409  -0.77189
 Alpha  occ. eigenvalues --   -0.75992  -0.74711  -0.73461  -0.72890  -0.72405
 Alpha  occ. eigenvalues --   -0.71809  -0.71382  -0.70996  -0.70339  -0.69848
 Alpha  occ. eigenvalues --   -0.69828  -0.68509  -0.67627  -0.67402  -0.66525
 Alpha  occ. eigenvalues --   -0.65629  -0.65391  -0.64448  -0.63686  -0.61984
 Alpha  occ. eigenvalues --   -0.61723  -0.61209  -0.60868  -0.60531  -0.60310
 Alpha  occ. eigenvalues --   -0.59086  -0.59069  -0.58487  -0.58205  -0.57093
 Alpha  occ. eigenvalues --   -0.56378  -0.56105  -0.55827  -0.55529  -0.54916
 Alpha  occ. eigenvalues --   -0.54228  -0.53348  -0.53073  -0.52913  -0.52467
 Alpha  occ. eigenvalues --   -0.52053  -0.51953  -0.51794  -0.51536  -0.50799
 Alpha  occ. eigenvalues --   -0.50448  -0.50047  -0.49693  -0.49571  -0.49470
 Alpha  occ. eigenvalues --   -0.49300  -0.49038  -0.48937  -0.48580  -0.48516
 Alpha  occ. eigenvalues --   -0.48349  -0.47878  -0.47497  -0.47385  -0.47195
 Alpha  occ. eigenvalues --   -0.47082  -0.46654  -0.46293  -0.46143  -0.45887
 Alpha  occ. eigenvalues --   -0.45612  -0.45536  -0.45362  -0.45321  -0.45174
 Alpha  occ. eigenvalues --   -0.45012  -0.44581  -0.44346  -0.43973  -0.43827
 Alpha  occ. eigenvalues --   -0.43472  -0.43263  -0.42962  -0.42904  -0.42808
 Alpha  occ. eigenvalues --   -0.42562  -0.42351  -0.42066  -0.41988  -0.41874
 Alpha  occ. eigenvalues --   -0.41630  -0.41576  -0.40951  -0.40940  -0.40832
 Alpha  occ. eigenvalues --   -0.40706  -0.40673  -0.40375  -0.40295  -0.40135
 Alpha  occ. eigenvalues --   -0.39989  -0.39723  -0.39702  -0.39388  -0.39081
 Alpha  occ. eigenvalues --   -0.38914  -0.38847  -0.38716  -0.38446  -0.38389
 Alpha  occ. eigenvalues --   -0.38263  -0.38108  -0.38030  -0.37619  -0.37556
 Alpha  occ. eigenvalues --   -0.37473  -0.36903  -0.36492  -0.36432  -0.35776
 Alpha  occ. eigenvalues --   -0.35651  -0.35230  -0.34876  -0.34671  -0.34638
 Alpha  occ. eigenvalues --   -0.34394  -0.33796  -0.33394  -0.33248  -0.32814
 Alpha  occ. eigenvalues --   -0.32405  -0.32203  -0.31925  -0.31685  -0.31508
 Alpha  occ. eigenvalues --   -0.31341  -0.30952  -0.30546  -0.30252  -0.29219
 Alpha  occ. eigenvalues --   -0.28959  -0.28800  -0.28092  -0.27833  -0.27529
 Alpha  occ. eigenvalues --   -0.27332  -0.27128  -0.22926  -0.21028
 Alpha virt. eigenvalues --   -0.07928  -0.06567  -0.02220  -0.00495   0.00928
 Alpha virt. eigenvalues --    0.02251   0.03647   0.03978   0.04132   0.05168
 Alpha virt. eigenvalues --    0.05358   0.05670   0.07639   0.08340   0.09251

 Mulliken charges:
               1
     1  Mg   0.822842
     2  C    0.104299
     3  C   -0.199329
     4  C   -0.197413
     5  C   -0.123923
     6  N   -0.621271
     7  C    0.299617
     8  C   -0.147482
     9  C   -0.164282
    10  C    0.365767
    11  C   -0.319547
    12  C   -0.151427
    13  C   -0.260769
    14  C    0.601418
    15  O   -0.472079
    16  O   -0.408869
    17  N   -0.744462
    18  C    0.354130
    19  C    0.038180
    20  C   -0.047023
    21  C    0.321513
    22  C   -0.368890
    23  C    0.241319
    24  O   -0.414112
    25  N   -0.655244
    26  C    0.272882
    27  C    0.024158
    28  C   -0.005298
    29  C    0.244784
    30  C    0.255478
    31  C   -0.259891
    32  C   -0.273109
    33  N   -0.743517
    34  C    0.317142
    35  C    0.055660
    36  C    0.051567
    37  C    0.291829
    38  C   -0.414658
    39  C    0.332613
    40  O   -0.438542
    41  C   -0.356728
    42  C    0.657964
    43  O   -0.498338
    44  O   -0.416958
    45  C   -0.095739
    46  C   -0.025276
    47  C   -0.121103
    48  C    0.113497
    49  C   -0.379962
    50  C   -0.217476
    51  C   -0.176920
    52  C   -0.176067
    53  C   -0.066475
    54  C   -0.300844
    55  C   -0.142715
    56  C   -0.186629
    57  C   -0.146752
    58  C   -0.059675
    59  C   -0.316230
    60  C   -0.167052
    61  C   -0.192758
    62  C   -0.172234
    63  C   -0.040484
    64  C   -0.309300
    65  C   -0.319191
    66  H    0.091311
    67  H    0.140581
    68  H    0.062739
    69  H    0.127081
    70  H    0.107951
    71  H    0.102269
    72  H    0.122566
    73  H    0.112591
    74  H    0.123217
    75  H    0.120673
    76  H    0.099835
    77  H    0.115620
    78  H    0.103454
    79  H    0.159531
    80  H    0.116241
    81  H    0.095108
    82  H    0.105593
    83  H    0.116521
    84  H    0.117584
    85  H    0.118955
    86  H    0.088782
    87  H    0.116527
    88  H    0.147776
    89  H    0.128311
    90  H    0.137303
    91  H    0.123780
    92  H    0.136372
    93  H    0.074653
    94  H    0.141498
    95  H    0.120312
    96  H    0.114703
    97  H    0.110289
    98  H    0.092374
    99  H    0.103230
   100  H    0.092556
   101  H    0.079002
   102  H    0.088483
   103  H    0.067031
   104  H    0.104856
   105  H    0.116695
   106  H    0.070694
   107  H    0.099471
   108  H    0.097521
   109  H    0.040697
   110  H    0.079651
   111  H    0.089751
   112  H    0.072032
   113  H    0.089821
   114  H    0.109861
   115  H    0.081623
   116  H    0.099912
   117  H    0.101872
   118  H    0.033955
   119  H    0.101621
   120  H    0.111035
   121  H    0.094681
   122  H    0.091787
   123  H    0.104550
   124  H    0.093297
   125  H    0.097137
   126  H    0.093889
   127  H    0.108677
   128  H    0.069351
   129  H    0.106840
   130  H    0.113980
   131  H    0.125535
   132  H    0.126748
   133  O   -0.444804
   134  H    0.044250
 Sum of Mulliken charges =   0.00000

 Dipole moment (field-independent basis, Debye):
    X=              1.8323    Y=             -4.6841    Z=             -1.6051  Tot=              5.2796
 Quadrupole moment (field-independent basis, Debye-Ang):
   XX=           -375.0436   YY=           -441.0506   ZZ=           -393.0909
   XY=             10.0215   XZ=             26.4887   YZ=            -29.2869

 Normal termination of Gaussian 09 at Sat Oct  5 10:04:58 2019.
