 Gaussian 09, Revision D.01,
 Gaussian 09:  ES64L-G09RevD.01 24-Apr-2013

 ----------------------------------------------------------------------
 # td=(NStates=1) iop(3/107=0140000000,3/108=0140000000) iop(3/107=0140
 000000,3/108=0140000000) CAM-B3LYP/6-31G(d,p)
 ----------------------------------------------------------------------

 --
 TD
 --
 Symbolic Z-matrix:
 Charge =  0 Multiplicity = 1

                         Standard orientation:
 ---------------------------------------------------------------------
 Center     Atomic      Atomic             Coordinates (Angstroms)
 Number     Number       Type             X           Y           Z
 ---------------------------------------------------------------------
      1         12           0       -5.509741    1.235247    0.164179
      2          6           0       -5.005697   -2.141688   -0.483666
      3          6           0       -3.382934    1.156789    2.727879
      4          6           0       -6.106330    4.585497    0.662043
      5          6           0       -8.024865    1.282791   -2.380684
      6          7           0       -4.498862   -0.369854    1.030337
      7          6           0       -4.278148   -1.653124    0.665375
      8          6           0       -3.214963   -2.327349    1.533013
      9          6           0       -2.932767   -1.323491    2.538125
     10          6           0       -3.575036   -0.062815    2.099525
     11          6           0       -3.432406   -1.755956    3.942222
     12          6           0       -1.987776   -2.621258    0.659016
     13          6           0       -0.980006   -3.583872    1.308824
     14          6           0        0.164249   -4.007894    0.509029
     15          8           0        0.360681   -3.515492   -0.587304
     16          8           0        0.984023   -4.809779    1.152449
     17          7           0       -4.886671    2.614070    1.452044
     18          6           0       -4.012791    2.445947    2.479041
     19          6           0       -3.679296    3.504389    3.320428
     20          6           0       -4.446575    4.560926    2.632329
     21          6           0       -5.160770    3.881992    1.549280
     22          6           0       -2.793774    3.658771    4.386163
     23          6           0       -4.486830    5.985747    2.845304
     24          8           0       -3.779569    6.376586    3.812188
     25          7           0       -6.779166    2.680322   -0.729215
     26          6           0       -6.797639    3.980454   -0.405423
     27          6           0       -7.831364    4.722934   -1.153476
     28          6           0       -8.424323    3.813829   -1.990944
     29          6           0       -7.760293    2.493002   -1.688106
     30          6           0       -8.085558    6.156313   -1.124524
     31          6           0       -9.537712    3.962536   -3.072130
     32          6           0       -8.905394    4.084808   -4.510812
     33          7           0       -6.314816   -0.061128   -1.121512
     34          6           0       -7.304796    0.050484   -2.139148
     35          6           0       -7.637467   -1.285314   -2.710948
     36          6           0       -6.726100   -2.107682   -2.003366
     37          6           0       -5.937719   -1.324654   -1.117309
     38          6           0       -8.586120   -1.512889   -3.665623
     39          6           0       -6.310971   -3.536064   -1.931158
     40          8           0       -6.617766   -4.512588   -2.572546
     41          6           0       -4.975407   -3.525452   -0.901681
     42          6           0       -5.341374   -4.587682    0.156913
     43          8           0       -5.802640   -4.340119    1.201440
     44          8           0       -5.185076   -5.865164   -0.316915
     45          6           0       -5.372536   -6.963314    0.648651
     46          6           0        2.216391   -5.174018    0.465426
     47          6           0        3.384337   -4.295230    0.879413
     48          6           0        3.960934   -3.298418    0.140188
     49          6           0        3.603968   -3.054996   -1.358696
     50          6           0        5.101143   -2.485569    0.701219
     51          6           0        6.553943   -2.821230    0.031396
     52          6           0        7.586678   -1.975352    0.571489
     53          6           0        9.004224   -2.105074   -0.140950
     54          6           0        9.679920   -3.438206    0.023531
     55          6           0        9.954335   -0.995338    0.384158
     56          6           0       11.279509   -0.899893   -0.355464
     57          6           0       12.155047    0.236000    0.083187
     58          6           0       13.502764    0.487586   -0.589966
     59          6           0       14.423557   -0.831563   -0.389459
     60          6           0       14.311232    1.708664   -0.157166
     61          6           0       15.485877    2.176044   -1.004569
     62          6           0       15.943367    3.598076   -0.594122
     63          6           0       17.278770    4.080846   -1.242431
     64          6           0       17.139604    4.178707   -2.763911
     65          6           0       17.873970    5.308502   -0.572481
     66          1           0       -2.636717    1.280942    3.579756
     67          1           0       -6.161631    5.645661    0.579054
     68          1           0       -8.776534    1.178577   -3.186347
     69          1           0       -3.640432   -3.267366    1.793876
     70          1           0       -1.871318   -1.269276    2.698649
     71          1           0       -2.663854   -2.501388    4.552757
     72          1           0       -3.393909   -0.942052    4.671800
     73          1           0       -4.429166   -2.062419    3.851701
     74          1           0       -2.351780   -3.216562   -0.285976
     75          1           0       -1.475057   -1.745809    0.297820
     76          1           0       -0.671479   -3.189189    2.138300
     77          1           0       -1.583720   -4.459200    1.635362
     78          1           0       -1.638620    3.540122    4.330335
     79          1           0       -3.195762    4.647110    5.011506
     80          1           0       -3.296094    2.882995    5.071866
     81          1           0       -5.097455    6.644925    2.335855
     82          1           0      -10.267652    3.162701   -3.249671
     83          1           0      -10.007164    5.031186   -2.767360
     84          1           0       -9.505754    4.390444   -5.282573
     85          1           0       -8.005477    4.966946   -4.537759
     86          1           0       -8.167834    3.227930   -4.818172
     87          1           0       -8.316268   -1.004890   -4.721233
     88          1           0       -8.567630   -2.564233   -3.852595
     89          1           0       -9.649937   -1.210777   -3.477762
     90          1           0       -4.159734   -4.043320   -1.588953
     91          1           0        2.457386   -6.333936    1.047901
     92          1           0        2.147845   -5.274607   -0.521760
     93          1           0        3.602671   -4.557196    1.871521
     94          1           0        2.586404   -3.156448   -1.402604
     95          1           0        3.578405   -2.069242   -1.479933
     96          1           0        4.429051   -3.628057   -1.884178
     97          1           0        4.869068   -1.475191    0.605671
     98          1           0        5.019146   -2.826403    1.708751
     99          1           0        6.729079   -4.062010    0.169725
    100          1           0        6.379147   -2.568072   -1.038451
    101          1           0        7.327527   -1.011988    0.573975
    102          1           0        7.701512   -2.110584    1.533541
    103          1           0        8.881415   -2.043995   -1.224213
    104          1           0        9.089771   -4.342885   -0.075931
    105          1           0       10.468681   -3.531628   -0.843352
    106          1           0       10.126621   -3.659658    0.933484
    107          1           0        9.367809   -0.021995    0.208684
    108          1           0       10.139176   -1.340147    1.502010
    109          1           0       11.830480   -1.953004   -0.271863
    110          1           0       11.168674   -0.647999   -1.406697
    111          1           0       11.636153    1.129419   -0.008867
    112          1           0       12.440863    0.217192    1.052988
    113          1           0       13.293994    0.699575   -1.578395
    114          1           0       14.392468   -1.238804    0.804702
    115          1           0       14.271663   -1.787800   -1.117899
    116          1           0       15.522921   -0.495834   -0.677653
    117          1           0       13.809032    2.652686   -0.069194
    118          1           0       14.549256    1.441089    0.923569
    119          1           0       16.295748    1.303519   -0.946302
    120          1           0       15.227402    2.068670   -1.971854
    121          1           0       15.163229    4.341735   -0.676641
    122          1           0       16.363686    3.617018    0.493417
    123          1           0       18.078822    3.243755   -0.979411
    124          1           0       16.403382    4.808889   -2.906548
    125          1           0       17.943272    4.574962   -3.323012
    126          1           0       16.778511    3.327619   -3.394816
    127          1           0       17.927247    5.304305    0.445650
    128          1           0       18.962608    5.767566   -1.206722
    129          1           0       17.202222    6.393246   -0.654768
    130          1           0       -5.080771   -8.013472    0.160059
    131          1           0       -6.408496   -6.810837    0.925934
    132          1           0       -4.777339   -6.919681    1.518489
    133          8           0       -7.660298    6.923337   -0.305096
    134          1           0       -8.694604    6.508585   -2.034444
 ---------------------------------------------------------------------

 SCF Done:  E(RCAM-B3LYP) =  -3043.40404612     A.U. after   16 cycles

 Excitation energies and oscillator strengths:

 Excited State   1:      Singlet-A      1.9126 eV  648.25 nm  f=0.2382  <S**2>=0.000
     243 -> 246        0.23372
     244 -> 245        0.65935
 This state for optimization and/or second-order correction.
 Total Energy, E(TD-HF/TD-KS) =  -3043.33375957
 Copying the excited state density for this state as the 1-particle RhoCI density.

 The electronic state is 1-A.
 Alpha  occ. eigenvalues --  -46.81467 -19.23087 -19.21531 -19.18080 -19.17956
 Alpha  occ. eigenvalues --  -19.17284 -19.16455 -19.15145 -14.39128 -14.37393
 Alpha  occ. eigenvalues --  -14.36887 -14.36792 -10.34688 -10.34492 -10.32044
 Alpha  occ. eigenvalues --  -10.31211 -10.28673 -10.28566 -10.27898 -10.27866
 Alpha  occ. eigenvalues --  -10.27203 -10.27146 -10.27114 -10.26143 -10.26116
 Alpha  occ. eigenvalues --  -10.26109 -10.25850 -10.25688 -10.25671 -10.25426
 Alpha  occ. eigenvalues --  -10.25241 -10.25035 -10.23790 -10.23779 -10.23678
 Alpha  occ. eigenvalues --  -10.23658 -10.23572 -10.23399 -10.23376 -10.23314
 Alpha  occ. eigenvalues --  -10.23296 -10.23296 -10.23274 -10.23207 -10.23198
 Alpha  occ. eigenvalues --  -10.23148 -10.23107 -10.23086 -10.22973 -10.22473
 Alpha  occ. eigenvalues --  -10.22441 -10.22321 -10.22105 -10.22050 -10.21645
 Alpha  occ. eigenvalues --  -10.21320 -10.21286 -10.21211 -10.21117 -10.21069
 Alpha  occ. eigenvalues --  -10.20462 -10.19760 -10.19482 -10.18634 -10.18533
 Alpha  occ. eigenvalues --  -10.18521  -3.10158  -1.85084  -1.84615  -1.84598
 Alpha  occ. eigenvalues --   -1.14458  -1.13614  -1.08678  -1.07784  -1.05245
 Alpha  occ. eigenvalues --   -1.04749  -1.03456  -1.01739  -1.00388  -0.99579
 Alpha  occ. eigenvalues --   -0.98814  -0.88189  -0.86875  -0.86130  -0.85566
 Alpha  occ. eigenvalues --   -0.85350  -0.85053  -0.84490  -0.84318  -0.83430
 Alpha  occ. eigenvalues --   -0.83154  -0.82970  -0.81827  -0.80572  -0.79363
 Alpha  occ. eigenvalues --   -0.78657  -0.78450  -0.77531  -0.76990  -0.76253
 Alpha  occ. eigenvalues --   -0.75298  -0.74966  -0.74591  -0.72948  -0.72286
 Alpha  occ. eigenvalues --   -0.72078  -0.71982  -0.70256  -0.69525  -0.69283
 Alpha  occ. eigenvalues --   -0.69011  -0.68376  -0.67184  -0.66229  -0.66116
 Alpha  occ. eigenvalues --   -0.65843  -0.65086  -0.63508  -0.62999  -0.62106
 Alpha  occ. eigenvalues --   -0.61386  -0.61318  -0.60982  -0.59989  -0.59258
 Alpha  occ. eigenvalues --   -0.58936  -0.58590  -0.58206  -0.58102  -0.57386
 Alpha  occ. eigenvalues --   -0.57047  -0.56415  -0.55877  -0.55108  -0.54639
 Alpha  occ. eigenvalues --   -0.54185  -0.53735  -0.52904  -0.52443  -0.52242
 Alpha  occ. eigenvalues --   -0.51883  -0.51345  -0.51165  -0.50851  -0.50669
 Alpha  occ. eigenvalues --   -0.50396  -0.49862  -0.49821  -0.49313  -0.49300
 Alpha  occ. eigenvalues --   -0.48944  -0.48737  -0.48467  -0.48330  -0.48010
 Alpha  occ. eigenvalues --   -0.47636  -0.47548  -0.47415  -0.47255  -0.47171
 Alpha  occ. eigenvalues --   -0.46540  -0.46513  -0.46345  -0.45968  -0.45865
 Alpha  occ. eigenvalues --   -0.45693  -0.45418  -0.45226  -0.45051  -0.44771
 Alpha  occ. eigenvalues --   -0.44721  -0.44262  -0.44147  -0.44042  -0.43869
 Alpha  occ. eigenvalues --   -0.43735  -0.43628  -0.43149  -0.43030  -0.42657
 Alpha  occ. eigenvalues --   -0.42558  -0.42487  -0.42233  -0.41931  -0.41784
 Alpha  occ. eigenvalues --   -0.41517  -0.41309  -0.41266  -0.40966  -0.40944
 Alpha  occ. eigenvalues --   -0.40761  -0.40725  -0.40458  -0.40313  -0.39950
 Alpha  occ. eigenvalues --   -0.39905  -0.39629  -0.39326  -0.39137  -0.38886
 Alpha  occ. eigenvalues --   -0.38589  -0.38535  -0.38473  -0.38144  -0.38079
 Alpha  occ. eigenvalues --   -0.38039  -0.37696  -0.37582  -0.37496  -0.37428
 Alpha  occ. eigenvalues --   -0.37206  -0.36857  -0.36463  -0.36171  -0.35853
 Alpha  occ. eigenvalues --   -0.35680  -0.35269  -0.34626  -0.34450  -0.34250
 Alpha  occ. eigenvalues --   -0.34163  -0.33802  -0.33788  -0.33409  -0.33206
 Alpha  occ. eigenvalues --   -0.32966  -0.32469  -0.32275  -0.32064  -0.32044
 Alpha  occ. eigenvalues --   -0.31328  -0.31183  -0.30737  -0.30371  -0.29438
 Alpha  occ. eigenvalues --   -0.29032  -0.28569  -0.28300  -0.27271  -0.26956
 Alpha  occ. eigenvalues --   -0.26909  -0.26251  -0.22438  -0.21314
 Alpha virt. eigenvalues --   -0.09039  -0.06124  -0.01364  -0.00537   0.00251
 Alpha virt. eigenvalues --    0.02800   0.03061   0.04057   0.04182   0.04678
 Alpha virt. eigenvalues --    0.04775   0.05743   0.07117   0.08495   0.09064

 Mulliken charges:
               1
     1  Mg   0.829015
     2  C    0.060636
     3  C   -0.196069
     4  C   -0.150093
     5  C   -0.176332
     6  N   -0.640830
     7  C    0.333457
     8  C   -0.128801
     9  C   -0.138329
    10  C    0.320182
    11  C   -0.307516
    12  C   -0.184401
    13  C   -0.259960
    14  C    0.604654
    15  O   -0.478959
    16  O   -0.439215
    17  N   -0.689915
    18  C    0.271794
    19  C    0.142838
    20  C   -0.060831
    21  C    0.305691
    22  C   -0.418763
    23  C    0.225522
    24  O   -0.451906
    25  N   -0.663418
    26  C    0.292941
    27  C   -0.013163
    28  C    0.030275
    29  C    0.274192
    30  C    0.243974
    31  C   -0.231530
    32  C   -0.313601
    33  N   -0.753036
    34  C    0.229666
    35  C    0.117637
    36  C   -0.021176
    37  C    0.411339
    38  C   -0.440524
    39  C    0.351327
    40  O   -0.429990
    41  C   -0.360609
    42  C    0.611940
    43  O   -0.445107
    44  O   -0.470854
    45  C   -0.089263
    46  C    0.007401
    47  C   -0.113099
    48  C    0.065732
    49  C   -0.361395
    50  C   -0.224899
    51  C   -0.171942
    52  C   -0.143025
    53  C   -0.064178
    54  C   -0.317828
    55  C   -0.155697
    56  C   -0.170099
    57  C   -0.160411
    58  C   -0.064407
    59  C   -0.296718
    60  C   -0.175973
    61  C   -0.167183
    62  C   -0.180739
    63  C   -0.042824
    64  C   -0.318583
    65  C   -0.277495
    66  H    0.082375
    67  H    0.126862
    68  H    0.093578
    69  H    0.123951
    70  H    0.110396
    71  H    0.080338
    72  H    0.111336
    73  H    0.134443
    74  H    0.100440
    75  H    0.122199
    76  H    0.138867
    77  H    0.122311
    78  H    0.133255
    79  H    0.156423
    80  H    0.112206
    81  H    0.102822
    82  H    0.128455
    83  H    0.099358
    84  H    0.131006
    85  H    0.071581
    86  H    0.110272
    87  H    0.119915
    88  H    0.153640
    89  H    0.135414
    90  H    0.153143
    91  H    0.066192
    92  H    0.138161
    93  H    0.084706
    94  H    0.146528
    95  H    0.114795
    96  H    0.127747
    97  H    0.106903
    98  H    0.100398
    99  H    0.070080
   100  H    0.094861
   101  H    0.093798
   102  H    0.100186
   103  H    0.082499
   104  H    0.095184
   105  H    0.089751
   106  H    0.105562
   107  H    0.078880
   108  H    0.080634
   109  H    0.084581
   110  H    0.090555
   111  H    0.086323
   112  H    0.089858
   113  H    0.082649
   114  H    0.077363
   115  H    0.089220
   116  H    0.085116
   117  H    0.087752
   118  H    0.079350
   119  H    0.075326
   120  H    0.109915
   121  H    0.102314
   122  H    0.085528
   123  H    0.078157
   124  H    0.116724
   125  H    0.102051
   126  H    0.094185
   127  H    0.123404
   128  H    0.062563
   129  H    0.049312
   130  H    0.119304
   131  H    0.142522
   132  H    0.130483
   133  O   -0.408191
   134  H    0.062655
 Sum of Mulliken charges =   0.00000

 Dipole moment (field-independent basis, Debye):
    X=              1.0233    Y=             -3.8962    Z=             -1.8888  Tot=              4.4492
 Quadrupole moment (field-independent basis, Debye-Ang):
   XX=           -382.5744   YY=           -435.8240   ZZ=           -393.6394
   XY=              5.1739   XZ=             25.8593   YZ=            -40.2865

 Normal termination of Gaussian 09 at Fri Oct  4 08:42:11 2019.
