 Gaussian 09, Revision D.01,
 Gaussian 09:  ES64L-G09RevD.01 24-Apr-2013

 ----------------------------------------------------------------------
 # td=(NStates=1) iop(3/107=0140000000,3/108=0140000000) iop(3/107=0140
 000000,3/108=0140000000) CAM-B3LYP/6-31G(d,p)
 ----------------------------------------------------------------------

 --
 TD
 --
 Symbolic Z-matrix:
 Charge =  0 Multiplicity = 1

                         Standard orientation:
 ---------------------------------------------------------------------
 Center     Atomic      Atomic             Coordinates (Angstroms)
 Number     Number       Type             X           Y           Z
 ---------------------------------------------------------------------
      1         12           0       -5.664715    1.163327    0.168894
      2          6           0       -5.055102   -2.098151   -0.353781
      3          6           0       -3.350191    1.150230    2.805731
      4          6           0       -6.167373    4.496902    0.706077
      5          6           0       -8.076170    1.235973   -2.390545
      6          7           0       -4.449433   -0.301349    1.016457
      7          6           0       -4.316243   -1.600017    0.679040
      8          6           0       -3.203614   -2.326477    1.389831
      9          6           0       -2.836296   -1.289709    2.541390
     10          6           0       -3.512604   -0.016668    2.074273
     11          6           0       -3.258703   -1.799482    3.921099
     12          6           0       -1.952343   -2.851803    0.545084
     13          6           0       -0.982707   -3.597522    1.332208
     14          6           0        0.254321   -3.991902    0.517621
     15          8           0        0.484439   -3.561631   -0.568310
     16          8           0        1.125984   -4.885244    1.271676
     17          7           0       -4.867095    2.559198    1.418843
     18          6           0       -3.954196    2.435205    2.481985
     19          6           0       -3.661580    3.629231    3.174043
     20          6           0       -4.452933    4.528655    2.601985
     21          6           0       -5.310210    3.907690    1.671460
     22          6           0       -2.668263    3.748410    4.237801
     23          6           0       -4.656305    5.966973    2.949971
     24          8           0       -3.822445    6.489928    3.809840
     25          7           0       -6.987608    2.640894   -0.607981
     26          6           0       -7.027014    3.977003   -0.316798
     27          6           0       -8.051824    4.700922   -1.070187
     28          6           0       -8.505796    3.677872   -1.982788
     29          6           0       -7.884915    2.403098   -1.681389
     30          6           0       -8.425122    6.002109   -1.105721
     31          6           0       -9.455464    3.828083   -3.131369
     32          6           0       -8.837696    4.088725   -4.460327
     33          7           0       -6.458442   -0.059702   -1.091339
     34          6           0       -7.427506    0.035801   -2.103883
     35          6           0       -7.644620   -1.329193   -2.702625
     36          6           0       -6.744799   -2.096669   -2.023137
     37          6           0       -6.001339   -1.433205   -1.144515
     38          6           0       -8.712361   -1.623379   -3.678992
     39          6           0       -6.215778   -3.525872   -2.046260
     40          8           0       -6.493767   -4.564279   -2.660751
     41          6           0       -5.037995   -3.467490   -0.883216
     42          6           0       -5.258386   -4.556539    0.091660
     43          8           0       -5.657525   -4.469576    1.273706
     44          8           0       -5.023664   -5.756802   -0.409536
     45          6           0       -5.234111   -6.818560    0.449954
     46          6           0        2.376423   -5.155822    0.657586
     47          6           0        3.467282   -4.275248    1.043950
     48          6           0        4.163351   -3.441922    0.227436
     49          6           0        3.782286   -3.302277   -1.214971
     50          6           0        5.260132   -2.452656    0.635587
     51          6           0        6.578917   -2.838373    0.034201
     52          6           0        7.599780   -1.880035    0.503937
     53          6           0        8.986691   -2.054570   -0.076831
     54          6           0        9.580049   -3.378968    0.237530
     55          6           0       10.007252   -0.829143    0.330324
     56          6           0       11.338098   -0.833779   -0.326068
     57          6           0       12.263403    0.315223    0.211314
     58          6           0       13.645501    0.492771   -0.471983
     59          6           0       14.540461   -0.753583   -0.356110
     60          6           0       14.328154    1.812369   -0.075764
     61          6           0       15.448892    2.294891   -0.962815
     62          6           0       16.019575    3.671126   -0.617617
     63          6           0       17.233280    4.110796   -1.448388
     64          6           0       16.990377    4.173459   -2.936177
     65          6           0       17.726790    5.389813   -0.862048
     66          1           0       -2.366314    1.351344    3.631343
     67          1           0       -6.256033    5.585852    0.822815
     68          1           0       -8.541000    1.241820   -3.398030
     69          1           0       -3.575179   -3.266140    1.886924
     70          1           0       -1.787096   -1.293112    2.578399
     71          1           0       -2.783728   -2.626223    4.321309
     72          1           0       -3.527500   -0.889161    4.730275
     73          1           0       -4.187884   -2.032926    3.772887
     74          1           0       -2.180792   -3.550608   -0.306224
     75          1           0       -1.505482   -1.896393    0.046565
     76          1           0       -0.420061   -3.161713    2.202227
     77          1           0       -1.436506   -4.546082    1.791553
     78          1           0       -1.495137    3.716788    4.039193
     79          1           0       -2.619822    4.835253    4.625139
     80          1           0       -2.756849    3.046948    5.021554
     81          1           0       -5.505908    6.599603    2.393496
     82          1           0      -10.035516    3.018310   -3.001420
     83          1           0      -10.152104    4.758905   -3.029098
     84          1           0       -9.733481    3.988684   -5.211256
     85          1           0       -8.387166    4.976822   -4.646237
     86          1           0       -8.274201    3.173318   -4.718402
     87          1           0       -8.554337   -0.971320   -4.477642
     88          1           0       -8.829326   -2.754970   -3.917465
     89          1           0       -9.473694   -1.344390   -3.068445
     90          1           0       -4.000601   -3.627126   -1.318368
     91          1           0        2.620780   -6.198132    1.068011
     92          1           0        2.191515   -5.106153   -0.303458
     93          1           0        3.625599   -4.213103    2.159086
     94          1           0        2.810412   -3.620016   -1.354962
     95          1           0        4.081302   -2.301741   -1.381978
     96          1           0        4.544991   -3.764835   -2.027890
     97          1           0        5.051058   -1.269734    0.278494
     98          1           0        5.367893   -2.803328    1.792771
     99          1           0        6.687648   -3.888801    0.255259
    100          1           0        6.568969   -2.905182   -1.090248
    101          1           0        6.972840   -0.752869    0.403053
    102          1           0        7.794040   -2.130966    1.352561
    103          1           0        8.939459   -1.929859   -1.278176
    104          1           0        8.770536   -4.130703    0.034260
    105          1           0       10.497342   -3.628536   -0.182544
    106          1           0        9.682192   -3.451940    1.273817
    107          1           0        9.427042    0.082976    0.133492
    108          1           0        9.882491   -0.999324    1.528814
    109          1           0       11.690248   -1.806161   -0.063497
    110          1           0       11.214800   -0.687750   -1.549198
    111          1           0       11.690150    1.296174   -0.010146
    112          1           0       12.332990    0.196672    1.280187
    113          1           0       13.410168    0.615277   -1.698666
    114          1           0       14.985416   -1.009020    0.626246
    115          1           0       14.089478   -1.653927   -0.713740
    116          1           0       15.300624   -0.646143   -1.090285
    117          1           0       13.506376    2.386783   -0.097272
    118          1           0       14.676096    1.582687    0.984107
    119          1           0       16.248788    1.579924   -1.098666
    120          1           0       15.008092    2.366791   -1.966083
    121          1           0       15.054645    4.276375   -0.592282
    122          1           0       16.401147    3.543516    0.403848
    123          1           0       17.891839    3.376188   -1.335151
    124          1           0       16.208969    5.000778   -3.192370
    125          1           0       18.012896    4.664509   -3.646607
    126          1           0       16.797492    3.148022   -3.264737
    127          1           0       18.065365    5.351850    0.218500
    128          1           0       18.755924    5.816661   -1.480543
    129          1           0       16.760568    6.141968   -0.679054
    130          1           0       -4.713597   -7.529465   -0.190018
    131          1           0       -6.247720   -6.988410    0.396849
    132          1           0       -4.905142   -6.470093    1.544031
    133          8           0       -8.010992    6.910013   -0.363737
    134          1           0       -9.136364    6.267208   -1.991224
 ---------------------------------------------------------------------

 SCF Done:  E(RCAM-B3LYP) =  -3043.38143715     A.U. after   16 cycles

 Excitation energies and oscillator strengths:

 Excited State   1:      Singlet-A      1.9752 eV  627.71 nm  f=0.1523  <S**2>=0.000
     243 -> 246        0.29553
     244 -> 245        0.63116
 This state for optimization and/or second-order correction.
 Total Energy, E(TD-HF/TD-KS) =  -3043.30885035
 Copying the excited state density for this state as the 1-particle RhoCI density.

 The electronic state is 1-A.
 Alpha  occ. eigenvalues --  -46.80784 -19.22504 -19.21468 -19.19569 -19.19153
 Alpha  occ. eigenvalues --  -19.17674 -19.16710 -19.16006 -14.39675 -14.37641
 Alpha  occ. eigenvalues --  -14.37424 -14.36784 -10.36246 -10.34935 -10.33712
 Alpha  occ. eigenvalues --  -10.32250 -10.29382 -10.28390 -10.27899 -10.27417
 Alpha  occ. eigenvalues --  -10.27188 -10.26914 -10.26807 -10.26731 -10.26564
 Alpha  occ. eigenvalues --  -10.26301 -10.26221 -10.26155 -10.25532 -10.25450
 Alpha  occ. eigenvalues --  -10.25360 -10.25324 -10.25119 -10.25102 -10.24971
 Alpha  occ. eigenvalues --  -10.24689 -10.24299 -10.24114 -10.23969 -10.23618
 Alpha  occ. eigenvalues --  -10.23610 -10.23179 -10.23167 -10.23145 -10.23061
 Alpha  occ. eigenvalues --  -10.23019 -10.22955 -10.22842 -10.22640 -10.22456
 Alpha  occ. eigenvalues --  -10.22362 -10.22329 -10.22175 -10.21787 -10.21501
 Alpha  occ. eigenvalues --  -10.21486 -10.21259 -10.20977 -10.20947 -10.20683
 Alpha  occ. eigenvalues --  -10.20618 -10.20415 -10.20257 -10.20055 -10.19564
 Alpha  occ. eigenvalues --  -10.19400  -3.09541  -1.84458  -1.84022  -1.83970
 Alpha  occ. eigenvalues --   -1.15531  -1.12958  -1.07104  -1.05953  -1.04591
 Alpha  occ. eigenvalues --   -1.03477  -1.02662  -1.00032  -0.98998  -0.98881
 Alpha  occ. eigenvalues --   -0.97951  -0.89737  -0.87209  -0.86436  -0.86115
 Alpha  occ. eigenvalues --   -0.85654  -0.85025  -0.84880  -0.84518  -0.84082
 Alpha  occ. eigenvalues --   -0.83975  -0.83695  -0.82502  -0.81090  -0.80645
 Alpha  occ. eigenvalues --   -0.80128  -0.79280  -0.78872  -0.77849  -0.76986
 Alpha  occ. eigenvalues --   -0.76089  -0.75753  -0.74667  -0.73499  -0.72646
 Alpha  occ. eigenvalues --   -0.71564  -0.71306  -0.70822  -0.70218  -0.69833
 Alpha  occ. eigenvalues --   -0.69597  -0.69258  -0.67924  -0.66985  -0.66728
 Alpha  occ. eigenvalues --   -0.66219  -0.64107  -0.64076  -0.62760  -0.62484
 Alpha  occ. eigenvalues --   -0.61929  -0.60596  -0.60506  -0.59080  -0.58836
 Alpha  occ. eigenvalues --   -0.58450  -0.58220  -0.57941  -0.57713  -0.56884
 Alpha  occ. eigenvalues --   -0.56411  -0.56189  -0.55654  -0.55334  -0.55082
 Alpha  occ. eigenvalues --   -0.54471  -0.54043  -0.53275  -0.53122  -0.52742
 Alpha  occ. eigenvalues --   -0.52246  -0.52110  -0.51571  -0.51287  -0.50971
 Alpha  occ. eigenvalues --   -0.50783  -0.50661  -0.50455  -0.50205  -0.49835
 Alpha  occ. eigenvalues --   -0.49642  -0.48944  -0.48751  -0.48153  -0.48010
 Alpha  occ. eigenvalues --   -0.47846  -0.47710  -0.47324  -0.47236  -0.47211
 Alpha  occ. eigenvalues --   -0.47039  -0.46603  -0.46563  -0.46295  -0.46284
 Alpha  occ. eigenvalues --   -0.45908  -0.45765  -0.45615  -0.45435  -0.44907
 Alpha  occ. eigenvalues --   -0.44767  -0.44426  -0.44341  -0.44108  -0.44001
 Alpha  occ. eigenvalues --   -0.43857  -0.43557  -0.43368  -0.43104  -0.42953
 Alpha  occ. eigenvalues --   -0.42825  -0.42733  -0.42327  -0.42241  -0.42090
 Alpha  occ. eigenvalues --   -0.41844  -0.41715  -0.41204  -0.41004  -0.40933
 Alpha  occ. eigenvalues --   -0.40752  -0.40636  -0.40534  -0.40247  -0.40170
 Alpha  occ. eigenvalues --   -0.40001  -0.39805  -0.39607  -0.39166  -0.39087
 Alpha  occ. eigenvalues --   -0.38835  -0.38778  -0.38422  -0.38329  -0.38062
 Alpha  occ. eigenvalues --   -0.37975  -0.37637  -0.37418  -0.37242  -0.37034
 Alpha  occ. eigenvalues --   -0.36720  -0.36633  -0.36492  -0.36065  -0.35892
 Alpha  occ. eigenvalues --   -0.35794  -0.35437  -0.35235  -0.34656  -0.34446
 Alpha  occ. eigenvalues --   -0.34231  -0.34011  -0.33890  -0.33638  -0.33456
 Alpha  occ. eigenvalues --   -0.32956  -0.32867  -0.32851  -0.32438  -0.32079
 Alpha  occ. eigenvalues --   -0.31958  -0.31757  -0.30856  -0.30172  -0.30137
 Alpha  occ. eigenvalues --   -0.28883  -0.28814  -0.28452  -0.27964  -0.27757
 Alpha  occ. eigenvalues --   -0.27222  -0.27020  -0.23457  -0.22251
 Alpha virt. eigenvalues --   -0.09279  -0.07621  -0.02455  -0.02030  -0.00392
 Alpha virt. eigenvalues --    0.02320   0.02725   0.03226   0.03347   0.03621
 Alpha virt. eigenvalues --    0.04373   0.05033   0.06973   0.07850   0.08492

 Mulliken charges:
               1
     1  Mg   0.822230
     2  C    0.094283
     3  C   -0.187972
     4  C   -0.173943
     5  C   -0.175167
     6  N   -0.650825
     7  C    0.379550
     8  C   -0.176730
     9  C   -0.136928
    10  C    0.314001
    11  C   -0.307779
    12  C   -0.176022
    13  C   -0.257290
    14  C    0.587141
    15  O   -0.422388
    16  O   -0.502794
    17  N   -0.646337
    18  C    0.279568
    19  C    0.128291
    20  C   -0.009027
    21  C    0.250832
    22  C   -0.430811
    23  C    0.227098
    24  O   -0.440392
    25  N   -0.673049
    26  C    0.287277
    27  C    0.085744
    28  C   -0.012024
    29  C    0.315980
    30  C    0.183757
    31  C   -0.243042
    32  C   -0.299606
    33  N   -0.750206
    34  C    0.266308
    35  C   -0.011584
    36  C    0.045885
    37  C    0.266759
    38  C   -0.364868
    39  C    0.379122
    40  O   -0.448438
    41  C   -0.368580
    42  C    0.612037
    43  O   -0.511733
    44  O   -0.410509
    45  C   -0.091326
    46  C    0.030239
    47  C   -0.137909
    48  C    0.133661
    49  C   -0.355023
    50  C   -0.232831
    51  C   -0.176469
    52  C   -0.098229
    53  C   -0.079395
    54  C   -0.322103
    55  C   -0.164061
    56  C   -0.159610
    57  C   -0.166653
    58  C   -0.059535
    59  C   -0.320960
    60  C   -0.142060
    61  C   -0.197532
    62  C   -0.166699
    63  C   -0.026031
    64  C   -0.276544
    65  C   -0.285209
    66  H    0.087925
    67  H    0.113373
    68  H    0.102873
    69  H    0.127847
    70  H    0.109550
    71  H    0.118366
    72  H    0.083867
    73  H    0.144166
    74  H    0.117447
    75  H    0.117907
    76  H    0.144973
    77  H    0.134957
    78  H    0.114708
    79  H    0.164879
    80  H    0.133013
    81  H    0.117449
    82  H    0.122262
    83  H    0.101216
    84  H    0.094905
    85  H    0.136230
    86  H    0.103585
    87  H    0.137348
    88  H    0.143170
    89  H    0.155617
    90  H    0.157280
    91  H    0.105936
    92  H    0.108315
    93  H    0.072606
    94  H    0.140120
    95  H    0.114751
    96  H    0.089358
    97  H    0.087759
    98  H    0.083171
    99  H    0.106174
   100  H    0.088977
   101  H    0.053431
   102  H    0.098778
   103  H    0.046804
   104  H    0.097689
   105  H    0.118985
   106  H    0.104314
   107  H    0.090301
   108  H    0.056694
   109  H    0.101836
   110  H    0.072747
   111  H    0.077482
   112  H    0.097346
   113  H    0.037392
   114  H    0.096352
   115  H    0.105012
   116  H    0.106571
   117  H    0.095747
   118  H    0.078035
   119  H    0.089195
   120  H    0.090557
   121  H    0.083591
   122  H    0.093378
   123  H    0.103075
   124  H    0.097054
   125  H    0.044799
   126  H    0.109611
   127  H    0.098714
   128  H    0.067191
   129  H    0.078247
   130  H    0.124006
   131  H    0.138549
   132  H    0.128673
   133  O   -0.455135
   134  H    0.047361
 Sum of Mulliken charges =   0.00000

 Dipole moment (field-independent basis, Debye):
    X=              1.1186    Y=             -5.7119    Z=             -1.7997  Tot=              6.0923
 Quadrupole moment (field-independent basis, Debye-Ang):
   XX=           -380.9863   YY=           -453.0686   ZZ=           -395.6748
   XY=              3.9065   XZ=             37.7009   YZ=            -29.2219

 Normal termination of Gaussian 09 at Tue Oct  8 03:20:20 2019.
