 Gaussian 09, Revision D.01,
 Gaussian 09:  ES64L-G09RevD.01 24-Apr-2013

 ----------------------------------------------------------------------
 # td=(NStates=1) iop(3/107=0140000000,3/108=0140000000) iop(3/107=0140
 000000,3/108=0140000000) CAM-B3LYP/6-31G(d,p)
 ----------------------------------------------------------------------

 --
 TD
 --
 Symbolic Z-matrix:
 Charge =  0 Multiplicity = 1

                         Standard orientation:
 ---------------------------------------------------------------------
 Center     Atomic      Atomic             Coordinates (Angstroms)
 Number     Number       Type             X           Y           Z
 ---------------------------------------------------------------------
      1         12           0       -5.697777    1.249980    0.236282
      2          6           0       -5.127490   -2.108870   -0.378512
      3          6           0       -3.319641    1.060784    2.718325
      4          6           0       -6.108399    4.594583    0.732883
      5          6           0       -7.918245    1.306972   -2.295445
      6          7           0       -4.453642   -0.288463    1.079564
      7          6           0       -4.394318   -1.609501    0.716867
      8          6           0       -3.319851   -2.305165    1.414196
      9          6           0       -2.920509   -1.453754    2.536029
     10          6           0       -3.524003   -0.100039    2.088233
     11          6           0       -3.516572   -1.923916    3.818861
     12          6           0       -2.013082   -2.635762    0.637733
     13          6           0       -1.071623   -3.569912    1.408269
     14          6           0        0.237461   -3.901533    0.495842
     15          8           0        0.459390   -3.396854   -0.544039
     16          8           0        1.090579   -4.683424    1.165634
     17          7           0       -4.772084    2.619244    1.528083
     18          6           0       -3.868463    2.419299    2.509252
     19          6           0       -3.581653    3.561907    3.206138
     20          6           0       -4.362506    4.597496    2.536291
     21          6           0       -5.092163    3.966982    1.458415
     22          6           0       -2.711264    3.565423    4.352014
     23          6           0       -4.405175    5.962799    2.968701
     24          8           0       -3.805819    6.527727    3.947417
     25          7           0       -6.739830    2.667224   -0.640517
     26          6           0       -6.908195    3.999952   -0.364030
     27          6           0       -7.785368    4.672294   -1.215614
     28          6           0       -8.407646    3.739022   -2.021186
     29          6           0       -7.742202    2.453300   -1.636001
     30          6           0       -8.227827    6.041629   -1.123726
     31          6           0       -9.390198    3.815572   -3.114307
     32          6           0       -8.727116    4.191539   -4.447287
     33          7           0       -6.409323   -0.119678   -1.134233
     34          6           0       -7.268718    0.034087   -2.210276
     35          6           0       -7.546641   -1.329433   -2.770517
     36          6           0       -6.709673   -2.184922   -2.175661
     37          6           0       -6.008487   -1.402382   -1.189814
     38          6           0       -8.468792   -1.634754   -3.894888
     39          6           0       -6.198293   -3.545648   -2.007523
     40          8           0       -6.612250   -4.519223   -2.725743
     41          6           0       -5.107262   -3.502932   -0.905190
     42          6           0       -5.334201   -4.658807    0.102434
     43          8           0       -5.672443   -4.417136    1.214485
     44          8           0       -5.098322   -5.901824   -0.268910
     45          6           0       -5.487454   -7.031867    0.532408
     46          6           0        2.274847   -5.025966    0.584097
     47          6           0        3.303022   -4.039788    0.991932
     48          6           0        3.965028   -3.223229    0.131031
     49          6           0        3.720889   -2.952508   -1.248328
     50          6           0        5.125818   -2.329034    0.712691
     51          6           0        6.437863   -2.622001    0.050270
     52          6           0        7.616150   -1.740412    0.684273
     53          6           0        8.949099   -1.945531    0.057197
     54          6           0        9.483189   -3.482890    0.432463
     55          6           0        9.925564   -0.799870    0.472158
     56          6           0       11.318386   -0.908787   -0.259010
     57          6           0       12.274901    0.237085    0.236618
     58          6           0       13.525821    0.422051   -0.664467
     59          6           0       14.357485   -0.810839   -0.487543
     60          6           0       14.210503    1.754692   -0.160969
     61          6           0       15.458169    2.085045   -1.034700
     62          6           0       15.975200    3.428775   -0.625719
     63          6           0       17.262266    3.844938   -1.451044
     64          6           0       16.963348    3.941653   -2.963160
     65          6           0       17.737227    5.211914   -0.863857
     66          1           0       -2.465923    0.984719    3.600794
     67          1           0       -6.375413    5.721312    0.835606
     68          1           0       -8.780172    1.186873   -3.132302
     69          1           0       -3.623282   -3.362604    1.702157
     70          1           0       -1.890079   -1.413019    2.622880
     71          1           0       -3.043943   -2.906725    3.873480
     72          1           0       -3.322221   -1.452937    4.834622
     73          1           0       -4.627910   -1.966247    3.579078
     74          1           0       -2.351568   -3.007504   -0.380860
     75          1           0       -1.432732   -1.691750    0.454593
     76          1           0       -0.638990   -3.155763    2.380582
     77          1           0       -1.468370   -4.650862    1.299213
     78          1           0       -1.613585    3.130705    4.458986
     79          1           0       -2.716393    4.579898    4.583225
     80          1           0       -3.265753    3.182556    5.326566
     81          1           0       -5.039283    6.745374    2.262979
     82          1           0       -9.935908    2.800646   -3.120720
     83          1           0       -9.998400    4.740378   -2.628854
     84          1           0       -9.471002    4.126267   -5.199967
     85          1           0       -8.303125    5.108152   -4.420691
     86          1           0       -8.140448    3.188834   -4.612499
     87          1           0       -8.353960   -0.936156   -4.709619
     88          1           0       -8.507982   -2.610978   -4.465265
     89          1           0       -9.554046   -1.438996   -3.902040
     90          1           0       -4.165985   -3.792099   -1.533285
     91          1           0        2.512080   -5.890151    0.992061
     92          1           0        2.300871   -5.115278   -0.466385
     93          1           0        3.465262   -3.786156    2.160698
     94          1           0        2.805667   -3.016577   -1.492258
     95          1           0        3.815909   -1.993880   -1.576176
     96          1           0        4.306016   -3.536455   -2.126936
     97          1           0        4.824698   -1.275351    0.413253
     98          1           0        5.363919   -2.511744    1.750985
     99          1           0        6.778984   -3.590446    0.402667
    100          1           0        6.409367   -2.514395   -1.065951
    101          1           0        7.352351   -0.658028    0.672635
    102          1           0        7.732634   -1.809106    1.732132
    103          1           0        8.809431   -1.993795   -1.105101
    104          1           0        8.695579   -4.343241    0.364188
    105          1           0       10.284063   -3.861963   -0.129947
    106          1           0        9.943261   -3.442180    1.589322
    107          1           0        9.307360    0.173601    0.193715
    108          1           0       10.169997   -0.937843    1.558955
    109          1           0       11.845524   -1.818550   -0.059693
    110          1           0       11.241776   -0.840030   -1.438723
    111          1           0       11.828665    1.208583    0.478107
    112          1           0       12.516078   -0.076532    1.349534
    113          1           0       13.137862    0.741152   -1.555449
    114          1           0       14.457018   -0.856373    0.611729
    115          1           0       13.808007   -1.726238   -0.899126
    116          1           0       15.386945   -0.721957   -0.860403
    117          1           0       13.473723    2.730391   -0.349311
    118          1           0       14.354293    1.765841    0.831978
    119          1           0       16.238525    1.347346   -1.232656
    120          1           0       15.339766    1.984813   -2.184379
    121          1           0       15.057256    4.122246   -0.856817
    122          1           0       16.122625    3.197362    0.402640
    123          1           0       18.050341    3.110983   -1.307062
    124          1           0       16.063512    4.526882   -3.229271
    125          1           0       17.913349    4.139995   -3.445099
    126          1           0       16.774821    2.839631   -3.374534
    127          1           0       17.743334    5.192189    0.203504
    128          1           0       18.978186    5.404058   -0.886599
    129          1           0       17.060672    6.052247   -1.126621
    130          1           0       -4.972127   -7.943180    0.049693
    131          1           0       -6.440578   -6.952442    0.713993
    132          1           0       -4.853700   -6.750460    1.586165
    133          8           0       -7.638008    6.881312   -0.326374
    134          1           0       -8.999643    6.463853   -1.824620
 ---------------------------------------------------------------------

 SCF Done:  E(RCAM-B3LYP) =  -3043.42684621     A.U. after   16 cycles

 Excitation energies and oscillator strengths:

 Excited State   1:      Singlet-A      1.8963 eV  653.81 nm  f=0.2333  <S**2>=0.000
     243 -> 246       -0.20712
     244 -> 245        0.66633
 This state for optimization and/or second-order correction.
 Total Energy, E(TD-HF/TD-KS) =  -3043.35715772
 Copying the excited state density for this state as the 1-particle RhoCI density.

 The electronic state is 1-A.
 Alpha  occ. eigenvalues --  -46.81767 -19.22660 -19.22484 -19.17719 -19.17706
 Alpha  occ. eigenvalues --  -19.17180 -19.16886 -19.15882 -14.38800 -14.38085
 Alpha  occ. eigenvalues --  -14.36906 -14.36642 -10.35487 -10.35248 -10.32274
 Alpha  occ. eigenvalues --  -10.31860 -10.30079 -10.29253 -10.27710 -10.27301
 Alpha  occ. eigenvalues --  -10.27300 -10.26789 -10.26750 -10.26686 -10.26491
 Alpha  occ. eigenvalues --  -10.26398 -10.25988 -10.25827 -10.25826 -10.25789
 Alpha  occ. eigenvalues --  -10.25727 -10.25722 -10.25483 -10.25014 -10.23987
 Alpha  occ. eigenvalues --  -10.23926 -10.23885 -10.23816 -10.23669 -10.23502
 Alpha  occ. eigenvalues --  -10.23044 -10.22834 -10.22822 -10.22820 -10.22780
 Alpha  occ. eigenvalues --  -10.22691 -10.22569 -10.22482 -10.22186 -10.22140
 Alpha  occ. eigenvalues --  -10.22111 -10.21965 -10.21733 -10.21584 -10.21255
 Alpha  occ. eigenvalues --  -10.21226 -10.21063 -10.21006 -10.21003 -10.20753
 Alpha  occ. eigenvalues --  -10.20648 -10.20624 -10.20553 -10.20242 -10.20108
 Alpha  occ. eigenvalues --  -10.19158  -3.10330  -1.85266  -1.84817  -1.84729
 Alpha  occ. eigenvalues --   -1.16014  -1.15298  -1.07531  -1.05862  -1.03974
 Alpha  occ. eigenvalues --   -1.03517  -1.02177  -1.00865  -0.99957  -0.99778
 Alpha  occ. eigenvalues --   -0.98979  -0.89375  -0.87011  -0.86791  -0.85964
 Alpha  occ. eigenvalues --   -0.85014  -0.84593  -0.84395  -0.83643  -0.83445
 Alpha  occ. eigenvalues --   -0.82911  -0.82722  -0.81803  -0.80756  -0.80247
 Alpha  occ. eigenvalues --   -0.79338  -0.78652  -0.78242  -0.77208  -0.76950
 Alpha  occ. eigenvalues --   -0.75276  -0.74840  -0.74275  -0.74016  -0.72561
 Alpha  occ. eigenvalues --   -0.71562  -0.70484  -0.70412  -0.70003  -0.69814
 Alpha  occ. eigenvalues --   -0.69468  -0.68371  -0.67871  -0.67173  -0.66541
 Alpha  occ. eigenvalues --   -0.65759  -0.64912  -0.63927  -0.62649  -0.62168
 Alpha  occ. eigenvalues --   -0.61637  -0.60903  -0.60630  -0.59882  -0.59347
 Alpha  occ. eigenvalues --   -0.58864  -0.58411  -0.58035  -0.57903  -0.57441
 Alpha  occ. eigenvalues --   -0.56585  -0.56441  -0.56020  -0.55527  -0.55220
 Alpha  occ. eigenvalues --   -0.54169  -0.53854  -0.53408  -0.53029  -0.52854
 Alpha  occ. eigenvalues --   -0.52464  -0.51921  -0.51876  -0.51071  -0.50683
 Alpha  occ. eigenvalues --   -0.50455  -0.50130  -0.50041  -0.49487  -0.49165
 Alpha  occ. eigenvalues --   -0.48860  -0.48748  -0.48636  -0.47993  -0.47843
 Alpha  occ. eigenvalues --   -0.47650  -0.47424  -0.47105  -0.46710  -0.46561
 Alpha  occ. eigenvalues --   -0.46186  -0.46074  -0.45948  -0.45621  -0.45470
 Alpha  occ. eigenvalues --   -0.45306  -0.45050  -0.44969  -0.44580  -0.44374
 Alpha  occ. eigenvalues --   -0.44288  -0.44011  -0.43882  -0.43732  -0.43568
 Alpha  occ. eigenvalues --   -0.43290  -0.42969  -0.42777  -0.42448  -0.42161
 Alpha  occ. eigenvalues --   -0.42121  -0.41959  -0.41752  -0.41639  -0.41566
 Alpha  occ. eigenvalues --   -0.41432  -0.41270  -0.40982  -0.40847  -0.40790
 Alpha  occ. eigenvalues --   -0.40608  -0.40426  -0.40287  -0.40148  -0.39943
 Alpha  occ. eigenvalues --   -0.39625  -0.39427  -0.39365  -0.39098  -0.39029
 Alpha  occ. eigenvalues --   -0.38736  -0.38613  -0.38415  -0.38327  -0.38187
 Alpha  occ. eigenvalues --   -0.37808  -0.37568  -0.37383  -0.37302  -0.37135
 Alpha  occ. eigenvalues --   -0.36692  -0.36498  -0.36463  -0.36318  -0.36240
 Alpha  occ. eigenvalues --   -0.35375  -0.35315  -0.35248  -0.34881  -0.34742
 Alpha  occ. eigenvalues --   -0.34541  -0.34249  -0.34160  -0.33942  -0.33134
 Alpha  occ. eigenvalues --   -0.33061  -0.32449  -0.32317  -0.31652  -0.31244
 Alpha  occ. eigenvalues --   -0.30900  -0.30859  -0.30563  -0.29798  -0.29328
 Alpha  occ. eigenvalues --   -0.29083  -0.28882  -0.28512  -0.27953  -0.26831
 Alpha  occ. eigenvalues --   -0.26601  -0.26268  -0.23443  -0.21499
 Alpha virt. eigenvalues --   -0.09380  -0.06981  -0.02295  -0.01953  -0.00043
 Alpha virt. eigenvalues --    0.02621   0.03352   0.03682   0.03859   0.04962
 Alpha virt. eigenvalues --    0.05227   0.05402   0.06783   0.07738   0.08665

 Mulliken charges:
               1
     1  Mg   0.834792
     2  C    0.086596
     3  C   -0.204995
     4  C   -0.177815
     5  C   -0.223886
     6  N   -0.645948
     7  C    0.370629
     8  C   -0.164158
     9  C   -0.128082
    10  C    0.354852
    11  C   -0.287066
    12  C   -0.173450
    13  C   -0.259808
    14  C    0.554210
    15  O   -0.425610
    16  O   -0.428393
    17  N   -0.709946
    18  C    0.325225
    19  C    0.081897
    20  C   -0.024961
    21  C    0.329245
    22  C   -0.415585
    23  C    0.206972
    24  O   -0.451416
    25  N   -0.696699
    26  C    0.296895
    27  C    0.008341
    28  C    0.063415
    29  C    0.314057
    30  C    0.213158
    31  C   -0.260864
    32  C   -0.284343
    33  N   -0.703259
    34  C    0.249395
    35  C   -0.009573
    36  C    0.136177
    37  C    0.258967
    38  C   -0.419093
    39  C    0.346680
    40  O   -0.485204
    41  C   -0.341638
    42  C    0.606672
    43  O   -0.452256
    44  O   -0.444003
    45  C   -0.063263
    46  C    0.018504
    47  C   -0.168445
    48  C    0.152272
    49  C   -0.377881
    50  C   -0.214436
    51  C   -0.175320
    52  C   -0.174873
    53  C   -0.038973
    54  C   -0.321687
    55  C   -0.168088
    56  C   -0.178955
    57  C   -0.184247
    58  C   -0.039777
    59  C   -0.301402
    60  C   -0.179121
    61  C   -0.189827
    62  C   -0.148068
    63  C   -0.056605
    64  C   -0.300598
    65  C   -0.304002
    66  H    0.072157
    67  H    0.160536
    68  H    0.074532
    69  H    0.120972
    70  H    0.098934
    71  H    0.107123
    72  H    0.105879
    73  H    0.118825
    74  H    0.101638
    75  H    0.115176
    76  H    0.139628
    77  H    0.130040
    78  H    0.119757
    79  H    0.161857
    80  H    0.117101
    81  H    0.060186
    82  H    0.116324
    83  H    0.089980
    84  H    0.124350
    85  H    0.130046
    86  H    0.106735
    87  H    0.126537
    88  H    0.150380
    89  H    0.124251
    90  H    0.161917
    91  H    0.114460
    92  H    0.124062
    93  H    0.073934
    94  H    0.144146
    95  H    0.121877
    96  H    0.091483
    97  H    0.090127
    98  H    0.091453
    99  H    0.105286
   100  H    0.093329
   101  H    0.073142
   102  H    0.093237
   103  H    0.070862
   104  H    0.095244
   105  H    0.114149
   106  H    0.063557
   107  H    0.089082
   108  H    0.093512
   109  H    0.109810
   110  H    0.071520
   111  H    0.084998
   112  H    0.059841
   113  H    0.099248
   114  H    0.104892
   115  H    0.100766
   116  H    0.099126
   117  H    0.059866
   118  H    0.102546
   119  H    0.085574
   120  H    0.067056
   121  H    0.077505
   122  H    0.099997
   123  H    0.090105
   124  H    0.110358
   125  H    0.111267
   126  H    0.074824
   127  H    0.108864
   128  H    0.059751
   129  H    0.104607
   130  H    0.139643
   131  H    0.152831
   132  H    0.096809
   133  O   -0.448418
   134  H    0.093487
 Sum of Mulliken charges =   0.00000

 Dipole moment (field-independent basis, Debye):
    X=              0.1458    Y=             -6.3016    Z=             -2.6868  Tot=              6.8520
 Quadrupole moment (field-independent basis, Debye-Ang):
   XX=           -360.7725   YY=           -440.2381   ZZ=           -397.2620
   XY=              0.4261   XZ=             34.5943   YZ=            -42.0249

 Normal termination of Gaussian 09 at Fri Oct  4 00:33:25 2019.
