 Gaussian 09, Revision D.01,
 Gaussian 09:  ES64L-G09RevD.01 24-Apr-2013

 ----------------------------------------------------------------------
 # td=(NStates=1) iop(3/107=0140000000,3/108=0140000000) iop(3/107=0140
 000000,3/108=0140000000) CAM-B3LYP/6-31G(d,p)
 ----------------------------------------------------------------------

 --
 TD
 --
 Symbolic Z-matrix:
 Charge =  0 Multiplicity = 1

                         Standard orientation:
 ---------------------------------------------------------------------
 Center     Atomic      Atomic             Coordinates (Angstroms)
 Number     Number       Type             X           Y           Z
 ---------------------------------------------------------------------
      1         12           0       -5.707991    1.255040    0.269674
      2          6           0       -5.014219   -2.124187   -0.375376
      3          6           0       -3.479655    1.146834    2.783813
      4          6           0       -6.206203    4.480456    0.567327
      5          6           0       -8.023618    1.144012   -2.324806
      6          7           0       -4.408157   -0.272935    1.137770
      7          6           0       -4.225155   -1.615149    0.716746
      8          6           0       -3.190336   -2.376555    1.428312
      9          6           0       -2.950047   -1.316807    2.594299
     10          6           0       -3.538681   -0.054353    2.201376
     11          6           0       -3.572246   -1.824308    3.884422
     12          6           0       -1.989340   -2.567631    0.622046
     13          6           0       -1.068845   -3.560062    1.389996
     14          6           0        0.236865   -3.913857    0.656611
     15          8           0        0.390232   -3.642613   -0.582882
     16          8           0        1.127331   -4.700209    1.273424
     17          7           0       -4.989783    2.612645    1.504983
     18          6           0       -4.079973    2.399716    2.537394
     19          6           0       -3.725231    3.703029    3.128626
     20          6           0       -4.425175    4.588736    2.397341
     21          6           0       -5.251401    3.959631    1.408048
     22          6           0       -2.696154    3.861878    4.235872
     23          6           0       -4.526472    6.112369    2.829871
     24          8           0       -3.986542    6.559997    3.872127
     25          7           0       -6.882945    2.589087   -0.793267
     26          6           0       -7.002728    3.887072   -0.318139
     27          6           0       -8.017264    4.610653   -1.205726
     28          6           0       -8.529665    3.641978   -1.919697
     29          6           0       -7.892555    2.359213   -1.696467
     30          6           0       -8.448818    6.030308   -1.165502
     31          6           0       -9.548520    3.765664   -3.198008
     32          6           0       -8.803033    4.010179   -4.495331
     33          7           0       -6.353504   -0.094114   -1.083395
     34          6           0       -7.396539   -0.127802   -2.084232
     35          6           0       -7.577205   -1.322164   -2.640510
     36          6           0       -6.651963   -2.178640   -2.097931
     37          6           0       -6.002239   -1.373259   -1.106694
     38          6           0       -8.456179   -1.601248   -3.786217
     39          6           0       -6.228986   -3.560484   -1.967956
     40          8           0       -6.613588   -4.546081   -2.577277
     41          6           0       -5.047791   -3.475727   -0.972883
     42          6           0       -5.311273   -4.695632    0.058062
     43          8           0       -5.659474   -4.420243    1.221757
     44          8           0       -4.939479   -5.858150   -0.439034
     45          6           0       -5.462006   -6.987727    0.286145
     46          6           0        2.287859   -5.057564    0.702270
     47          6           0        3.437739   -4.049719    1.121083
     48          6           0        4.055956   -3.286091    0.312308
     49          6           0        3.790907   -3.206137   -1.208348
     50          6           0        5.310316   -2.452769    0.802341
     51          6           0        6.629966   -2.700859    0.055083
     52          6           0        7.662777   -1.686878    0.629694
     53          6           0        8.949390   -1.905089   -0.059018
     54          6           0        9.572142   -3.288081    0.032100
     55          6           0        9.990440   -0.865329    0.429346
     56          6           0       11.300943   -0.775506   -0.282707
     57          6           0       12.236307    0.423780    0.203111
     58          6           0       13.642589    0.498316   -0.538481
     59          6           0       14.443091   -0.822727   -0.242695
     60          6           0       14.392459    1.753839   -0.125726
     61          6           0       15.530816    2.126937   -1.052466
     62          6           0       16.243209    3.381788   -0.719013
     63          6           0       17.417269    3.862854   -1.446478
     64          6           0       17.092164    4.113526   -2.906887
     65          6           0       17.952253    5.119890   -0.810089
     66          1           0       -2.625327    1.260766    3.624297
     67          1           0       -6.348246    5.515934    0.675536
     68          1           0       -8.689850    1.157727   -3.104363
     69          1           0       -3.530283   -3.197736    1.882758
     70          1           0       -1.826164   -1.002142    2.733474
     71          1           0       -3.257406   -2.872009    4.162357
     72          1           0       -3.386916   -1.162375    4.931540
     73          1           0       -4.696827   -1.871393    3.999922
     74          1           0       -2.117977   -3.082971   -0.315332
     75          1           0       -1.363389   -1.594127    0.328823
     76          1           0       -0.773889   -3.079958    2.426226
     77          1           0       -1.553411   -4.603291    1.537630
     78          1           0       -1.691551    3.723733    3.992285
     79          1           0       -2.701399    4.796453    4.724061
     80          1           0       -2.826278    2.905074    4.958956
     81          1           0       -5.257465    6.784119    2.357347
     82          1           0      -10.262308    2.810998   -3.295923
     83          1           0      -10.223158    4.561148   -3.043708
     84          1           0       -9.548367    4.070522   -5.394229
     85          1           0       -8.276142    4.914762   -4.310441
     86          1           0       -8.070305    3.303367   -4.465471
     87          1           0       -8.079926   -0.975460   -4.623579
     88          1           0       -8.787659   -2.704162   -3.926721
     89          1           0       -9.481939   -1.138904   -3.537588
     90          1           0       -3.975640   -3.779145   -1.257309
     91          1           0        2.364986   -6.154249    0.967727
     92          1           0        2.186377   -5.005257   -0.421151
     93          1           0        3.617529   -4.126303    2.185954
     94          1           0        2.787891   -3.400502   -1.417049
     95          1           0        4.073493   -2.245957   -1.547250
     96          1           0        4.523047   -4.030815   -1.861200
     97          1           0        4.900446   -1.424573    0.657643
     98          1           0        5.528192   -2.456059    2.037614
     99          1           0        6.847581   -3.730106    0.235372
    100          1           0        6.473864   -2.384126   -0.976898
    101          1           0        7.187328   -0.670439    0.425163
    102          1           0        7.923736   -1.923120    1.796446
    103          1           0        8.875675   -1.610137   -1.032764
    104          1           0        8.944410   -4.093156   -0.343827
    105          1           0       10.521245   -3.376105   -0.454777
    106          1           0        9.452564   -3.529008    1.231458
    107          1           0        9.436658    0.050488    0.181409
    108          1           0        9.994915   -1.017775    1.352833
    109          1           0       11.747066   -1.626801   -0.039215
    110          1           0       11.527255   -0.826766   -1.274636
    111          1           0       11.714063    1.411040    0.162588
    112          1           0       12.535147    0.169552    1.199641
    113          1           0       13.399596    0.564330   -1.654090
    114          1           0       14.781419   -0.878889    0.823550
    115          1           0       13.840302   -1.737024   -0.759573
    116          1           0       15.433850   -0.594904   -0.787120
    117          1           0       13.699150    2.527436   -0.423102
    118          1           0       14.649095    1.632116    0.968115
    119          1           0       16.332456    1.318822   -1.254052
    120          1           0       15.117171    2.001068   -2.046001
    121          1           0       15.396011    4.106274   -0.723628
    122          1           0       16.538043    3.409932    0.517086
    123          1           0       18.163026    3.050447   -1.298072
    124          1           0       16.227428    4.892825   -3.025788
    125          1           0       18.012423    4.323674   -3.486332
    126          1           0       16.721457    3.177115   -3.500148
    127          1           0       18.043449    5.098140    0.295629
    128          1           0       18.914459    5.371998   -1.337505
    129          1           0       17.348542    6.140220   -1.099524
    130          1           0       -5.286897   -7.913851   -0.352816
    131          1           0       -6.505640   -6.690780    0.673471
    132          1           0       -4.833330   -6.873941    1.377582
    133          8           0       -7.908297    6.836187   -0.445292
    134          1           0       -9.164150    6.337996   -1.812206
 ---------------------------------------------------------------------

 SCF Done:  E(RCAM-B3LYP) =  -3043.45479650     A.U. after   16 cycles

 Excitation energies and oscillator strengths:

 Excited State   1:      Singlet-A      2.0273 eV  611.57 nm  f=0.2180  <S**2>=0.000
     243 -> 245       -0.10265
     243 -> 246        0.24705
     244 -> 245        0.64447
 This state for optimization and/or second-order correction.
 Total Energy, E(TD-HF/TD-KS) =  -3043.38029406
 Copying the excited state density for this state as the 1-particle RhoCI density.

 The electronic state is 1-A.
 Alpha  occ. eigenvalues --  -46.80826 -19.24261 -19.22938 -19.17952 -19.17605
 Alpha  occ. eigenvalues --  -19.17506 -19.16532 -19.16524 -14.38793 -14.36781
 Alpha  occ. eigenvalues --  -14.36542 -14.35972 -10.35818 -10.35767 -10.31406
 Alpha  occ. eigenvalues --  -10.30960 -10.30615 -10.30412 -10.27562 -10.27443
 Alpha  occ. eigenvalues --  -10.27015 -10.26684 -10.26420 -10.26192 -10.26126
 Alpha  occ. eigenvalues --  -10.25947 -10.25340 -10.25259 -10.24983 -10.24970
 Alpha  occ. eigenvalues --  -10.24770 -10.24544 -10.24223 -10.24165 -10.24088
 Alpha  occ. eigenvalues --  -10.23699 -10.23606 -10.23597 -10.23583 -10.23360
 Alpha  occ. eigenvalues --  -10.23354 -10.23274 -10.23238 -10.23027 -10.22546
 Alpha  occ. eigenvalues --  -10.22445 -10.22067 -10.22021 -10.21953 -10.21897
 Alpha  occ. eigenvalues --  -10.21786 -10.21714 -10.21623 -10.21500 -10.21448
 Alpha  occ. eigenvalues --  -10.21338 -10.21324 -10.21247 -10.21058 -10.20748
 Alpha  occ. eigenvalues --  -10.20608 -10.20604 -10.20301 -10.19780 -10.18561
 Alpha  occ. eigenvalues --  -10.18417  -3.09484  -1.84416  -1.83976  -1.83883
 Alpha  occ. eigenvalues --   -1.15154  -1.14902  -1.08285  -1.06263  -1.04856
 Alpha  occ. eigenvalues --   -1.04434  -1.02434  -1.00274  -0.99524  -0.99136
 Alpha  occ. eigenvalues --   -0.98347  -0.88164  -0.86887  -0.86587  -0.85819
 Alpha  occ. eigenvalues --   -0.85544  -0.84710  -0.84663  -0.84277  -0.83534
 Alpha  occ. eigenvalues --   -0.83444  -0.82654  -0.81579  -0.80780  -0.80120
 Alpha  occ. eigenvalues --   -0.79233  -0.78673  -0.77862  -0.77170  -0.76541
 Alpha  occ. eigenvalues --   -0.75318  -0.74552  -0.73702  -0.72544  -0.71818
 Alpha  occ. eigenvalues --   -0.71080  -0.70755  -0.70153  -0.69958  -0.69738
 Alpha  occ. eigenvalues --   -0.69338  -0.69192  -0.67953  -0.66508  -0.65860
 Alpha  occ. eigenvalues --   -0.65449  -0.65266  -0.64172  -0.62931  -0.62523
 Alpha  occ. eigenvalues --   -0.62223  -0.61526  -0.60529  -0.59493  -0.58970
 Alpha  occ. eigenvalues --   -0.58603  -0.58533  -0.58355  -0.57171  -0.56960
 Alpha  occ. eigenvalues --   -0.56927  -0.56205  -0.55804  -0.55462  -0.54943
 Alpha  occ. eigenvalues --   -0.53774  -0.53060  -0.52691  -0.52608  -0.52398
 Alpha  occ. eigenvalues --   -0.52184  -0.52001  -0.51789  -0.51452  -0.50783
 Alpha  occ. eigenvalues --   -0.50672  -0.49833  -0.49775  -0.49589  -0.49276
 Alpha  occ. eigenvalues --   -0.48736  -0.48545  -0.48173  -0.48012  -0.47756
 Alpha  occ. eigenvalues --   -0.47559  -0.47482  -0.47305  -0.47030  -0.46851
 Alpha  occ. eigenvalues --   -0.46691  -0.46282  -0.45981  -0.45891  -0.45734
 Alpha  occ. eigenvalues --   -0.45664  -0.45505  -0.45367  -0.45264  -0.45158
 Alpha  occ. eigenvalues --   -0.45031  -0.44559  -0.44137  -0.43686  -0.43413
 Alpha  occ. eigenvalues --   -0.43125  -0.42949  -0.42802  -0.42635  -0.42400
 Alpha  occ. eigenvalues --   -0.42176  -0.42049  -0.41834  -0.41608  -0.41483
 Alpha  occ. eigenvalues --   -0.41342  -0.41064  -0.40842  -0.40824  -0.40522
 Alpha  occ. eigenvalues --   -0.40459  -0.40348  -0.40241  -0.40054  -0.39913
 Alpha  occ. eigenvalues --   -0.39714  -0.39510  -0.39466  -0.39269  -0.39177
 Alpha  occ. eigenvalues --   -0.38864  -0.38619  -0.38485  -0.38268  -0.38077
 Alpha  occ. eigenvalues --   -0.37910  -0.37597  -0.37515  -0.37342  -0.37034
 Alpha  occ. eigenvalues --   -0.36749  -0.36283  -0.35745  -0.35572  -0.35535
 Alpha  occ. eigenvalues --   -0.35214  -0.35118  -0.35062  -0.34607  -0.34487
 Alpha  occ. eigenvalues --   -0.34187  -0.34173  -0.34004  -0.33564  -0.33229
 Alpha  occ. eigenvalues --   -0.32901  -0.32435  -0.32410  -0.31529  -0.31382
 Alpha  occ. eigenvalues --   -0.31043  -0.30748  -0.30076  -0.29974  -0.29798
 Alpha  occ. eigenvalues --   -0.29392  -0.29016  -0.28235  -0.28112  -0.27846
 Alpha  occ. eigenvalues --   -0.27739  -0.27330  -0.22466  -0.21702
 Alpha virt. eigenvalues --   -0.08852  -0.05706  -0.01511  -0.01161   0.00609
 Alpha virt. eigenvalues --    0.02147   0.03015   0.03582   0.04330   0.04887
 Alpha virt. eigenvalues --    0.05286   0.05356   0.07853   0.08561   0.09357

 Mulliken charges:
               1
     1  Mg   0.814900
     2  C    0.115557
     3  C   -0.209219
     4  C   -0.167114
     5  C   -0.193565
     6  N   -0.622204
     7  C    0.285833
     8  C   -0.106310
     9  C   -0.165257
    10  C    0.395941
    11  C   -0.313572
    12  C   -0.163447
    13  C   -0.264704
    14  C    0.575614
    15  O   -0.495861
    16  O   -0.402832
    17  N   -0.748694
    18  C    0.296456
    19  C    0.087941
    20  C   -0.098176
    21  C    0.348254
    22  C   -0.379377
    23  C    0.249623
    24  O   -0.416230
    25  N   -0.677975
    26  C    0.282334
    27  C   -0.001190
    28  C   -0.030724
    29  C    0.330403
    30  C    0.273767
    31  C   -0.244841
    32  C   -0.289977
    33  N   -0.713365
    34  C    0.272569
    35  C    0.045964
    36  C    0.020787
    37  C    0.290765
    38  C   -0.387919
    39  C    0.385518
    40  O   -0.471227
    41  C   -0.349350
    42  C    0.581796
    43  O   -0.482800
    44  O   -0.403068
    45  C   -0.090914
    46  C   -0.024755
    47  C   -0.124528
    48  C    0.127360
    49  C   -0.359871
    50  C   -0.226798
    51  C   -0.163029
    52  C   -0.159162
    53  C   -0.065743
    54  C   -0.305235
    55  C   -0.145134
    56  C   -0.198311
    57  C   -0.169935
    58  C   -0.086684
    59  C   -0.301429
    60  C   -0.150550
    61  C   -0.181777
    62  C   -0.127896
    63  C   -0.038185
    64  C   -0.305309
    65  C   -0.295297
    66  H    0.068140
    67  H    0.114299
    68  H    0.070008
    69  H    0.130390
    70  H    0.097294
    71  H    0.111594
    72  H    0.083507
    73  H    0.135419
    74  H    0.134679
    75  H    0.116350
    76  H    0.122742
    77  H    0.137712
    78  H    0.139505
    79  H    0.162862
    80  H    0.093415
    81  H    0.104796
    82  H    0.088826
    83  H    0.108228
    84  H    0.106724
    85  H    0.113456
    86  H    0.122791
    87  H    0.137577
    88  H    0.142658
    89  H    0.107072
    90  H    0.151268
    91  H    0.104559
    92  H    0.117766
    93  H    0.083080
    94  H    0.154901
    95  H    0.113677
    96  H    0.079163
    97  H    0.095615
    98  H    0.064094
    99  H    0.114384
   100  H    0.104858
   101  H    0.093976
   102  H    0.063752
   103  H    0.089709
   104  H    0.102867
   105  H    0.112448
   106  H    0.064573
   107  H    0.076358
   108  H    0.090199
   109  H    0.105427
   110  H    0.089877
   111  H    0.079365
   112  H    0.090331
   113  H    0.067104
   114  H    0.104544
   115  H    0.089494
   116  H    0.094832
   117  H    0.101473
   118  H    0.087152
   119  H    0.062439
   120  H    0.095333
   121  H    0.078697
   122  H    0.041737
   123  H    0.090721
   124  H    0.098095
   125  H    0.102696
   126  H    0.087917
   127  H    0.104474
   128  H    0.095134
   129  H    0.076449
   130  H    0.144543
   131  H    0.146915
   132  H    0.103497
   133  O   -0.407599
   134  H    0.080221
 Sum of Mulliken charges =   0.00000

 Dipole moment (field-independent basis, Debye):
    X=              0.9640    Y=             -3.5653    Z=             -1.0478  Tot=              3.8391
 Quadrupole moment (field-independent basis, Debye-Ang):
   XX=           -369.6555   YY=           -423.6665   ZZ=           -399.5500
   XY=              2.8722   XZ=             13.9379   YZ=            -37.0131

 Normal termination of Gaussian 09 at Sat Oct  5 08:18:03 2019.
