 Gaussian 09, Revision D.01,
 Gaussian 09:  ES64L-G09RevD.01 24-Apr-2013

 ----------------------------------------------------------------------
 # td=(NStates=1) iop(3/107=0140000000,3/108=0140000000) iop(3/107=0140
 000000,3/108=0140000000) CAM-B3LYP/6-31G(d,p)
 ----------------------------------------------------------------------

 --
 TD
 --
 Symbolic Z-matrix:
 Charge =  0 Multiplicity = 1

                         Standard orientation:
 ---------------------------------------------------------------------
 Center     Atomic      Atomic             Coordinates (Angstroms)
 Number     Number       Type             X           Y           Z
 ---------------------------------------------------------------------
      1         12           0       -5.579773    1.274170    0.168125
      2          6           0       -5.046924   -2.238014   -0.459075
      3          6           0       -3.353366    1.053528    2.699400
      4          6           0       -6.138123    4.529967    0.756683
      5          6           0       -7.951013    1.331404   -2.404953
      6          7           0       -4.387485   -0.297743    0.981339
      7          6           0       -4.250294   -1.661617    0.550103
      8          6           0       -3.205754   -2.458598    1.296212
      9          6           0       -2.943433   -1.529842    2.550004
     10          6           0       -3.552625   -0.137101    2.067410
     11          6           0       -3.456386   -1.836909    3.934638
     12          6           0       -1.978506   -2.728176    0.577284
     13          6           0       -0.981998   -3.563001    1.311024
     14          6           0        0.269364   -3.896062    0.548598
     15          8           0        0.487386   -3.336512   -0.491686
     16          8           0        1.067486   -4.868085    1.221451
     17          7           0       -4.847872    2.536911    1.487358
     18          6           0       -3.912630    2.291779    2.507406
     19          6           0       -3.625832    3.455074    3.185160
     20          6           0       -4.450298    4.542038    2.607655
     21          6           0       -5.157838    3.889463    1.526374
     22          6           0       -2.588400    3.686084    4.322535
     23          6           0       -4.521349    5.952856    2.916788
     24          8           0       -3.874538    6.487924    3.919874
     25          7           0       -6.864167    2.735373   -0.591736
     26          6           0       -6.896274    4.034579   -0.303144
     27          6           0       -7.842934    4.695212   -1.186635
     28          6           0       -8.447606    3.749631   -1.956622
     29          6           0       -7.770473    2.486861   -1.688580
     30          6           0       -8.292233    6.143804   -1.076297
     31          6           0       -9.389158    3.922402   -3.068426
     32          6           0       -8.692013    4.084605   -4.435028
     33          7           0       -6.345721   -0.014244   -1.116823
     34          6           0       -7.362394    0.095803   -2.077819
     35          6           0       -7.600624   -1.178020   -2.725123
     36          6           0       -6.687576   -2.114368   -2.142013
     37          6           0       -6.032573   -1.404411   -1.044320
     38          6           0       -8.706069   -1.435106   -3.682170
     39          6           0       -6.256280   -3.488890   -2.061902
     40          8           0       -6.675009   -4.385611   -2.697768
     41          6           0       -5.117532   -3.569253   -0.946284
     42          6           0       -5.309294   -4.628421    0.121629
     43          8           0       -5.789393   -4.486601    1.186093
     44          8           0       -5.081314   -5.940072   -0.315002
     45          6           0       -5.268183   -6.919650    0.522961
     46          6           0        2.385121   -5.168245    0.473349
     47          6           0        3.410733   -4.184867    0.915101
     48          6           0        3.912864   -3.313390    0.181144
     49          6           0        3.625143   -3.069684   -1.348984
     50          6           0        4.991864   -2.382962    0.705250
     51          6           0        6.518813   -2.795089    0.115392
     52          6           0        7.663461   -1.856502    0.609274
     53          6           0        8.969013   -2.130607   -0.009985
     54          6           0        9.632769   -3.406707    0.202142
     55          6           0       10.013847   -0.971079    0.479368
     56          6           0       11.283576   -0.884995   -0.258541
     57          6           0       12.185722    0.301781    0.227678
     58          6           0       13.450481    0.470139   -0.589558
     59          6           0       14.532731   -0.722647   -0.399792
     60          6           0       14.190965    1.808536   -0.220515
     61          6           0       15.386078    2.255197   -1.029594
     62          6           0       15.995732    3.650873   -0.672856
     63          6           0       17.284381    4.010461   -1.298044
     64          6           0       17.187795    4.017729   -2.816924
     65          6           0       17.866298    5.294554   -0.797524
     66          1           0       -2.751931    1.083037    3.643173
     67          1           0       -6.362234    5.627455    1.018566
     68          1           0       -8.781215    1.340908   -3.096602
     69          1           0       -3.757773   -3.391872    1.527854
     70          1           0       -1.804241   -1.317641    2.585072
     71          1           0       -3.131737   -2.724314    4.349730
     72          1           0       -3.400669   -0.964845    4.596994
     73          1           0       -4.399610   -1.914535    3.796714
     74          1           0       -2.353829   -3.432032   -0.213887
     75          1           0       -1.583202   -1.844070    0.097250
     76          1           0       -0.732006   -3.228470    2.256946
     77          1           0       -1.286736   -4.629039    1.528976
     78          1           0       -1.760541    3.449110    3.790747
     79          1           0       -2.587451    4.767483    4.678058
     80          1           0       -2.807355    3.271448    5.277521
     81          1           0       -5.553101    6.363912    2.462688
     82          1           0      -10.094562    3.181885   -3.415815
     83          1           0      -10.028108    4.731816   -2.834078
     84          1           0       -9.596814    4.208275   -5.049167
     85          1           0       -8.319479    5.131199   -4.494799
     86          1           0       -8.055368    3.339086   -4.822304
     87          1           0       -8.413586   -0.894536   -4.716632
     88          1           0       -8.702759   -2.571190   -3.806446
     89          1           0       -9.720370   -1.480553   -3.301924
     90          1           0       -4.230520   -3.926450   -1.561085
     91          1           0        2.552532   -6.088078    0.897093
     92          1           0        2.139508   -5.345035   -0.654219
     93          1           0        3.682872   -4.369859    2.118344
     94          1           0        2.629847   -3.276921   -1.414433
     95          1           0        4.038974   -1.994239   -1.606131
     96          1           0        4.467862   -3.670791   -1.853569
     97          1           0        4.895391   -1.328346    0.202131
     98          1           0        5.162146   -2.346381    1.758816
     99          1           0        6.513557   -4.056752    0.421877
    100          1           0        6.539957   -2.837500   -0.912891
    101          1           0        7.380731   -0.875994    0.552628
    102          1           0        7.665792   -2.088782    1.745479
    103          1           0        8.638163   -2.019232   -1.045813
    104          1           0        8.887311   -4.326527    0.042470
    105          1           0       10.543512   -3.574525   -0.432379
    106          1           0       10.033218   -3.550579    1.306940
    107          1           0        9.328926    0.009606    0.539817
    108          1           0       10.205550   -1.297687    1.468794
    109          1           0       11.701271   -1.949707   -0.163627
    110          1           0       11.107031   -0.664381   -1.257782
    111          1           0       11.716399    1.285446    0.009102
    112          1           0       12.260817    0.132227    1.231331
    113          1           0       13.300585    0.618162   -1.745262
    114          1           0       14.847173   -0.848741    0.666544
    115          1           0       14.149691   -1.608314   -0.934717
    116          1           0       15.308521   -0.203252   -1.246087
    117          1           0       13.313866    2.455816   -0.429603
    118          1           0       14.294209    1.707361    0.901550
    119          1           0       16.180219    1.517929   -1.139438
    120          1           0       15.120244    2.242215   -1.950254
    121          1           0       15.139331    4.323291   -0.829796
    122          1           0       15.849415    3.736880    0.405934
    123          1           0       17.995341    3.141113   -1.163072
    124          1           0       16.212904    4.474155   -3.244076
    125          1           0       18.112921    4.336622   -2.994891
    126          1           0       17.157215    2.992341   -3.238056
    127          1           0       17.915921    5.327471    0.470088
    128          1           0       18.635075    5.605339   -1.249277
    129          1           0       17.047723    6.220291   -1.037475
    130          1           0       -4.877445   -7.858964   -0.090959
    131          1           0       -6.248201   -7.038022    0.797798
    132          1           0       -4.534103   -7.023962    1.436225
    133          8           0       -7.837411    6.891351   -0.243521
    134          1           0       -8.925059    6.548087   -1.869825
 ---------------------------------------------------------------------

 SCF Done:  E(RCAM-B3LYP) =  -3043.40258642     A.U. after   16 cycles

 Excitation energies and oscillator strengths:

 Excited State   1:      Singlet-A      1.9423 eV  638.32 nm  f=0.2040  <S**2>=0.000
     243 -> 246        0.25213
     244 -> 245        0.65156
 This state for optimization and/or second-order correction.
 Total Energy, E(TD-HF/TD-KS) =  -3043.33120638
 Copying the excited state density for this state as the 1-particle RhoCI density.

 The electronic state is 1-A.
 Alpha  occ. eigenvalues --  -46.80158 -19.21940 -19.21673 -19.18703 -19.17989
 Alpha  occ. eigenvalues --  -19.17972 -19.17614 -19.16684 -14.39549 -14.37216
 Alpha  occ. eigenvalues --  -14.37003 -14.36405 -10.36049 -10.35013 -10.31846
 Alpha  occ. eigenvalues --  -10.31209 -10.30848 -10.28040 -10.27754 -10.27693
 Alpha  occ. eigenvalues --  -10.26899 -10.26682 -10.26641 -10.26554 -10.26505
 Alpha  occ. eigenvalues --  -10.26373 -10.26118 -10.26019 -10.25629 -10.24985
 Alpha  occ. eigenvalues --  -10.24853 -10.24710 -10.24651 -10.24430 -10.24088
 Alpha  occ. eigenvalues --  -10.23888 -10.23836 -10.23459 -10.23457 -10.23423
 Alpha  occ. eigenvalues --  -10.23164 -10.23072 -10.22826 -10.22789 -10.22746
 Alpha  occ. eigenvalues --  -10.22663 -10.22446 -10.22396 -10.22337 -10.21954
 Alpha  occ. eigenvalues --  -10.21953 -10.21915 -10.21728 -10.21640 -10.21634
 Alpha  occ. eigenvalues --  -10.21417 -10.21193 -10.21016 -10.20807 -10.20788
 Alpha  occ. eigenvalues --  -10.20441 -10.20326 -10.19983 -10.19935 -10.19814
 Alpha  occ. eigenvalues --  -10.19125  -3.08978  -1.83900  -1.83453  -1.83407
 Alpha  occ. eigenvalues --   -1.16155  -1.11108  -1.09919  -1.08139  -1.08041
 Alpha  occ. eigenvalues --   -1.03816  -1.01378  -0.99684  -0.98735  -0.98199
 Alpha  occ. eigenvalues --   -0.97129  -0.90227  -0.87283  -0.86762  -0.86364
 Alpha  occ. eigenvalues --   -0.85784  -0.85426  -0.84690  -0.83680  -0.83496
 Alpha  occ. eigenvalues --   -0.82964  -0.82071  -0.81801  -0.80532  -0.80297
 Alpha  occ. eigenvalues --   -0.79496  -0.79013  -0.78061  -0.77635  -0.76673
 Alpha  occ. eigenvalues --   -0.75633  -0.75050  -0.74355  -0.73279  -0.72369
 Alpha  occ. eigenvalues --   -0.71406  -0.71264  -0.70160  -0.69993  -0.69781
 Alpha  occ. eigenvalues --   -0.69502  -0.69326  -0.68054  -0.67327  -0.66574
 Alpha  occ. eigenvalues --   -0.66234  -0.65327  -0.64298  -0.63369  -0.62787
 Alpha  occ. eigenvalues --   -0.61269  -0.60863  -0.60440  -0.59403  -0.59261
 Alpha  occ. eigenvalues --   -0.59145  -0.58886  -0.57854  -0.57131  -0.56987
 Alpha  occ. eigenvalues --   -0.56077  -0.55613  -0.55358  -0.55054  -0.54615
 Alpha  occ. eigenvalues --   -0.54424  -0.53677  -0.53548  -0.52817  -0.52499
 Alpha  occ. eigenvalues --   -0.51955  -0.51755  -0.51363  -0.50738  -0.50597
 Alpha  occ. eigenvalues --   -0.50403  -0.50299  -0.49938  -0.49609  -0.49295
 Alpha  occ. eigenvalues --   -0.49120  -0.48970  -0.48783  -0.48630  -0.48243
 Alpha  occ. eigenvalues --   -0.48089  -0.47933  -0.47702  -0.47610  -0.47383
 Alpha  occ. eigenvalues --   -0.46868  -0.46770  -0.46709  -0.46505  -0.46242
 Alpha  occ. eigenvalues --   -0.45819  -0.45703  -0.45661  -0.45312  -0.45160
 Alpha  occ. eigenvalues --   -0.44968  -0.44702  -0.44483  -0.44470  -0.44356
 Alpha  occ. eigenvalues --   -0.44089  -0.43847  -0.43578  -0.43499  -0.43223
 Alpha  occ. eigenvalues --   -0.43080  -0.42971  -0.42835  -0.42684  -0.42548
 Alpha  occ. eigenvalues --   -0.42030  -0.41582  -0.41527  -0.41384  -0.40915
 Alpha  occ. eigenvalues --   -0.40667  -0.40505  -0.40199  -0.40143  -0.39899
 Alpha  occ. eigenvalues --   -0.39788  -0.39509  -0.39382  -0.39251  -0.38717
 Alpha  occ. eigenvalues --   -0.38693  -0.38632  -0.38420  -0.38234  -0.37989
 Alpha  occ. eigenvalues --   -0.37804  -0.37499  -0.37428  -0.36962  -0.36784
 Alpha  occ. eigenvalues --   -0.36748  -0.36641  -0.36341  -0.35643  -0.35370
 Alpha  occ. eigenvalues --   -0.35291  -0.35218  -0.35113  -0.34756  -0.34514
 Alpha  occ. eigenvalues --   -0.34360  -0.34231  -0.33720  -0.32964  -0.32897
 Alpha  occ. eigenvalues --   -0.32851  -0.32452  -0.32154  -0.32005  -0.31922
 Alpha  occ. eigenvalues --   -0.31538  -0.30756  -0.30631  -0.30320  -0.30204
 Alpha  occ. eigenvalues --   -0.28788  -0.28617  -0.28549  -0.28343  -0.27645
 Alpha  occ. eigenvalues --   -0.27268  -0.26713  -0.23138  -0.22116
 Alpha virt. eigenvalues --   -0.09545  -0.06677  -0.02179  -0.01416   0.00220
 Alpha virt. eigenvalues --    0.01675   0.03562   0.03952   0.04149   0.04584
 Alpha virt. eigenvalues --    0.04635   0.05521   0.07337   0.08513   0.09300

 Mulliken charges:
               1
     1  Mg   0.815009
     2  C    0.085660
     3  C   -0.209866
     4  C   -0.192544
     5  C   -0.160671
     6  N   -0.621012
     7  C    0.287483
     8  C   -0.163396
     9  C   -0.143725
    10  C    0.330919
    11  C   -0.303413
    12  C   -0.148653
    13  C   -0.270687
    14  C    0.610391
    15  O   -0.444813
    16  O   -0.517311
    17  N   -0.742650
    18  C    0.354548
    19  C   -0.009073
    20  C    0.004257
    21  C    0.338686
    22  C   -0.381760
    23  C    0.205056
    24  O   -0.447653
    25  N   -0.693028
    26  C    0.335453
    27  C   -0.057269
    28  C    0.057556
    29  C    0.276890
    30  C    0.256594
    31  C   -0.274771
    32  C   -0.313394
    33  N   -0.711050
    34  C    0.309239
    35  C    0.002103
    36  C    0.017972
    37  C    0.265617
    38  C   -0.397037
    39  C    0.356747
    40  O   -0.419659
    41  C   -0.333288
    42  C    0.598212
    43  O   -0.428244
    44  O   -0.415577
    45  C   -0.076556
    46  C   -0.009639
    47  C   -0.125894
    48  C    0.158760
    49  C   -0.355503
    50  C   -0.232185
    51  C   -0.188944
    52  C   -0.160233
    53  C   -0.038116
    54  C   -0.306247
    55  C   -0.177387
    56  C   -0.171761
    57  C   -0.156786
    58  C   -0.089159
    59  C   -0.290753
    60  C   -0.171419
    61  C   -0.182454
    62  C   -0.165954
    63  C   -0.054023
    64  C   -0.298942
    65  C   -0.268724
    66  H    0.087913
    67  H    0.131700
    68  H    0.100962
    69  H    0.119600
    70  H    0.094873
    71  H    0.118400
    72  H    0.111483
    73  H    0.138672
    74  H    0.098112
    75  H    0.132465
    76  H    0.144925
    77  H    0.129565
    78  H    0.135466
    79  H    0.160467
    80  H    0.127983
    81  H    0.085497
    82  H    0.123570
    83  H    0.112834
    84  H    0.106491
    85  H    0.112601
    86  H    0.131320
    87  H    0.118425
    88  H    0.138151
    89  H    0.143700
    90  H    0.165369
    91  H    0.122513
    92  H    0.124429
    93  H    0.076081
    94  H    0.154753
    95  H    0.098198
    96  H    0.117934
    97  H    0.084851
    98  H    0.103824
    99  H    0.051362
   100  H    0.100133
   101  H    0.106413
   102  H    0.073994
   103  H    0.081513
   104  H    0.085002
   105  H    0.109888
   106  H    0.084350
   107  H    0.060390
   108  H    0.097817
   109  H    0.085688
   110  H    0.099558
   111  H    0.085927
   112  H    0.098470
   113  H    0.065354
   114  H    0.104933
   115  H    0.103625
   116  H    0.069486
   117  H    0.080935
   118  H    0.081181
   119  H    0.089172
   120  H    0.103165
   121  H    0.082880
   122  H    0.086424
   123  H    0.086534
   124  H    0.097786
   125  H    0.107171
   126  H    0.095651
   127  H    0.075296
   128  H    0.110975
   129  H    0.062150
   130  H    0.096143
   131  H    0.124793
   132  H    0.084198
   133  O   -0.401708
   134  H    0.074294
 Sum of Mulliken charges =   0.00000

 Dipole moment (field-independent basis, Debye):
    X=              0.8475    Y=             -4.0814    Z=             -2.9217  Tot=              5.0905
 Quadrupole moment (field-independent basis, Debye-Ang):
   XX=           -360.7696   YY=           -444.1453   ZZ=           -395.1936
   XY=             -2.3989   XZ=             24.6702   YZ=            -40.7014

 Normal termination of Gaussian 09 at Tue Oct  8 07:57:15 2019.
