 Gaussian 09, Revision D.01,
 Gaussian 09:  ES64L-G09RevD.01 24-Apr-2013

 ----------------------------------------------------------------------
 # td=(NStates=1) iop(3/107=0140000000,3/108=0140000000) iop(3/107=0140
 000000,3/108=0140000000) CAM-B3LYP/6-31G(d,p)
 ----------------------------------------------------------------------

 --
 TD
 --
 Symbolic Z-matrix:
 Charge =  0 Multiplicity = 1

                         Standard orientation:
 ---------------------------------------------------------------------
 Center     Atomic      Atomic             Coordinates (Angstroms)
 Number     Number       Type             X           Y           Z
 ---------------------------------------------------------------------
      1         12           0       -5.641966    1.293646    0.165561
      2          6           0       -5.022648   -2.045785   -0.373156
      3          6           0       -3.397510    1.078145    2.876992
      4          6           0       -6.061077    4.625470    0.537936
      5          6           0       -7.984314    1.181389   -2.402989
      6          7           0       -4.434603   -0.255520    1.082751
      7          6           0       -4.224934   -1.533604    0.625844
      8          6           0       -3.230961   -2.327794    1.452692
      9          6           0       -2.946977   -1.288727    2.603620
     10          6           0       -3.611815   -0.033144    2.118701
     11          6           0       -3.551934   -1.808316    3.937050
     12          6           0       -2.001300   -2.671373    0.671277
     13          6           0       -0.942497   -3.573987    1.431060
     14          6           0        0.237323   -3.850823    0.599833
     15          8           0        0.334821   -3.617064   -0.626912
     16          8           0        1.079181   -4.644078    1.246804
     17          7           0       -5.051674    2.589888    1.557525
     18          6           0       -4.075211    2.361447    2.509189
     19          6           0       -3.731577    3.581828    3.234979
     20          6           0       -4.551989    4.596530    2.676750
     21          6           0       -5.267983    3.903220    1.598941
     22          6           0       -2.759999    3.757721    4.367863
     23          6           0       -4.390587    5.978236    2.914359
     24          8           0       -3.745546    6.564007    3.825945
     25          7           0       -6.868902    2.648714   -0.625938
     26          6           0       -6.887203    4.024689   -0.367606
     27          6           0       -7.870054    4.615920   -1.221327
     28          6           0       -8.398137    3.630240   -2.006770
     29          6           0       -7.811002    2.374142   -1.631631
     30          6           0       -8.163377    6.011068   -1.203935
     31          6           0       -9.448400    3.734787   -3.064600
     32          6           0       -8.821047    3.986354   -4.517748
     33          7           0       -6.517288   -0.145280   -1.033476
     34          6           0       -7.499960   -0.025104   -2.100247
     35          6           0       -7.654765   -1.345592   -2.681018
     36          6           0       -6.735486   -2.133634   -2.075261
     37          6           0       -6.042971   -1.377626   -1.094483
     38          6           0       -8.658900   -1.685497   -3.743691
     39          6           0       -6.248516   -3.530325   -2.064755
     40          8           0       -6.601823   -4.480425   -2.721546
     41          6           0       -5.064323   -3.547169   -1.004568
     42          6           0       -5.405109   -4.646513    0.106797
     43          8           0       -5.714716   -4.482773    1.246476
     44          8           0       -5.160039   -5.874554   -0.526269
     45          6           0       -5.390428   -6.950141    0.404189
     46          6           0        2.313354   -5.001237    0.610238
     47          6           0        3.427094   -4.006963    1.011068
     48          6           0        4.101697   -3.234863    0.162931
     49          6           0        3.708099   -2.923393   -1.256998
     50          6           0        5.154384   -2.262247    0.699517
     51          6           0        6.635893   -2.702939    0.242133
     52          6           0        7.634648   -1.626094    0.690543
     53          6           0        9.045644   -1.910809    0.139801
     54          6           0        9.512779   -3.362080    0.339337
     55          6           0       10.130007   -0.942233    0.591469
     56          6           0       11.287177   -0.778071   -0.300415
     57          6           0       12.196173    0.331251    0.100062
     58          6           0       13.607421    0.472332   -0.539283
     59          6           0       14.425072   -0.770084   -0.107157
     60          6           0       14.213133    1.826244   -0.136086
     61          6           0       15.456867    2.115144   -1.026427
     62          6           0       16.030346    3.478087   -0.806088
     63          6           0       17.372942    3.741479   -1.572332
     64          6           0       17.118629    3.688256   -2.995129
     65          6           0       18.063249    5.088634   -1.117504
     66          1           0       -2.770706    1.303554    3.603938
     67          1           0       -6.205294    5.727911    0.650313
     68          1           0       -8.734669    1.083756   -3.203979
     69          1           0       -3.724870   -3.297288    1.571485
     70          1           0       -1.904918   -1.366156    2.577774
     71          1           0       -2.941247   -2.665209    4.422778
     72          1           0       -3.079920   -1.056676    4.540375
     73          1           0       -4.543574   -1.761535    3.660156
     74          1           0       -2.453428   -3.329398   -0.006150
     75          1           0       -1.564341   -1.803537    0.291070
     76          1           0       -0.421542   -3.107613    2.157182
     77          1           0       -1.549892   -4.404414    1.685645
     78          1           0       -1.772170    3.423556    3.955557
     79          1           0       -2.936638    4.773869    4.733923
     80          1           0       -2.923825    3.014615    5.198239
     81          1           0       -5.004495    6.660320    2.362809
     82          1           0       -9.977420    3.016382   -3.184944
     83          1           0      -10.104171    4.636695   -2.802156
     84          1           0       -9.687733    3.982351   -5.199452
     85          1           0       -8.142374    4.842894   -4.940110
     86          1           0       -8.390954    2.849758   -4.718300
     87          1           0       -8.370506   -1.226020   -4.676429
     88          1           0       -8.679666   -2.767320   -4.123972
     89          1           0       -9.875308   -1.400885   -3.557465
     90          1           0       -4.156761   -3.729191   -1.436861
     91          1           0        2.598158   -5.988151    0.971520
     92          1           0        2.125637   -4.891792   -0.301118
     93          1           0        3.503160   -4.100979    2.049093
     94          1           0        2.539149   -3.108769   -1.434846
     95          1           0        4.005035   -1.888002   -1.589835
     96          1           0        4.409968   -3.593312   -1.792032
     97          1           0        4.998211   -1.259017    0.252038
     98          1           0        5.141711   -2.337206    1.865723
     99          1           0        7.000387   -3.707243    0.341932
    100          1           0        6.633718   -2.753796   -0.874409
    101          1           0        7.281065   -0.458170    0.367650
    102          1           0        7.814082   -1.480529    1.823584
    103          1           0        8.950740   -1.794971   -0.873022
    104          1           0        8.910441   -4.166101   -0.110860
    105          1           0       10.488337   -3.657314   -0.037784
    106          1           0        9.828069   -3.544182    1.352076
    107          1           0        9.677021    0.222352    0.669855
    108          1           0       10.735925   -1.330184    1.578937
    109          1           0       11.932393   -1.699715    0.125121
    110          1           0       11.010940   -0.944444   -1.424314
    111          1           0       11.708888    1.407175   -0.120881
    112          1           0       12.428619    0.210021    1.352650
    113          1           0       13.621560    0.514543   -1.682239
    114          1           0       14.530031   -0.865267    1.007383
    115          1           0       14.011754   -1.702223   -0.472346
    116          1           0       15.474591   -0.667805   -0.567150
    117          1           0       13.649265    2.600868   -0.343668
    118          1           0       14.588379    1.628433    1.003354
    119          1           0       16.490044    1.474655   -0.893478
    120          1           0       15.194636    1.836469   -2.088940
    121          1           0       15.482136    4.414782   -1.071263
    122          1           0       16.068434    3.741851    0.348035
    123          1           0       18.065105    2.828842   -1.341548
    124          1           0       16.616522    4.406702   -3.330368
    125          1           0       18.240945    3.820211   -3.386762
    126          1           0       16.756599    2.711690   -3.395143
    127          1           0       18.247759    5.020591   -0.044651
    128          1           0       18.856123    5.460725   -1.783132
    129          1           0       17.098481    5.903437   -1.027923
    130          1           0       -5.151139   -7.780571   -0.035998
    131          1           0       -6.410331   -7.065688    0.511268
    132          1           0       -4.768616   -7.008741    1.343768
    133          8           0       -7.773372    6.892945   -0.485982
    134          1           0       -8.918325    6.218893   -2.086402
 ---------------------------------------------------------------------

 SCF Done:  E(RCAM-B3LYP) =  -3043.38493729     A.U. after   16 cycles

 Excitation energies and oscillator strengths:

 Excited State   1:      Singlet-A      1.9623 eV  631.82 nm  f=0.2150  <S**2>=0.000
     243 -> 246        0.22712
     244 -> 245        0.66033
 This state for optimization and/or second-order correction.
 Total Energy, E(TD-HF/TD-KS) =  -3043.31282293
 Copying the excited state density for this state as the 1-particle RhoCI density.

 The electronic state is 1-A.
 Alpha  occ. eigenvalues --  -46.81254 -19.23123 -19.22681 -19.19602 -19.18119
 Alpha  occ. eigenvalues --  -19.17468 -19.16782 -19.15838 -14.39245 -14.37772
 Alpha  occ. eigenvalues --  -14.37132 -14.36589 -10.36524 -10.35130 -10.32278
 Alpha  occ. eigenvalues --  -10.30289 -10.28947 -10.27654 -10.27604 -10.27143
 Alpha  occ. eigenvalues --  -10.26985 -10.26931 -10.26448 -10.26083 -10.26061
 Alpha  occ. eigenvalues --  -10.25972 -10.25888 -10.25665 -10.25608 -10.24994
 Alpha  occ. eigenvalues --  -10.24970 -10.24513 -10.24484 -10.24472 -10.24425
 Alpha  occ. eigenvalues --  -10.24201 -10.23272 -10.23113 -10.23063 -10.23039
 Alpha  occ. eigenvalues --  -10.23012 -10.22960 -10.22863 -10.22854 -10.22843
 Alpha  occ. eigenvalues --  -10.22839 -10.22798 -10.22610 -10.22306 -10.22216
 Alpha  occ. eigenvalues --  -10.22190 -10.22189 -10.22086 -10.22045 -10.22023
 Alpha  occ. eigenvalues --  -10.21997 -10.21973 -10.21970 -10.21861 -10.21340
 Alpha  occ. eigenvalues --  -10.21206 -10.21148 -10.20907 -10.20696 -10.20290
 Alpha  occ. eigenvalues --  -10.19019  -3.09963  -1.84889  -1.84414  -1.84398
 Alpha  occ. eigenvalues --   -1.14215  -1.13752  -1.08222  -1.07776  -1.06560
 Alpha  occ. eigenvalues --   -1.03545  -1.03320  -1.01163  -1.00252  -0.99864
 Alpha  occ. eigenvalues --   -0.98482  -0.87955  -0.87030  -0.86131  -0.85606
 Alpha  occ. eigenvalues --   -0.85459  -0.84900  -0.84746  -0.84286  -0.83824
 Alpha  occ. eigenvalues --   -0.83446  -0.83260  -0.82586  -0.80681  -0.80209
 Alpha  occ. eigenvalues --   -0.79683  -0.78718  -0.77915  -0.77655  -0.76899
 Alpha  occ. eigenvalues --   -0.75707  -0.75312  -0.74772  -0.73352  -0.72548
 Alpha  occ. eigenvalues --   -0.71145  -0.70955  -0.70436  -0.70307  -0.69864
 Alpha  occ. eigenvalues --   -0.69689  -0.68862  -0.67678  -0.66903  -0.66532
 Alpha  occ. eigenvalues --   -0.66416  -0.64910  -0.64528  -0.62597  -0.62017
 Alpha  occ. eigenvalues --   -0.61820  -0.61388  -0.60141  -0.59929  -0.59345
 Alpha  occ. eigenvalues --   -0.58722  -0.58575  -0.57973  -0.57643  -0.57106
 Alpha  occ. eigenvalues --   -0.56708  -0.56625  -0.56315  -0.55679  -0.55081
 Alpha  occ. eigenvalues --   -0.54608  -0.54432  -0.53612  -0.53209  -0.52777
 Alpha  occ. eigenvalues --   -0.52348  -0.51898  -0.51341  -0.51050  -0.50853
 Alpha  occ. eigenvalues --   -0.50652  -0.50313  -0.50132  -0.49530  -0.49302
 Alpha  occ. eigenvalues --   -0.49063  -0.48819  -0.48723  -0.48410  -0.47966
 Alpha  occ. eigenvalues --   -0.47834  -0.47489  -0.47472  -0.47468  -0.47110
 Alpha  occ. eigenvalues --   -0.46856  -0.46735  -0.46593  -0.46115  -0.46062
 Alpha  occ. eigenvalues --   -0.45874  -0.45487  -0.45167  -0.45028  -0.44916
 Alpha  occ. eigenvalues --   -0.44783  -0.44751  -0.44366  -0.44199  -0.44042
 Alpha  occ. eigenvalues --   -0.43895  -0.43519  -0.43248  -0.43162  -0.43089
 Alpha  occ. eigenvalues --   -0.42883  -0.42543  -0.42432  -0.42127  -0.41922
 Alpha  occ. eigenvalues --   -0.41733  -0.41656  -0.41436  -0.41203  -0.41167
 Alpha  occ. eigenvalues --   -0.40929  -0.40784  -0.40363  -0.40204  -0.40113
 Alpha  occ. eigenvalues --   -0.39994  -0.39839  -0.39815  -0.39417  -0.39322
 Alpha  occ. eigenvalues --   -0.39180  -0.39123  -0.38589  -0.38481  -0.38336
 Alpha  occ. eigenvalues --   -0.38144  -0.38115  -0.38101  -0.37443  -0.37122
 Alpha  occ. eigenvalues --   -0.37013  -0.36932  -0.36139  -0.35803  -0.35771
 Alpha  occ. eigenvalues --   -0.35150  -0.35034  -0.35023  -0.34530  -0.34319
 Alpha  occ. eigenvalues --   -0.34072  -0.33958  -0.33890  -0.33141  -0.33106
 Alpha  occ. eigenvalues --   -0.32829  -0.32525  -0.32438  -0.32004  -0.31797
 Alpha  occ. eigenvalues --   -0.31016  -0.30979  -0.30656  -0.30472  -0.30257
 Alpha  occ. eigenvalues --   -0.29145  -0.28555  -0.28457  -0.28028  -0.27620
 Alpha  occ. eigenvalues --   -0.27173  -0.26723  -0.23536  -0.21744
 Alpha virt. eigenvalues --   -0.09293  -0.06837  -0.01542  -0.00878   0.00735
 Alpha virt. eigenvalues --    0.02373   0.02606   0.02690   0.04002   0.04431
 Alpha virt. eigenvalues --    0.04888   0.05960   0.07848   0.07863   0.08131

 Mulliken charges:
               1
     1  Mg   0.842198
     2  C    0.021740
     3  C   -0.107767
     4  C   -0.188832
     5  C   -0.166830
     6  N   -0.634189
     7  C    0.316240
     8  C   -0.173070
     9  C   -0.178160
    10  C    0.350224
    11  C   -0.272601
    12  C   -0.170355
    13  C   -0.246207
    14  C    0.587321
    15  O   -0.495894
    16  O   -0.452153
    17  N   -0.686414
    18  C    0.244839
    19  C    0.028637
    20  C   -0.000125
    21  C    0.278432
    22  C   -0.386054
    23  C    0.219742
    24  O   -0.451537
    25  N   -0.714578
    26  C    0.328410
    27  C    0.015989
    28  C    0.022860
    29  C    0.282536
    30  C    0.246223
    31  C   -0.202298
    32  C   -0.323465
    33  N   -0.738565
    34  C    0.259091
    35  C    0.054439
    36  C    0.024709
    37  C    0.346515
    38  C   -0.402496
    39  C    0.373949
    40  O   -0.436038
    41  C   -0.309057
    42  C    0.606893
    43  O   -0.430514
    44  O   -0.450422
    45  C   -0.085331
    46  C    0.023109
    47  C   -0.154806
    48  C    0.133626
    49  C   -0.378292
    50  C   -0.219737
    51  C   -0.192272
    52  C   -0.148918
    53  C   -0.032034
    54  C   -0.340406
    55  C   -0.150537
    56  C   -0.152725
    57  C   -0.135483
    58  C   -0.059884
    59  C   -0.314016
    60  C   -0.134972
    61  C   -0.180718
    62  C   -0.164402
    63  C   -0.057725
    64  C   -0.267485
    65  C   -0.306034
    66  H    0.063602
    67  H    0.140469
    68  H    0.096150
    69  H    0.116230
    70  H    0.100114
    71  H    0.104501
    72  H    0.111509
    73  H    0.135283
    74  H    0.111735
    75  H    0.114328
    76  H    0.135863
    77  H    0.143747
    78  H    0.124064
    79  H    0.170515
    80  H    0.118003
    81  H    0.081497
    82  H    0.106998
    83  H    0.107199
    84  H    0.112995
    85  H    0.124808
    86  H    0.078473
    87  H    0.139857
    88  H    0.147509
    89  H    0.105401
    90  H    0.171535
    91  H    0.118564
    92  H    0.116540
    93  H    0.086249
    94  H    0.148270
    95  H    0.110241
    96  H    0.120343
    97  H    0.106292
    98  H    0.093734
    99  H    0.112096
   100  H    0.085959
   101  H    0.057389
   102  H    0.087722
   103  H    0.095856
   104  H    0.100303
   105  H    0.103398
   106  H    0.105440
   107  H    0.053210
   108  H    0.067182
   109  H    0.073644
   110  H    0.084360
   111  H    0.058634
   112  H    0.054102
   113  H    0.073661
   114  H    0.094546
   115  H    0.113433
   116  H    0.091110
   117  H    0.108905
   118  H    0.077684
   119  H    0.072849
   120  H    0.089235
   121  H    0.078669
   122  H    0.068860
   123  H    0.066968
   124  H    0.113593
   125  H    0.068669
   126  H    0.099283
   127  H    0.117409
   128  H    0.109898
   129  H    0.058668
   130  H    0.126900
   131  H    0.133006
   132  H    0.115339
   133  O   -0.420977
   134  H    0.026057
 Sum of Mulliken charges =   0.00000

 Dipole moment (field-independent basis, Debye):
    X=              1.9073    Y=             -6.6687    Z=             -2.3925  Tot=              7.3372
 Quadrupole moment (field-independent basis, Debye-Ang):
   XX=           -376.3867   YY=           -442.9733   ZZ=           -398.4162
   XY=             12.7375   XZ=             25.4990   YZ=            -39.3246

 Normal termination of Gaussian 09 at Mon Oct  7 16:52:17 2019.
