 Gaussian 09, Revision D.01,
 Gaussian 09:  ES64L-G09RevD.01 24-Apr-2013

 ----------------------------------------------------------------------
 # td=(NStates=1) iop(3/107=0140000000,3/108=0140000000) iop(3/107=0140
 000000,3/108=0140000000) CAM-B3LYP/6-31G(d,p)
 ----------------------------------------------------------------------

 --
 TD
 --
 Symbolic Z-matrix:
 Charge =  0 Multiplicity = 1

                         Standard orientation:
 ---------------------------------------------------------------------
 Center     Atomic      Atomic             Coordinates (Angstroms)
 Number     Number       Type             X           Y           Z
 ---------------------------------------------------------------------
      1         12           0       -5.542780    1.224773    0.153576
      2          6           0       -5.090286   -2.165035   -0.294711
      3          6           0       -3.422386    1.125429    2.685280
      4          6           0       -6.269346    4.637473    0.707434
      5          6           0       -7.952186    1.145945   -2.258064
      6          7           0       -4.337178   -0.313774    1.033868
      7          6           0       -4.293022   -1.633621    0.635843
      8          6           0       -3.211969   -2.372739    1.361138
      9          6           0       -2.827675   -1.338740    2.545132
     10          6           0       -3.598814   -0.063229    2.053613
     11          6           0       -3.491941   -1.758806    3.985194
     12          6           0       -1.894874   -2.699024    0.640127
     13          6           0       -0.991308   -3.475296    1.402808
     14          6           0        0.298245   -3.822139    0.532660
     15          8           0        0.497731   -3.461643   -0.549524
     16          8           0        1.169207   -4.575231    1.229734
     17          7           0       -4.940286    2.639359    1.399514
     18          6           0       -4.002282    2.394214    2.358132
     19          6           0       -3.719749    3.618601    3.111538
     20          6           0       -4.470743    4.587189    2.567056
     21          6           0       -5.248905    4.012090    1.510597
     22          6           0       -2.712740    3.807628    4.303348
     23          6           0       -4.411016    6.096991    2.882462
     24          8           0       -3.978430    6.568907    3.858780
     25          7           0       -6.894852    2.719959   -0.709993
     26          6           0       -6.953084    4.012003   -0.405957
     27          6           0       -7.924843    4.680832   -1.197693
     28          6           0       -8.402591    3.701536   -2.101277
     29          6           0       -7.799933    2.450432   -1.680004
     30          6           0       -8.465183    5.952407   -1.156557
     31          6           0       -9.401861    3.782094   -3.138220
     32          6           0       -8.710029    3.946871   -4.584841
     33          7           0       -6.407647   -0.210858   -1.101098
     34          6           0       -7.282108   -0.138552   -2.128369
     35          6           0       -7.518159   -1.431712   -2.693778
     36          6           0       -6.708260   -2.319099   -2.073057
     37          6           0       -6.005243   -1.516848   -1.072011
     38          6           0       -8.532034   -1.620475   -3.757745
     39          6           0       -6.260734   -3.673015   -1.920592
     40          8           0       -6.692468   -4.618283   -2.505180
     41          6           0       -5.081103   -3.581139   -0.809624
     42          6           0       -5.317528   -4.622714    0.162650
     43          8           0       -5.681997   -4.466829    1.323374
     44          8           0       -5.038742   -5.812606   -0.236166
     45          6           0       -5.328916   -6.963628    0.680022
     46          6           0        2.380361   -5.037564    0.466694
     47          6           0        3.411710   -4.091367    0.826750
     48          6           0        4.028289   -3.180169    0.057338
     49          6           0        3.724919   -3.012782   -1.427300
     50          6           0        5.184865   -2.384474    0.665957
     51          6           0        6.553753   -2.577139    0.113943
     52          6           0        7.683587   -1.689834    0.613917
     53          6           0        8.962060   -1.983970   -0.080018
     54          6           0        9.451565   -3.352696    0.165103
     55          6           0        9.915932   -0.820929    0.541199
     56          6           0       11.298699   -0.926927   -0.185439
     57          6           0       12.213176    0.217189    0.247524
     58          6           0       13.562744    0.425867   -0.608086
     59          6           0       14.419149   -0.769519   -0.322114
     60          6           0       14.153436    1.816704   -0.187503
     61          6           0       15.387625    2.165356   -0.993214
     62          6           0       15.985892    3.478173   -0.664488
     63          6           0       17.425656    3.812548   -1.343253
     64          6           0       17.180340    3.903656   -2.827141
     65          6           0       17.898994    5.120760   -0.783048
     66          1           0       -2.667114    1.159647    3.479778
     67          1           0       -6.640770    5.702885    0.814736
     68          1           0       -8.781730    1.335308   -2.943710
     69          1           0       -3.658942   -3.330184    1.820381
     70          1           0       -1.682421   -1.151730    2.684136
     71          1           0       -3.054294   -2.548717    4.403126
     72          1           0       -3.246431   -0.956937    4.834661
     73          1           0       -4.549872   -2.030685    3.905454
     74          1           0       -2.386500   -3.550278   -0.218055
     75          1           0       -1.450064   -1.772257    0.183907
     76          1           0       -0.618556   -2.868689    2.372038
     77          1           0       -1.456695   -4.424748    1.761976
     78          1           0       -1.723771    3.516596    4.059080
     79          1           0       -2.734130    4.859832    4.713911
     80          1           0       -3.190880    3.107900    5.100683
     81          1           0       -4.840953    6.857255    2.174295
     82          1           0      -10.041821    3.031214   -3.220774
     83          1           0       -9.885339    4.539546   -2.900231
     84          1           0       -9.184989    4.277900   -5.585023
     85          1           0       -7.990913    4.840248   -4.580641
     86          1           0       -8.180880    3.228522   -4.850048
     87          1           0       -8.179383   -1.180840   -4.709352
     88          1           0       -8.767332   -2.758427   -4.159530
     89          1           0       -9.523856   -1.312995   -3.464396
     90          1           0       -3.985002   -3.742010   -1.445273
     91          1           0        2.400723   -5.887748    0.990938
     92          1           0        2.102207   -5.081924   -0.357827
     93          1           0        3.743106   -4.138791    1.778912
     94          1           0        2.667874   -3.249592   -1.455437
     95          1           0        3.848363   -1.970586   -1.506061
     96          1           0        4.483731   -3.327025   -2.152380
     97          1           0        4.773606   -1.161164    0.451817
     98          1           0        5.186977   -2.329759    1.791084
     99          1           0        6.890050   -3.610571    0.407691
    100          1           0        6.449185   -2.542508   -0.999605
    101          1           0        7.253259   -0.611697    0.602160
    102          1           0        7.868282   -1.827551    1.687783
    103          1           0        8.978621   -1.804904   -1.184910
    104          1           0        8.773312   -4.153269   -0.330114
    105          1           0       10.314022   -3.531921   -0.386873
    106          1           0        9.587893   -3.650517    1.191677
    107          1           0        9.472507    0.173730    0.212476
    108          1           0        9.773536   -0.905227    1.731050
    109          1           0       11.764948   -2.096544   -0.047416
    110          1           0       10.965340   -0.847696   -1.257480
    111          1           0       11.750369    1.075695    0.425278
    112          1           0       12.573588   -0.071694    1.281914
    113          1           0       13.099698    0.383555   -1.652233
    114          1           0       14.836063   -0.713003    0.541143
    115          1           0       13.638980   -1.570728   -0.498047
    116          1           0       15.218490   -0.755179   -1.117039
    117          1           0       13.264521    2.642557   -0.161106
    118          1           0       14.286647    1.765005    0.921028
    119          1           0       16.170223    1.264163   -0.702584
    120          1           0       15.385565    2.011647   -1.953005
    121          1           0       15.083006    4.235429   -1.105604
    122          1           0       16.090288    3.561673    0.343199
    123          1           0       18.280624    2.970334   -1.302937
    124          1           0       16.418933    4.854082   -3.131061
    125          1           0       18.216067    4.028301   -3.338528
    126          1           0       16.786519    3.156934   -3.098526
    127          1           0       18.108600    5.257961    0.231813
    128          1           0       18.835840    5.595865   -1.415581
    129          1           0       17.123848    5.927419   -1.036662
    130          1           0       -5.291324   -7.825714    0.061135
    131          1           0       -6.401641   -6.792492    1.124542
    132          1           0       -4.660334   -7.005127    1.548362
    133          8           0       -7.897761    6.819515   -0.425587
    134          1           0       -9.057544    6.346702   -1.902654
 ---------------------------------------------------------------------

 SCF Done:  E(RCAM-B3LYP) =  -3043.33032970     A.U. after   15 cycles

 Excitation energies and oscillator strengths:

 Excited State   1:      Singlet-A      2.1409 eV  579.13 nm  f=0.1217  <S**2>=0.000
     243 -> 246       -0.35239
     244 -> 245        0.59731
 This state for optimization and/or second-order correction.
 Total Energy, E(TD-HF/TD-KS) =  -3043.25165435
 Copying the excited state density for this state as the 1-particle RhoCI density.

 The electronic state is 1-A.
 Alpha  occ. eigenvalues --  -46.82361 -19.22500 -19.20425 -19.17651 -19.17607
 Alpha  occ. eigenvalues --  -19.17267 -19.15669 -19.15335 -14.38307 -14.36880
 Alpha  occ. eigenvalues --  -14.36599 -14.36153 -10.34189 -10.33994 -10.31737
 Alpha  occ. eigenvalues --  -10.30709 -10.28699 -10.28463 -10.26959 -10.26656
 Alpha  occ. eigenvalues --  -10.26632 -10.26569 -10.26428 -10.26214 -10.25740
 Alpha  occ. eigenvalues --  -10.25615 -10.25297 -10.25256 -10.25183 -10.24846
 Alpha  occ. eigenvalues --  -10.24406 -10.24354 -10.24318 -10.24284 -10.24146
 Alpha  occ. eigenvalues --  -10.24075 -10.23803 -10.23423 -10.23152 -10.23140
 Alpha  occ. eigenvalues --  -10.23110 -10.23023 -10.22830 -10.22796 -10.22719
 Alpha  occ. eigenvalues --  -10.22631 -10.22209 -10.22093 -10.22074 -10.21969
 Alpha  occ. eigenvalues --  -10.21947 -10.21945 -10.21738 -10.21467 -10.21457
 Alpha  occ. eigenvalues --  -10.21433 -10.21394 -10.21241 -10.20888 -10.20502
 Alpha  occ. eigenvalues --  -10.20273 -10.20192 -10.19895 -10.19833 -10.19765
 Alpha  occ. eigenvalues --  -10.19015  -3.10727  -1.85679  -1.85193  -1.85127
 Alpha  occ. eigenvalues --   -1.14684  -1.14234  -1.10097  -1.08739  -1.05414
 Alpha  occ. eigenvalues --   -1.03832  -1.02880  -1.01413  -1.00460  -1.00003
 Alpha  occ. eigenvalues --   -0.98836  -0.89477  -0.86619  -0.86335  -0.86059
 Alpha  occ. eigenvalues --   -0.85396  -0.85000  -0.84335  -0.83406  -0.83256
 Alpha  occ. eigenvalues --   -0.82895  -0.82467  -0.81118  -0.80127  -0.79659
 Alpha  occ. eigenvalues --   -0.79287  -0.79048  -0.77720  -0.77499  -0.77010
 Alpha  occ. eigenvalues --   -0.76077  -0.74322  -0.73528  -0.73281  -0.72227
 Alpha  occ. eigenvalues --   -0.71873  -0.71839  -0.71126  -0.70630  -0.70290
 Alpha  occ. eigenvalues --   -0.69217  -0.68754  -0.68665  -0.67321  -0.65938
 Alpha  occ. eigenvalues --   -0.65605  -0.64544  -0.64068  -0.62285  -0.62240
 Alpha  occ. eigenvalues --   -0.61780  -0.60606  -0.59849  -0.59534  -0.59210
 Alpha  occ. eigenvalues --   -0.59161  -0.58678  -0.58329  -0.57914  -0.57077
 Alpha  occ. eigenvalues --   -0.56814  -0.55994  -0.55557  -0.55303  -0.54777
 Alpha  occ. eigenvalues --   -0.54168  -0.53514  -0.53192  -0.52633  -0.52227
 Alpha  occ. eigenvalues --   -0.52198  -0.51674  -0.51222  -0.50851  -0.50523
 Alpha  occ. eigenvalues --   -0.50081  -0.49891  -0.49720  -0.49528  -0.49204
 Alpha  occ. eigenvalues --   -0.49040  -0.48668  -0.48315  -0.48132  -0.47942
 Alpha  occ. eigenvalues --   -0.47852  -0.47620  -0.47230  -0.47104  -0.46909
 Alpha  occ. eigenvalues --   -0.46844  -0.46763  -0.46384  -0.46317  -0.46087
 Alpha  occ. eigenvalues --   -0.45923  -0.45480  -0.45196  -0.44956  -0.44793
 Alpha  occ. eigenvalues --   -0.44559  -0.44267  -0.44209  -0.44046  -0.43833
 Alpha  occ. eigenvalues --   -0.43669  -0.43582  -0.43459  -0.42900  -0.42847
 Alpha  occ. eigenvalues --   -0.42697  -0.42535  -0.42379  -0.42162  -0.42016
 Alpha  occ. eigenvalues --   -0.41939  -0.41544  -0.41320  -0.41262  -0.41189
 Alpha  occ. eigenvalues --   -0.40789  -0.40540  -0.40305  -0.40131  -0.40096
 Alpha  occ. eigenvalues --   -0.39895  -0.39608  -0.39303  -0.39249  -0.39122
 Alpha  occ. eigenvalues --   -0.38910  -0.38691  -0.38594  -0.38360  -0.38279
 Alpha  occ. eigenvalues --   -0.37875  -0.37734  -0.37674  -0.37501  -0.37236
 Alpha  occ. eigenvalues --   -0.37108  -0.37019  -0.36660  -0.36029  -0.35644
 Alpha  occ. eigenvalues --   -0.35387  -0.35343  -0.35058  -0.34743  -0.34126
 Alpha  occ. eigenvalues --   -0.34041  -0.33964  -0.33762  -0.33238  -0.32949
 Alpha  occ. eigenvalues --   -0.32924  -0.32224  -0.32168  -0.31723  -0.31050
 Alpha  occ. eigenvalues --   -0.30900  -0.30760  -0.30176  -0.29704  -0.29116
 Alpha  occ. eigenvalues --   -0.29059  -0.28359  -0.28037  -0.27782  -0.27667
 Alpha  occ. eigenvalues --   -0.26898  -0.26827  -0.22324  -0.21713
 Alpha virt. eigenvalues --   -0.07896  -0.06640  -0.01552  -0.00622   0.01063
 Alpha virt. eigenvalues --    0.03000   0.03222   0.03319   0.04794   0.05035
 Alpha virt. eigenvalues --    0.05539   0.05978   0.07443   0.08796   0.09658

 Mulliken charges:
               1
     1  Mg   0.834804
     2  C    0.152846
     3  C   -0.192315
     4  C   -0.176352
     5  C   -0.158815
     6  N   -0.658459
     7  C    0.314846
     8  C   -0.175267
     9  C   -0.167525
    10  C    0.399770
    11  C   -0.316915
    12  C   -0.124430
    13  C   -0.250381
    14  C    0.589373
    15  O   -0.430140
    16  O   -0.500527
    17  N   -0.727814
    18  C    0.327748
    19  C    0.021354
    20  C   -0.037634
    21  C    0.272873
    22  C   -0.377174
    23  C    0.253305
    24  O   -0.365118
    25  N   -0.667592
    26  C    0.297992
    27  C    0.022138
    28  C    0.009919
    29  C    0.262193
    30  C    0.192350
    31  C   -0.216913
    32  C   -0.335034
    33  N   -0.700147
    34  C    0.298452
    35  C   -0.008573
    36  C    0.112194
    37  C    0.221907
    38  C   -0.391624
    39  C    0.346141
    40  O   -0.429020
    41  C   -0.374732
    42  C    0.638272
    43  O   -0.511371
    44  O   -0.433877
    45  C   -0.091164
    46  C    0.069176
    47  C   -0.105414
    48  C    0.119271
    49  C   -0.384145
    50  C   -0.218062
    51  C   -0.156735
    52  C   -0.159770
    53  C   -0.052305
    54  C   -0.310017
    55  C   -0.174151
    56  C   -0.175129
    57  C   -0.175721
    58  C   -0.067276
    59  C   -0.279358
    60  C   -0.168593
    61  C   -0.157581
    62  C   -0.150237
    63  C   -0.056825
    64  C   -0.252355
    65  C   -0.291371
    66  H    0.079898
    67  H    0.148925
    68  H    0.072708
    69  H    0.128882
    70  H    0.094371
    71  H    0.123800
    72  H    0.088153
    73  H    0.133334
    74  H    0.056279
    75  H    0.118934
    76  H    0.109628
    77  H    0.130959
    78  H    0.129445
    79  H    0.157041
    80  H    0.116088
    81  H    0.080411
    82  H    0.126096
    83  H    0.105345
    84  H    0.097963
    85  H    0.099419
    86  H    0.132306
    87  H    0.132623
    88  H    0.116004
    89  H    0.134343
    90  H    0.149414
    91  H    0.122525
    92  H    0.091069
    93  H    0.071250
    94  H    0.149690
    95  H    0.116248
    96  H    0.122156
    97  H    0.034077
    98  H    0.092755
    99  H    0.097204
   100  H    0.085748
   101  H    0.078216
   102  H    0.089543
   103  H    0.081680
   104  H    0.091096
   105  H    0.111587
   106  H    0.107576
   107  H    0.094622
   108  H    0.073709
   109  H    0.072678
   110  H    0.090577
   111  H    0.092560
   112  H    0.078960
   113  H    0.074112
   114  H    0.112395
   115  H    0.096451
   116  H    0.088692
   117  H    0.060714
   118  H    0.091708
   119  H    0.053302
   120  H    0.109524
   121  H    0.060035
   122  H    0.097598
   123  H    0.073808
   124  H    0.062378
   125  H    0.082416
   126  H    0.107429
   127  H    0.110387
   128  H    0.065518
   129  H    0.094365
   130  H    0.140205
   131  H    0.137797
   132  H    0.136443
   133  O   -0.456513
   134  H    0.090376
 Sum of Mulliken charges =   0.00000

 Dipole moment (field-independent basis, Debye):
    X=              2.9271    Y=             -4.9978    Z=             -1.2168  Tot=              5.9183
 Quadrupole moment (field-independent basis, Debye-Ang):
   XX=           -387.3676   YY=           -430.3504   ZZ=           -394.0056
   XY=              2.6575   XZ=             26.0813   YZ=            -30.3690

 Normal termination of Gaussian 09 at Mon Oct  7 10:30:49 2019.
