 Gaussian 09, Revision D.01,
 Gaussian 09:  ES64L-G09RevD.01 24-Apr-2013

 ----------------------------------------------------------------------
 # td=(NStates=1) iop(3/107=0140000000,3/108=0140000000) iop(3/107=0140
 000000,3/108=0140000000) CAM-B3LYP/6-31G(d,p)
 ----------------------------------------------------------------------

 --
 TD
 --
 Symbolic Z-matrix:
 Charge =  0 Multiplicity = 1

                         Standard orientation:
 ---------------------------------------------------------------------
 Center     Atomic      Atomic             Coordinates (Angstroms)
 Number     Number       Type             X           Y           Z
 ---------------------------------------------------------------------
      1         12           0       -5.656719    1.242021    0.137074
      2          6           0       -4.972362   -2.118370   -0.376668
      3          6           0       -3.375504    1.122933    2.704246
      4          6           0       -6.384051    4.556911    0.702656
      5          6           0       -8.026338    1.141593   -2.266106
      6          7           0       -4.333208   -0.219556    1.014707
      7          6           0       -4.177136   -1.565407    0.594223
      8          6           0       -3.204858   -2.419051    1.439604
      9          6           0       -2.796066   -1.261953    2.583893
     10          6           0       -3.539901   -0.085319    2.125728
     11          6           0       -3.388642   -1.611496    3.974104
     12          6           0       -1.919771   -2.726478    0.608516
     13          6           0       -0.939712   -3.532719    1.396528
     14          6           0        0.303808   -3.874731    0.692948
     15          8           0        0.521394   -3.606861   -0.518080
     16          8           0        1.026917   -4.686340    1.452796
     17          7           0       -5.018333    2.701254    1.506523
     18          6           0       -3.904469    2.452663    2.393589
     19          6           0       -3.747436    3.689599    3.061405
     20          6           0       -4.581651    4.712590    2.556785
     21          6           0       -5.313621    4.020270    1.551761
     22          6           0       -2.630329    3.852120    4.170176
     23          6           0       -4.678019    6.046478    2.951477
     24          8           0       -3.864883    6.580372    3.730577
     25          7           0       -6.973321    2.646850   -0.705118
     26          6           0       -7.128226    3.963813   -0.283593
     27          6           0       -8.079194    4.601050   -1.165889
     28          6           0       -8.591769    3.561390   -1.960036
     29          6           0       -7.891409    2.405148   -1.699613
     30          6           0       -8.308244    6.019236   -1.241117
     31          6           0       -9.552049    3.814178   -3.128589
     32          6           0       -8.872040    3.816182   -4.595352
     33          7           0       -6.347392   -0.145376   -1.004094
     34          6           0       -7.347330   -0.085220   -2.047668
     35          6           0       -7.475743   -1.320824   -2.754051
     36          6           0       -6.623933   -2.169768   -2.065480
     37          6           0       -6.016734   -1.408957   -1.090844
     38          6           0       -8.408683   -1.601234   -3.923025
     39          6           0       -6.199003   -3.596431   -2.017154
     40          8           0       -6.566432   -4.517921   -2.636541
     41          6           0       -5.104307   -3.577702   -0.904873
     42          6           0       -5.270056   -4.691651    0.163699
     43          8           0       -5.739159   -4.631383    1.248628
     44          8           0       -5.005505   -5.887972   -0.378093
     45          6           0       -5.170433   -6.897135    0.406518
     46          6           0        2.306842   -5.000832    0.792318
     47          6           0        3.482027   -4.215839    1.138832
     48          6           0        4.090572   -3.418829    0.325519
     49          6           0        3.734255   -3.108870   -1.200184
     50          6           0        5.151606   -2.530613    0.743488
     51          6           0        6.549344   -2.770121    0.060801
     52          6           0        7.632586   -1.817881    0.613796
     53          6           0        8.970666   -1.862404   -0.078090
     54          6           0        9.436617   -3.361124    0.141049
     55          6           0       10.025363   -0.887154    0.481013
     56          6           0       11.258581   -0.684513   -0.411076
     57          6           0       12.154715    0.379659    0.208183
     58          6           0       13.472692    0.557397   -0.641161
     59          6           0       14.374094   -0.784544   -0.598367
     60          6           0       14.280197    1.766835   -0.071055
     61          6           0       15.439530    2.178532   -0.999882
     62          6           0       16.054575    3.582520   -0.690456
     63          6           0       17.423448    3.988531   -1.374590
     64          6           0       17.152183    3.965786   -2.961491
     65          6           0       17.969862    5.158181   -0.740764
     66          1           0       -2.658644    1.547139    3.514258
     67          1           0       -6.791227    5.539168    0.916387
     68          1           0       -8.709009    1.078196   -3.066349
     69          1           0       -3.767677   -3.323570    1.908198
     70          1           0       -1.449441   -1.311736    2.655284
     71          1           0       -3.016185   -2.592410    4.338951
     72          1           0       -3.157978   -0.853285    4.863471
     73          1           0       -4.444993   -1.707830    4.094012
     74          1           0       -2.237891   -3.228884   -0.286615
     75          1           0       -1.500494   -1.768165    0.281889
     76          1           0       -0.718212   -2.932551    2.412997
     77          1           0       -1.447494   -4.492243    1.671368
     78          1           0       -1.627019    3.887451    3.713699
     79          1           0       -2.850729    4.857813    4.517863
     80          1           0       -2.675956    3.150843    5.011517
     81          1           0       -5.338445    6.612298    2.500399
     82          1           0      -10.304842    2.947897   -3.025864
     83          1           0      -10.192001    4.468863   -3.029089
     84          1           0       -9.818507    4.029304   -5.209209
     85          1           0       -8.053551    4.584515   -4.430192
     86          1           0       -8.336283    2.779330   -4.849765
     87          1           0       -8.048390   -1.063504   -4.735118
     88          1           0       -8.445312   -2.656807   -4.176591
     89          1           0       -9.454521   -1.370202   -3.651363
     90          1           0       -4.257361   -3.916685   -1.264627
     91          1           0        2.540245   -6.072725    1.221643
     92          1           0        2.151503   -5.295304   -0.136871
     93          1           0        3.802230   -4.207670    2.335628
     94          1           0        2.516981   -2.963646   -1.332793
     95          1           0        4.324321   -2.199985   -1.482139
     96          1           0        4.175461   -3.920546   -1.786535
     97          1           0        4.610044   -1.448691    0.505810
     98          1           0        5.299187   -2.656978    1.803206
     99          1           0        6.952257   -3.925627    0.156832
    100          1           0        6.392639   -2.644987   -1.039024
    101          1           0        7.095667   -0.784844    0.340852
    102          1           0        7.912652   -2.107973    1.523328
    103          1           0        8.912354   -1.791918   -1.197167
    104          1           0        8.961001   -4.242812   -0.415763
    105          1           0       10.683398   -3.296947   -0.060922
    106          1           0        9.288361   -3.451699    1.198766
    107          1           0        9.469351    0.045216    0.553734
    108          1           0       10.272906   -1.199613    1.577287
    109          1           0       11.848693   -1.762887   -0.568850
    110          1           0       10.865215   -0.379646   -1.462986
    111          1           0       11.751156    1.390528    0.319939
    112          1           0       12.385251   -0.051425    1.213883
    113          1           0       13.206896    0.851753   -1.684387
    114          1           0       14.624347   -0.996910    0.467965
    115          1           0       14.017038   -1.670303   -1.135098
    116          1           0       15.300289   -0.523309   -1.220069
    117          1           0       13.545800    2.704531   -0.198250
    118          1           0       14.441591    1.593272    1.001433
    119          1           0       16.240571    1.402922   -0.744296
    120          1           0       14.941569    2.062857   -1.986219
    121          1           0       15.339080    4.383645   -0.735365
    122          1           0       16.319585    3.654740    0.423372
    123          1           0       18.041124    3.235276   -1.249985
    124          1           0       16.426079    4.784632   -3.138137
    125          1           0       18.017607    4.298119   -3.527387
    126          1           0       16.770457    3.035346   -3.423456
    127          1           0       18.027519    4.856360    0.460457
    128          1           0       19.066941    5.286441   -1.286681
    129          1           0       17.454288    6.115986   -0.956638
    130          1           0       -4.601188   -7.926562    0.092465
    131          1           0       -6.435009   -7.020586    0.641761
    132          1           0       -4.730289   -6.738984    1.349468
    133          8           0       -7.732399    6.899423   -0.440413
    134          1           0       -9.323341    6.136447   -1.868415
 ---------------------------------------------------------------------

 SCF Done:  E(RCAM-B3LYP) =  -3043.41293602     A.U. after   16 cycles

 Excitation energies and oscillator strengths:

 Excited State   1:      Singlet-A      1.9441 eV  637.73 nm  f=0.1675  <S**2>=0.000
     243 -> 245        0.10788
     243 -> 246       -0.23896
     244 -> 245        0.64288
 This state for optimization and/or second-order correction.
 Total Energy, E(TD-HF/TD-KS) =  -3043.34148988
 Copying the excited state density for this state as the 1-particle RhoCI density.

 The electronic state is 1-A.
 Alpha  occ. eigenvalues --  -46.81649 -19.23675 -19.23628 -19.18814 -19.18383
 Alpha  occ. eigenvalues --  -19.17739 -19.17362 -19.15608 -14.39601 -14.37286
 Alpha  occ. eigenvalues --  -14.36960 -14.36444 -10.35926 -10.35476 -10.32650
 Alpha  occ. eigenvalues --  -10.31932 -10.28515 -10.28004 -10.27947 -10.27714
 Alpha  occ. eigenvalues --  -10.27363 -10.27272 -10.27077 -10.26668 -10.26524
 Alpha  occ. eigenvalues --  -10.26302 -10.26131 -10.26128 -10.26061 -10.25838
 Alpha  occ. eigenvalues --  -10.25197 -10.25188 -10.24994 -10.24871 -10.24847
 Alpha  occ. eigenvalues --  -10.24554 -10.24353 -10.23825 -10.23774 -10.23382
 Alpha  occ. eigenvalues --  -10.23280 -10.23263 -10.23190 -10.23187 -10.22979
 Alpha  occ. eigenvalues --  -10.22862 -10.22707 -10.22609 -10.22567 -10.22530
 Alpha  occ. eigenvalues --  -10.22327 -10.22327 -10.22252 -10.22048 -10.21746
 Alpha  occ. eigenvalues --  -10.21698 -10.21676 -10.21556 -10.21458 -10.21168
 Alpha  occ. eigenvalues --  -10.21057 -10.21053 -10.20855 -10.20807 -10.20429
 Alpha  occ. eigenvalues --  -10.20205  -3.10236  -1.85168  -1.84695  -1.84668
 Alpha  occ. eigenvalues --   -1.18834  -1.14106  -1.11140  -1.08235  -1.04365
 Alpha  occ. eigenvalues --   -1.03541  -1.01974  -1.01560  -0.99735  -0.99140
 Alpha  occ. eigenvalues --   -0.97979  -0.88910  -0.86915  -0.85923  -0.85735
 Alpha  occ. eigenvalues --   -0.85201  -0.85001  -0.84261  -0.84242  -0.83755
 Alpha  occ. eigenvalues --   -0.82972  -0.81969  -0.81785  -0.81063  -0.80115
 Alpha  occ. eigenvalues --   -0.79476  -0.78587  -0.78205  -0.77832  -0.76150
 Alpha  occ. eigenvalues --   -0.75622  -0.74561  -0.73609  -0.73408  -0.72600
 Alpha  occ. eigenvalues --   -0.70704  -0.70655  -0.70333  -0.69963  -0.69758
 Alpha  occ. eigenvalues --   -0.69131  -0.68991  -0.67885  -0.67581  -0.66832
 Alpha  occ. eigenvalues --   -0.66524  -0.64893  -0.64331  -0.62508  -0.62159
 Alpha  occ. eigenvalues --   -0.61614  -0.61508  -0.59993  -0.59691  -0.59427
 Alpha  occ. eigenvalues --   -0.58986  -0.58679  -0.58646  -0.57718  -0.57626
 Alpha  occ. eigenvalues --   -0.57026  -0.56610  -0.55965  -0.55391  -0.55086
 Alpha  occ. eigenvalues --   -0.54636  -0.54116  -0.53554  -0.52997  -0.52635
 Alpha  occ. eigenvalues --   -0.52111  -0.51771  -0.51763  -0.51075  -0.50700
 Alpha  occ. eigenvalues --   -0.50307  -0.50249  -0.49876  -0.49620  -0.49169
 Alpha  occ. eigenvalues --   -0.49072  -0.48927  -0.48382  -0.47919  -0.47748
 Alpha  occ. eigenvalues --   -0.47558  -0.47153  -0.47046  -0.46966  -0.46835
 Alpha  occ. eigenvalues --   -0.46437  -0.46390  -0.46237  -0.45757  -0.45564
 Alpha  occ. eigenvalues --   -0.45368  -0.45257  -0.45103  -0.44950  -0.44745
 Alpha  occ. eigenvalues --   -0.44567  -0.44510  -0.44448  -0.44006  -0.43755
 Alpha  occ. eigenvalues --   -0.43694  -0.43473  -0.43371  -0.43052  -0.42813
 Alpha  occ. eigenvalues --   -0.42787  -0.42411  -0.41896  -0.41880  -0.41701
 Alpha  occ. eigenvalues --   -0.41652  -0.41187  -0.41115  -0.40942  -0.40779
 Alpha  occ. eigenvalues --   -0.40641  -0.40263  -0.40198  -0.40088  -0.39720
 Alpha  occ. eigenvalues --   -0.39607  -0.39409  -0.39279  -0.39127  -0.38988
 Alpha  occ. eigenvalues --   -0.38883  -0.38732  -0.38591  -0.38254  -0.38243
 Alpha  occ. eigenvalues --   -0.37531  -0.37415  -0.37224  -0.37119  -0.37092
 Alpha  occ. eigenvalues --   -0.36961  -0.36943  -0.36489  -0.35844  -0.35661
 Alpha  occ. eigenvalues --   -0.35375  -0.35264  -0.35130  -0.34978  -0.34582
 Alpha  occ. eigenvalues --   -0.34477  -0.34254  -0.33875  -0.33649  -0.33278
 Alpha  occ. eigenvalues --   -0.32952  -0.32550  -0.32505  -0.32324  -0.32307
 Alpha  occ. eigenvalues --   -0.31547  -0.31198  -0.30791  -0.30578  -0.30370
 Alpha  occ. eigenvalues --   -0.29806  -0.29373  -0.28430  -0.28110  -0.27740
 Alpha  occ. eigenvalues --   -0.27377  -0.26852  -0.23549  -0.22169
 Alpha virt. eigenvalues --   -0.09775  -0.07622  -0.01878  -0.01570   0.00080
 Alpha virt. eigenvalues --    0.01687   0.02526   0.03242   0.03913   0.04164
 Alpha virt. eigenvalues --    0.04218   0.05207   0.07277   0.08023   0.08188

 Mulliken charges:
               1
     1  Mg   0.837341
     2  C    0.062948
     3  C   -0.166047
     4  C   -0.160767
     5  C   -0.188790
     6  N   -0.623800
     7  C    0.262808
     8  C   -0.168375
     9  C   -0.131046
    10  C    0.375823
    11  C   -0.321691
    12  C   -0.165756
    13  C   -0.263061
    14  C    0.626142
    15  O   -0.501177
    16  O   -0.448246
    17  N   -0.677974
    18  C    0.257879
    19  C   -0.016135
    20  C    0.035764
    21  C    0.292671
    22  C   -0.398346
    23  C    0.237265
    24  O   -0.443826
    25  N   -0.706389
    26  C    0.296491
    27  C    0.012935
    28  C   -0.007992
    29  C    0.355424
    30  C    0.218626
    31  C   -0.224313
    32  C   -0.295496
    33  N   -0.743135
    34  C    0.240724
    35  C    0.034227
    36  C   -0.013382
    37  C    0.331725
    38  C   -0.377850
    39  C    0.397171
    40  O   -0.407357
    41  C   -0.298378
    42  C    0.563432
    43  O   -0.443003
    44  O   -0.355977
    45  C   -0.081367
    46  C    0.008955
    47  C   -0.160414
    48  C    0.184027
    49  C   -0.376255
    50  C   -0.228438
    51  C   -0.181392
    52  C   -0.132309
    53  C   -0.072677
    54  C   -0.305619
    55  C   -0.161004
    56  C   -0.163938
    57  C   -0.158728
    58  C   -0.061382
    59  C   -0.319892
    60  C   -0.175734
    61  C   -0.163460
    62  C   -0.177281
    63  C   -0.030690
    64  C   -0.331278
    65  C   -0.287147
    66  H    0.091964
    67  H    0.133845
    68  H    0.079775
    69  H    0.131738
    70  H    0.076483
    71  H    0.105190
    72  H    0.101031
    73  H    0.138019
    74  H    0.119291
    75  H    0.125734
    76  H    0.116672
    77  H    0.139980
    78  H    0.129213
    79  H    0.162612
    80  H    0.116880
    81  H    0.087590
    82  H    0.088762
    83  H    0.113343
    84  H    0.119497
    85  H    0.125668
    86  H    0.103135
    87  H    0.141810
    88  H    0.150207
    89  H    0.132060
    90  H    0.156186
    91  H    0.088965
    92  H    0.141797
    93  H    0.069184
    94  H    0.148066
    95  H    0.104039
    96  H    0.123302
    97  H    0.088066
    98  H    0.092794
    99  H    0.074247
   100  H    0.094503
   101  H    0.074286
   102  H    0.098788
   103  H    0.076946
   104  H    0.104953
   105  H    0.059355
   106  H    0.100717
   107  H    0.098001
   108  H    0.073471
   109  H    0.076894
   110  H    0.083268
   111  H    0.094838
   112  H    0.087437
   113  H    0.078098
   114  H    0.102927
   115  H    0.107775
   116  H    0.093997
   117  H    0.062358
   118  H    0.091774
   119  H    0.091241
   120  H    0.093351
   121  H    0.089843
   122  H    0.065812
   123  H    0.104709
   124  H    0.095322
   125  H    0.094864
   126  H    0.110019
   127  H    0.085488
   128  H    0.072028
   129  H    0.107654
   130  H    0.096172
   131  H    0.076139
   132  H    0.118023
   133  O   -0.463588
   134  H    0.070328
 Sum of Mulliken charges =   0.00000

 Dipole moment (field-independent basis, Debye):
    X=              0.7983    Y=             -5.1992    Z=             -2.6830  Tot=              5.9049
 Quadrupole moment (field-independent basis, Debye-Ang):
   XX=           -362.4988   YY=           -457.2480   ZZ=           -395.7634
   XY=              6.7125   XZ=             30.6703   YZ=            -33.7367

 Normal termination of Gaussian 09 at Tue Oct  8 16:03:53 2019.
