 Gaussian 09, Revision D.01,
 Gaussian 09:  ES64L-G09RevD.01 24-Apr-2013

 ----------------------------------------------------------------------
 # td=(NStates=1) iop(3/107=0140000000,3/108=0140000000) iop(3/107=0140
 000000,3/108=0140000000) CAM-B3LYP/6-31G(d,p)
 ----------------------------------------------------------------------

 --
 TD
 --
 Symbolic Z-matrix:
 Charge =  0 Multiplicity = 1

                         Standard orientation:
 ---------------------------------------------------------------------
 Center     Atomic      Atomic             Coordinates (Angstroms)
 Number     Number       Type             X           Y           Z
 ---------------------------------------------------------------------
      1         12           0       -5.585820    1.284473    0.238365
      2          6           0       -5.030216   -2.121573   -0.352286
      3          6           0       -3.347452    1.143303    2.729986
      4          6           0       -6.124832    4.526507    0.691513
      5          6           0       -7.936596    1.236307   -2.360651
      6          7           0       -4.416317   -0.237113    1.073541
      7          6           0       -4.350408   -1.619138    0.726714
      8          6           0       -3.347726   -2.316874    1.541447
      9          6           0       -2.973255   -1.381372    2.615793
     10          6           0       -3.612266   -0.093365    2.174761
     11          6           0       -3.460074   -1.826120    4.122820
     12          6           0       -2.134729   -2.699154    0.690009
     13          6           0       -1.200802   -3.632686    1.383058
     14          6           0        0.138696   -4.017933    0.554068
     15          8           0        0.231346   -3.646622   -0.646056
     16          8           0        0.988994   -4.737792    1.271507
     17          7           0       -4.871446    2.671501    1.507060
     18          6           0       -3.827852    2.452624    2.415036
     19          6           0       -3.498998    3.656651    3.068670
     20          6           0       -4.484830    4.593525    2.465540
     21          6           0       -5.085133    3.990315    1.459344
     22          6           0       -2.623869    3.899401    4.359397
     23          6           0       -4.460518    6.015534    2.936834
     24          8           0       -3.761829    6.537015    3.774160
     25          7           0       -6.759527    2.733454   -0.765173
     26          6           0       -6.903397    3.964381   -0.400546
     27          6           0       -7.884918    4.575927   -1.250020
     28          6           0       -8.404412    3.699846   -2.073209
     29          6           0       -7.684855    2.476626   -1.844654
     30          6           0       -8.261613    6.008241   -1.150096
     31          6           0       -9.541924    3.871950   -3.028305
     32          6           0       -8.968504    4.115458   -4.397008
     33          7           0       -6.306755   -0.001718   -1.169632
     34          6           0       -7.267367    0.039894   -2.128510
     35          6           0       -7.536284   -1.216319   -2.728123
     36          6           0       -6.680794   -2.105976   -1.952416
     37          6           0       -5.913995   -1.326467   -1.090873
     38          6           0       -8.411483   -1.657136   -3.832749
     39          6           0       -6.236694   -3.491135   -1.991416
     40          8           0       -6.641318   -4.526566   -2.526922
     41          6           0       -5.090152   -3.493332   -0.855387
     42          6           0       -5.360817   -4.566375    0.204309
     43          8           0       -5.919463   -4.407874    1.221087
     44          8           0       -4.884166   -5.791192   -0.241010
     45          6           0       -5.306212   -6.975859    0.629365
     46          6           0        2.289198   -5.041185    0.493255
     47          6           0        3.390880   -4.103071    0.899680
     48          6           0        4.082289   -3.298258    0.061922
     49          6           0        3.784304   -3.357682   -1.349148
     50          6           0        5.175883   -2.403267    0.587316
     51          6           0        6.483601   -2.710356   -0.094842
     52          6           0        7.607733   -1.854970    0.578260
     53          6           0        8.977891   -2.201169   -0.000325
     54          6           0        9.568781   -3.536479    0.266732
     55          6           0        9.913888   -0.956992    0.387457
     56          6           0       11.303698   -0.992329   -0.210859
     57          6           0       12.126981    0.283606    0.056878
     58          6           0       13.487738    0.436107   -0.708582
     59          6           0       14.535371   -0.720171   -0.461193
     60          6           0       14.174464    1.754726   -0.268665
     61          6           0       15.549351    2.110667   -0.989303
     62          6           0       15.940747    3.577012   -0.630406
     63          6           0       17.294828    3.969010   -1.193709
     64          6           0       17.222171    4.146192   -2.734359
     65          6           0       17.681078    5.300115   -0.608476
     66          1           0       -2.833076    1.240929    3.571894
     67          1           0       -6.400280    5.535530    0.721504
     68          1           0       -8.721849    1.118446   -2.866238
     69          1           0       -3.917801   -3.237328    2.068821
     70          1           0       -1.929140   -1.075063    2.676500
     71          1           0       -2.934570   -2.636359    4.555264
     72          1           0       -3.398841   -1.008503    4.788226
     73          1           0       -4.433738   -2.014201    3.858333
     74          1           0       -2.408112   -3.224047   -0.266896
     75          1           0       -1.531937   -1.776083    0.378425
     76          1           0       -0.841815   -3.350363    2.408199
     77          1           0       -1.699078   -4.692678    1.558506
     78          1           0       -1.628383    3.611680    4.166985
     79          1           0       -2.748255    4.978396    4.626746
     80          1           0       -2.883368    2.931651    5.005412
     81          1           0       -5.137953    6.748680    2.154635
     82          1           0      -10.165950    2.972549   -3.010838
     83          1           0      -10.096943    4.721197   -2.733070
     84          1           0       -9.780133    4.129200   -5.255207
     85          1           0       -8.347641    4.857152   -4.541292
     86          1           0       -8.524661    3.327731   -4.977838
     87          1           0       -7.878869   -1.370705   -4.825714
     88          1           0       -8.389121   -2.756588   -4.194534
     89          1           0       -9.568398   -1.368946   -3.677903
     90          1           0       -4.139708   -3.821991   -1.567299
     91          1           0        2.712381   -5.869545    0.949771
     92          1           0        1.988426   -4.982394   -0.437306
     93          1           0        3.665290   -4.093093    2.041626
     94          1           0        2.649269   -3.295396   -1.842106
     95          1           0        3.910413   -2.328464   -1.636722
     96          1           0        4.359891   -4.116459   -1.965298
     97          1           0        4.896616   -1.513170    0.296437
     98          1           0        5.250349   -2.529255    1.766677
     99          1           0        6.646144   -3.808518   -0.253252
    100          1           0        6.590872   -2.562786   -1.157879
    101          1           0        7.198192   -0.854074    0.438203
    102          1           0        7.436449   -2.120736    1.718662
    103          1           0        9.065369   -2.161465   -1.054550
    104          1           0        8.858568   -4.199052   -0.333637
    105          1           0       10.652076   -3.600040   -0.372036
    106          1           0        9.814124   -3.808532    1.320222
    107          1           0        9.720053   -0.061604    0.301364
    108          1           0       10.101961   -1.076650    1.476249
    109          1           0       11.701724   -1.932593    0.242275
    110          1           0       11.209840   -1.128750   -1.359665
    111          1           0       11.423238    1.043522    0.005549
    112          1           0       12.270082    0.221275    1.103429
    113          1           0       13.352448    0.484559   -1.795770
    114          1           0       14.517029   -0.680121    0.673075
    115          1           0       14.314656   -1.613140   -1.123602
    116          1           0       15.725354   -0.431158   -0.850224
    117          1           0       13.481568    2.673867   -0.368278
    118          1           0       14.434518    1.573177    0.749930
    119          1           0       16.133735    1.264463   -0.789280
    120          1           0       15.301474    2.046681   -2.200503
    121          1           0       15.226587    4.118869   -1.059838
    122          1           0       16.046734    3.856223    0.451478
    123          1           0       17.945018    3.119147   -1.102487
    124          1           0       16.332486    4.921021   -2.951305
    125          1           0       18.098425    4.609672   -3.041347
    126          1           0       17.050479    3.233229   -3.299724
    127          1           0       18.058345    5.337843    0.497467
    128          1           0       18.588933    5.822699   -0.940618
    129          1           0       17.029348    6.078779   -0.841096
    130          1           0       -5.313459   -7.782354   -0.187746
    131          1           0       -6.357011   -7.010973    0.922739
    132          1           0       -4.578698   -7.307292    1.588116
    133          8           0       -7.687922    6.825703   -0.359288
    134          1           0       -8.926227    6.261299   -2.014691
 ---------------------------------------------------------------------

 SCF Done:  E(RCAM-B3LYP) =  -3043.37779638     A.U. after   16 cycles

 Excitation energies and oscillator strengths:

 Excited State   1:      Singlet-A      2.0115 eV  616.38 nm  f=0.1797  <S**2>=0.000
     243 -> 245       -0.29469
     243 -> 246       -0.23140
     244 -> 245        0.57545
     244 -> 246       -0.12947
 This state for optimization and/or second-order correction.
 Total Energy, E(TD-HF/TD-KS) =  -3043.30387536
 Copying the excited state density for this state as the 1-particle RhoCI density.

 The electronic state is 1-A.
 Alpha  occ. eigenvalues --  -46.81000 -19.23064 -19.22069 -19.18063 -19.17780
 Alpha  occ. eigenvalues --  -19.17577 -19.16731 -19.16418 -14.38800 -14.36791
 Alpha  occ. eigenvalues --  -14.36222 -14.35623 -10.35159 -10.34727 -10.31486
 Alpha  occ. eigenvalues --  -10.31406 -10.31168 -10.29003 -10.27326 -10.26876
 Alpha  occ. eigenvalues --  -10.26598 -10.26243 -10.26079 -10.25971 -10.25543
 Alpha  occ. eigenvalues --  -10.25301 -10.25255 -10.25172 -10.25060 -10.24895
 Alpha  occ. eigenvalues --  -10.24703 -10.24366 -10.24271 -10.24190 -10.24154
 Alpha  occ. eigenvalues --  -10.23953 -10.23316 -10.23235 -10.23177 -10.22937
 Alpha  occ. eigenvalues --  -10.22925 -10.22913 -10.22873 -10.22795 -10.22643
 Alpha  occ. eigenvalues --  -10.22445 -10.22337 -10.22127 -10.22120 -10.22114
 Alpha  occ. eigenvalues --  -10.22000 -10.21953 -10.21775 -10.21583 -10.21549
 Alpha  occ. eigenvalues --  -10.21461 -10.21437 -10.21158 -10.20913 -10.20592
 Alpha  occ. eigenvalues --  -10.20488 -10.20149 -10.19973 -10.19836 -10.19625
 Alpha  occ. eigenvalues --  -10.18518  -3.09578  -1.84522  -1.84060  -1.83975
 Alpha  occ. eigenvalues --   -1.12897  -1.11976  -1.07495  -1.05450  -1.04550
 Alpha  occ. eigenvalues --   -1.04320  -1.02354  -1.01057  -1.00080  -0.99879
 Alpha  occ. eigenvalues --   -0.98821  -0.89281  -0.87304  -0.87282  -0.85988
 Alpha  occ. eigenvalues --   -0.85483  -0.84631  -0.84425  -0.83986  -0.83216
 Alpha  occ. eigenvalues --   -0.82792  -0.81554  -0.81512  -0.80816  -0.80090
 Alpha  occ. eigenvalues --   -0.79464  -0.78773  -0.77850  -0.76854  -0.76073
 Alpha  occ. eigenvalues --   -0.75481  -0.74686  -0.73994  -0.72823  -0.71691
 Alpha  occ. eigenvalues --   -0.71667  -0.70783  -0.70643  -0.70224  -0.69595
 Alpha  occ. eigenvalues --   -0.69158  -0.69107  -0.68778  -0.67659  -0.66135
 Alpha  occ. eigenvalues --   -0.65166  -0.64522  -0.64285  -0.63111  -0.62191
 Alpha  occ. eigenvalues --   -0.62024  -0.61157  -0.60479  -0.59725  -0.59477
 Alpha  occ. eigenvalues --   -0.59291  -0.58765  -0.57847  -0.57804  -0.57019
 Alpha  occ. eigenvalues --   -0.56853  -0.55933  -0.55311  -0.55265  -0.54466
 Alpha  occ. eigenvalues --   -0.53213  -0.53032  -0.52794  -0.52271  -0.51780
 Alpha  occ. eigenvalues --   -0.51662  -0.51331  -0.51024  -0.50761  -0.50120
 Alpha  occ. eigenvalues --   -0.49985  -0.49609  -0.49568  -0.49447  -0.49161
 Alpha  occ. eigenvalues --   -0.49009  -0.48716  -0.48429  -0.48109  -0.47807
 Alpha  occ. eigenvalues --   -0.47667  -0.47464  -0.47409  -0.46808  -0.46755
 Alpha  occ. eigenvalues --   -0.46583  -0.46367  -0.46226  -0.46180  -0.45773
 Alpha  occ. eigenvalues --   -0.45724  -0.45556  -0.45187  -0.45163  -0.44920
 Alpha  occ. eigenvalues --   -0.44531  -0.44356  -0.44304  -0.44271  -0.43947
 Alpha  occ. eigenvalues --   -0.43796  -0.43345  -0.43209  -0.43096  -0.43015
 Alpha  occ. eigenvalues --   -0.42664  -0.42515  -0.42180  -0.41714  -0.41479
 Alpha  occ. eigenvalues --   -0.41434  -0.41374  -0.41251  -0.41158  -0.40888
 Alpha  occ. eigenvalues --   -0.40651  -0.40505  -0.40459  -0.40225  -0.40099
 Alpha  occ. eigenvalues --   -0.39956  -0.39834  -0.39691  -0.39350  -0.39335
 Alpha  occ. eigenvalues --   -0.38711  -0.38522  -0.38448  -0.38112  -0.37839
 Alpha  occ. eigenvalues --   -0.37588  -0.37467  -0.37342  -0.37018  -0.36963
 Alpha  occ. eigenvalues --   -0.36457  -0.36412  -0.35693  -0.35662  -0.35600
 Alpha  occ. eigenvalues --   -0.35416  -0.35292  -0.34943  -0.34588  -0.34585
 Alpha  occ. eigenvalues --   -0.34474  -0.33995  -0.33618  -0.33543  -0.33330
 Alpha  occ. eigenvalues --   -0.33258  -0.32703  -0.32673  -0.32119  -0.31722
 Alpha  occ. eigenvalues --   -0.31614  -0.31086  -0.30143  -0.30054  -0.29259
 Alpha  occ. eigenvalues --   -0.28896  -0.28452  -0.27552  -0.27337  -0.27146
 Alpha  occ. eigenvalues --   -0.27102  -0.26404  -0.22443  -0.22119
 Alpha virt. eigenvalues --   -0.09205  -0.06461  -0.01535  -0.00884   0.00488
 Alpha virt. eigenvalues --    0.02707   0.03284   0.03975   0.04098   0.04485
 Alpha virt. eigenvalues --    0.04707   0.05906   0.07982   0.08717   0.09341

 Mulliken charges:
               1
     1  Mg   0.810657
     2  C    0.107024
     3  C   -0.187677
     4  C   -0.156862
     5  C   -0.109445
     6  N   -0.641400
     7  C    0.309886
     8  C   -0.166167
     9  C   -0.160881
    10  C    0.374248
    11  C   -0.317129
    12  C   -0.158210
    13  C   -0.259207
    14  C    0.598078
    15  O   -0.500472
    16  O   -0.463082
    17  N   -0.700838
    18  C    0.310706
    19  C   -0.002517
    20  C   -0.037814
    21  C    0.341724
    22  C   -0.377089
    23  C    0.261361
    24  O   -0.408679
    25  N   -0.670582
    26  C    0.331767
    27  C   -0.049431
    28  C    0.065539
    29  C    0.236288
    30  C    0.250274
    31  C   -0.230621
    32  C   -0.322629
    33  N   -0.735278
    34  C    0.272438
    35  C    0.072520
    36  C   -0.015749
    37  C    0.310361
    38  C   -0.406748
    39  C    0.360558
    40  O   -0.468445
    41  C   -0.355781
    42  C    0.638848
    43  O   -0.441505
    44  O   -0.470875
    45  C   -0.101005
    46  C    0.032161
    47  C   -0.160780
    48  C    0.144135
    49  C   -0.396142
    50  C   -0.203623
    51  C   -0.201543
    52  C   -0.153794
    53  C   -0.051844
    54  C   -0.304091
    55  C   -0.161791
    56  C   -0.194776
    57  C   -0.178139
    58  C   -0.067577
    59  C   -0.295836
    60  C   -0.168235
    61  C   -0.188104
    62  C   -0.135109
    63  C   -0.052451
    64  C   -0.307690
    65  C   -0.326273
    66  H    0.047537
    67  H    0.122400
    68  H    0.051025
    69  H    0.123118
    70  H    0.118645
    71  H    0.122605
    72  H    0.115856
    73  H    0.134973
    74  H    0.123300
    75  H    0.116183
    76  H    0.118982
    77  H    0.116472
    78  H    0.134026
    79  H    0.177963
    80  H    0.108041
    81  H    0.041931
    82  H    0.120421
    83  H    0.121455
    84  H    0.083154
    85  H    0.132876
    86  H    0.121772
    87  H    0.125641
    88  H    0.152384
    89  H    0.113627
    90  H    0.147938
    91  H    0.130698
    92  H    0.140135
    93  H    0.071470
    94  H    0.129911
    95  H    0.111233
    96  H    0.122254
    97  H    0.119595
    98  H    0.090231
    99  H    0.084905
   100  H    0.101600
   101  H    0.104603
   102  H    0.078025
   103  H    0.097339
   104  H    0.103444
   105  H    0.081509
   106  H    0.108944
   107  H    0.082442
   108  H    0.074977
   109  H    0.090671
   110  H    0.062557
   111  H    0.099556
   112  H    0.092972
   113  H    0.081379
   114  H    0.106068
   115  H    0.110731
   116  H    0.067247
   117  H    0.074630
   118  H    0.090951
   119  H    0.097389
   120  H    0.058804
   121  H    0.102455
   122  H    0.087178
   123  H    0.092581
   124  H    0.068527
   125  H    0.110104
   126  H    0.103416
   127  H    0.084954
   128  H    0.092162
   129  H    0.114054
   130  H    0.130646
   131  H    0.149300
   132  H    0.107480
   133  O   -0.443494
   134  H    0.077383
 Sum of Mulliken charges =   0.00000

 Dipole moment (field-independent basis, Debye):
    X=              1.9058    Y=             -4.1262    Z=             -1.3434  Tot=              4.7395
 Quadrupole moment (field-independent basis, Debye-Ang):
   XX=           -366.9175   YY=           -440.7310   ZZ=           -389.4852
   XY=              0.5766   XZ=             25.7070   YZ=            -36.0273

 Normal termination of Gaussian 09 at Tue Oct  8 17:03:23 2019.
