 Gaussian 09, Revision D.01,
 Gaussian 09:  ES64L-G09RevD.01 24-Apr-2013

 ----------------------------------------------------------------------
 # td=(NStates=1) iop(3/107=0140000000,3/108=0140000000) iop(3/107=0140
 000000,3/108=0140000000) CAM-B3LYP/6-31G(d,p)
 ----------------------------------------------------------------------

 --
 TD
 --
 Symbolic Z-matrix:
 Charge =  0 Multiplicity = 1

                         Standard orientation:
 ---------------------------------------------------------------------
 Center     Atomic      Atomic             Coordinates (Angstroms)
 Number     Number       Type             X           Y           Z
 ---------------------------------------------------------------------
      1         12           0       -5.643825    1.177400    0.188040
      2          6           0       -5.008891   -2.097095   -0.420169
      3          6           0       -3.404573    1.125176    2.760048
      4          6           0       -6.154560    4.554517    0.676295
      5          6           0       -7.974233    1.168190   -2.406335
      6          7           0       -4.366716   -0.278964    0.991894
      7          6           0       -4.223239   -1.607507    0.517226
      8          6           0       -3.226084   -2.363137    1.324964
      9          6           0       -2.925853   -1.414234    2.617806
     10          6           0       -3.586181   -0.093507    2.112907
     11          6           0       -3.473994   -1.883864    3.994290
     12          6           0       -1.968753   -2.699835    0.703190
     13          6           0       -0.963973   -3.625581    1.467853
     14          6           0        0.221795   -3.989781    0.604029
     15          8           0        0.501287   -3.537514   -0.542892
     16          8           0        1.063968   -4.776477    1.295354
     17          7           0       -4.901486    2.641329    1.501753
     18          6           0       -3.928906    2.415912    2.461691
     19          6           0       -3.700342    3.593301    3.131772
     20          6           0       -4.499399    4.600925    2.546969
     21          6           0       -5.226793    3.954999    1.481221
     22          6           0       -2.747905    3.764938    4.270673
     23          6           0       -4.607808    6.000275    3.009917
     24          8           0       -4.042795    6.650548    3.917606
     25          7           0       -6.893607    2.672805   -0.702717
     26          6           0       -6.894816    4.021765   -0.324699
     27          6           0       -7.990274    4.653464   -1.119626
     28          6           0       -8.471354    3.608686   -1.986574
     29          6           0       -7.775476    2.394505   -1.677317
     30          6           0       -8.319757    6.063372   -1.120419
     31          6           0       -9.523783    3.763553   -3.141388
     32          6           0       -8.774401    3.880204   -4.484303
     33          7           0       -6.324694   -0.164939   -1.215718
     34          6           0       -7.378952   -0.016046   -2.084381
     35          6           0       -7.517131   -1.282760   -2.779860
     36          6           0       -6.741178   -2.164902   -2.119698
     37          6           0       -5.849586   -1.383025   -1.228504
     38          6           0       -8.579324   -1.462974   -3.882499
     39          6           0       -6.151512   -3.580454   -2.045987
     40          8           0       -6.661903   -4.556308   -2.590964
     41          6           0       -5.043070   -3.514533   -0.952596
     42          6           0       -5.274943   -4.626027    0.101586
     43          8           0       -5.506092   -4.389588    1.299110
     44          8           0       -4.869311   -5.868730   -0.373518
     45          6           0       -5.236968   -7.061283    0.488150
     46          6           0        2.313456   -5.158014    0.634861
     47          6           0        3.351631   -4.090841    0.994689
     48          6           0        3.997589   -3.196342    0.188055
     49          6           0        3.721384   -3.119905   -1.273128
     50          6           0        5.165942   -2.268030    0.689001
     51          6           0        6.551589   -2.585989    0.033186
     52          6           0        7.582629   -1.712715    0.639953
     53          6           0        8.952589   -1.885508    0.031338
     54          6           0        9.435298   -3.278484    0.114713
     55          6           0        9.863331   -0.889625    0.563519
     56          6           0       11.231820   -0.880986   -0.163074
     57          6           0       12.142552    0.351135    0.164052
     58          6           0       13.583911    0.386874   -0.532525
     59          6           0       14.519940   -0.701076   -0.144681
     60          6           0       14.169369    1.885610   -0.249347
     61          6           0       15.442887    2.097450   -1.050615
     62          6           0       16.015669    3.546215   -0.799394
     63          6           0       17.274653    3.910803   -1.507325
     64          6           0       17.176536    3.920425   -2.937129
     65          6           0       17.992791    5.196911   -0.874578
     66          1           0       -2.894708    0.906413    3.740363
     67          1           0       -6.367667    5.663395    0.844766
     68          1           0       -8.759866    1.255289   -3.143179
     69          1           0       -3.767562   -3.407509    1.573508
     70          1           0       -1.725606   -1.238528    2.661102
     71          1           0       -3.122600   -2.778613    4.734652
     72          1           0       -3.828249   -1.039439    4.612627
     73          1           0       -4.803358   -1.844317    3.892528
     74          1           0       -2.051474   -3.099195   -0.478989
     75          1           0       -1.417795   -1.823707    0.497473
     76          1           0       -0.571592   -3.121428    2.320979
     77          1           0       -1.323377   -4.443103    1.885192
     78          1           0       -1.701635    3.771342    3.906775
     79          1           0       -2.917678    4.782821    4.699810
     80          1           0       -2.934233    3.060428    5.139665
     81          1           0       -5.342022    6.795197    2.348518
     82          1           0      -10.073039    2.845051   -3.184974
     83          1           0      -10.068833    4.686896   -3.037513
     84          1           0       -9.296797    4.281092   -5.378196
     85          1           0       -8.115651    4.794621   -4.310583
     86          1           0       -8.000886    2.918269   -4.756213
     87          1           0       -8.396339   -0.890924   -4.741703
     88          1           0       -8.896227   -2.580440   -4.107539
     89          1           0       -9.521329   -1.024919   -3.531674
     90          1           0       -4.025714   -3.697151   -1.537935
     91          1           0        2.673564   -6.045620    1.331928
     92          1           0        2.187281   -5.493055   -0.416560
     93          1           0        3.702650   -3.931234    2.031011
     94          1           0        2.710927   -3.501548   -1.396309
     95          1           0        4.059672   -2.236409   -1.569775
     96          1           0        4.357686   -3.847414   -1.836565
     97          1           0        4.653432   -1.250245    0.510119
     98          1           0        5.186331   -2.514663    1.758244
     99          1           0        6.661521   -3.613783    0.101628
    100          1           0        6.495008   -2.489670   -1.115013
    101          1           0        7.158155   -0.709277    0.600393
    102          1           0        7.665657   -1.866609    1.594957
    103          1           0        8.856337   -1.588573   -1.109412
    104          1           0        8.722252   -3.863652   -0.314870
    105          1           0       10.508517   -3.521229   -0.065880
    106          1           0        9.208208   -3.538406    1.166177
    107          1           0        9.317297    0.179894    0.412013
    108          1           0       10.255302   -0.884320    1.535493
    109          1           0       11.818331   -1.859787   -0.016168
    110          1           0       11.113467   -1.008500   -1.240929
    111          1           0       11.582392    1.443749   -0.091219
    112          1           0       12.248700    0.426929    1.269102
    113          1           0       13.365397    0.288195   -1.695962
    114          1           0       14.687041   -0.778794    1.067633
    115          1           0       14.171454   -1.632672   -0.223606
    116          1           0       15.605041   -0.624454   -0.422668
    117          1           0       13.459206    2.709018   -0.238502
    118          1           0       14.430702    1.917303    0.877105
    119          1           0       16.187378    1.450004   -0.574417
    120          1           0       15.501919    1.732247   -2.101520
    121          1           0       15.211888    4.388333   -1.062607
    122          1           0       16.140172    3.494762    0.232151
    123          1           0       17.867117    2.934120   -1.295699
    124          1           0       16.445926    4.652989   -3.182178
    125          1           0       18.036083    4.065013   -3.490045
    126          1           0       16.709760    3.178125   -3.323554
    127          1           0       18.323591    5.037192    0.079129
    128          1           0       18.724965    5.292315   -1.276472
    129          1           0       17.227374    5.983231   -0.990974
    130          1           0       -4.714492   -7.854657    0.099223
    131          1           0       -6.352853   -7.249360    0.568652
    132          1           0       -4.943468   -6.825810    1.516830
    133          8           0       -7.777449    6.840932   -0.360402
    134          1           0       -9.212973    6.310613   -1.894508
 ---------------------------------------------------------------------

 SCF Done:  E(RCAM-B3LYP) =  -3043.40721477     A.U. after   16 cycles

 Excitation energies and oscillator strengths:

 Excited State   1:      Singlet-A      2.0638 eV  600.77 nm  f=0.1804  <S**2>=0.000
     243 -> 246        0.25088
     244 -> 245        0.64698
 This state for optimization and/or second-order correction.
 Total Energy, E(TD-HF/TD-KS) =  -3043.33137276
 Copying the excited state density for this state as the 1-particle RhoCI density.

 The electronic state is 1-A.
 Alpha  occ. eigenvalues --  -46.82104 -19.23600 -19.22864 -19.19061 -19.18224
 Alpha  occ. eigenvalues --  -19.17547 -19.17008 -19.16512 -14.39124 -14.37104
 Alpha  occ. eigenvalues --  -14.36933 -14.36515 -10.37255 -10.35451 -10.32948
 Alpha  occ. eigenvalues --  -10.31181 -10.31018 -10.29646 -10.28280 -10.27910
 Alpha  occ. eigenvalues --  -10.27569 -10.27453 -10.27008 -10.26694 -10.26587
 Alpha  occ. eigenvalues --  -10.26249 -10.26189 -10.25983 -10.25751 -10.25631
 Alpha  occ. eigenvalues --  -10.25591 -10.25182 -10.25107 -10.24187 -10.24157
 Alpha  occ. eigenvalues --  -10.23906 -10.23674 -10.23566 -10.23554 -10.23475
 Alpha  occ. eigenvalues --  -10.23431 -10.23371 -10.23356 -10.23329 -10.23203
 Alpha  occ. eigenvalues --  -10.23101 -10.23096 -10.22673 -10.22638 -10.22475
 Alpha  occ. eigenvalues --  -10.21578 -10.21468 -10.21418 -10.21416 -10.21249
 Alpha  occ. eigenvalues --  -10.21150 -10.20798 -10.20702 -10.20659 -10.20645
 Alpha  occ. eigenvalues --  -10.20247 -10.19611 -10.19334 -10.18884 -10.17091
 Alpha  occ. eigenvalues --  -10.16656  -3.10468  -1.85437  -1.84914  -1.84872
 Alpha  occ. eigenvalues --   -1.12850  -1.11957  -1.07323  -1.07172  -1.04399
 Alpha  occ. eigenvalues --   -1.04023  -1.02598  -1.01817  -0.99958  -0.98898
 Alpha  occ. eigenvalues --   -0.98310  -0.89804  -0.87411  -0.86091  -0.85633
 Alpha  occ. eigenvalues --   -0.85102  -0.84549  -0.84058  -0.83856  -0.83360
 Alpha  occ. eigenvalues --   -0.82792  -0.82376  -0.81468  -0.80798  -0.80072
 Alpha  occ. eigenvalues --   -0.78904  -0.78137  -0.77811  -0.77457  -0.76783
 Alpha  occ. eigenvalues --   -0.75820  -0.75036  -0.74367  -0.74268  -0.73827
 Alpha  occ. eigenvalues --   -0.72516  -0.72017  -0.70990  -0.70586  -0.70299
 Alpha  occ. eigenvalues --   -0.69687  -0.68940  -0.67002  -0.66668  -0.65552
 Alpha  occ. eigenvalues --   -0.65472  -0.65117  -0.64361  -0.63198  -0.62612
 Alpha  occ. eigenvalues --   -0.61608  -0.61330  -0.60865  -0.59341  -0.59096
 Alpha  occ. eigenvalues --   -0.59048  -0.58644  -0.57494  -0.57434  -0.56528
 Alpha  occ. eigenvalues --   -0.56413  -0.56001  -0.55063  -0.54848  -0.54724
 Alpha  occ. eigenvalues --   -0.53726  -0.53252  -0.52776  -0.52509  -0.51625
 Alpha  occ. eigenvalues --   -0.51421  -0.51338  -0.51017  -0.50900  -0.50710
 Alpha  occ. eigenvalues --   -0.50558  -0.50177  -0.49782  -0.49459  -0.49268
 Alpha  occ. eigenvalues --   -0.48984  -0.48913  -0.48732  -0.48175  -0.48022
 Alpha  occ. eigenvalues --   -0.47971  -0.47744  -0.47634  -0.47312  -0.46952
 Alpha  occ. eigenvalues --   -0.46761  -0.46593  -0.46199  -0.46113  -0.46006
 Alpha  occ. eigenvalues --   -0.45744  -0.45318  -0.45163  -0.44953  -0.44796
 Alpha  occ. eigenvalues --   -0.44731  -0.44183  -0.44101  -0.44079  -0.44021
 Alpha  occ. eigenvalues --   -0.43586  -0.43293  -0.43133  -0.42919  -0.42887
 Alpha  occ. eigenvalues --   -0.42677  -0.42539  -0.42281  -0.41962  -0.41882
 Alpha  occ. eigenvalues --   -0.41749  -0.41682  -0.41402  -0.41335  -0.41017
 Alpha  occ. eigenvalues --   -0.40749  -0.40585  -0.40390  -0.40327  -0.40173
 Alpha  occ. eigenvalues --   -0.40034  -0.39969  -0.39835  -0.39716  -0.39420
 Alpha  occ. eigenvalues --   -0.39305  -0.39228  -0.39090  -0.38829  -0.38437
 Alpha  occ. eigenvalues --   -0.38326  -0.38181  -0.37421  -0.37398  -0.36966
 Alpha  occ. eigenvalues --   -0.36607  -0.36398  -0.36249  -0.35918  -0.35486
 Alpha  occ. eigenvalues --   -0.35288  -0.35105  -0.34755  -0.34533  -0.34288
 Alpha  occ. eigenvalues --   -0.34212  -0.33664  -0.33445  -0.32996  -0.32858
 Alpha  occ. eigenvalues --   -0.32632  -0.32411  -0.32039  -0.31858  -0.31683
 Alpha  occ. eigenvalues --   -0.31428  -0.31303  -0.30709  -0.30303  -0.30073
 Alpha  occ. eigenvalues --   -0.29283  -0.28368  -0.28167  -0.27841  -0.27276
 Alpha  occ. eigenvalues --   -0.26267  -0.26202  -0.23761  -0.22132
 Alpha virt. eigenvalues --   -0.09013  -0.07005  -0.01905  -0.00758  -0.00113
 Alpha virt. eigenvalues --    0.00802   0.02724   0.02984   0.04134   0.04345
 Alpha virt. eigenvalues --    0.04696   0.05556   0.07730   0.08286   0.08809

 Mulliken charges:
               1
     1  Mg   0.817648
     2  C    0.118868
     3  C   -0.187558
     4  C   -0.157079
     5  C   -0.130136
     6  N   -0.650469
     7  C    0.326402
     8  C   -0.165734
     9  C   -0.119277
    10  C    0.307622
    11  C   -0.307042
    12  C   -0.172938
    13  C   -0.252478
    14  C    0.600642
    15  O   -0.494964
    16  O   -0.451748
    17  N   -0.725087
    18  C    0.324419
    19  C    0.043272
    20  C   -0.013042
    21  C    0.336561
    22  C   -0.398300
    23  C    0.227415
    24  O   -0.430297
    25  N   -0.713471
    26  C    0.288240
    27  C   -0.025321
    28  C   -0.013489
    29  C    0.336448
    30  C    0.249080
    31  C   -0.231978
    32  C   -0.307863
    33  N   -0.723282
    34  C    0.299831
    35  C    0.000723
    36  C   -0.003881
    37  C    0.272941
    38  C   -0.386600
    39  C    0.386647
    40  O   -0.442867
    41  C   -0.328705
    42  C    0.630368
    43  O   -0.456806
    44  O   -0.466007
    45  C   -0.096809
    46  C   -0.007267
    47  C   -0.132015
    48  C    0.094008
    49  C   -0.358752
    50  C   -0.237045
    51  C   -0.180617
    52  C   -0.157218
    53  C   -0.045557
    54  C   -0.313733
    55  C   -0.147346
    56  C   -0.199862
    57  C   -0.165898
    58  C   -0.039799
    59  C   -0.305556
    60  C   -0.175753
    61  C   -0.196789
    62  C   -0.151759
    63  C   -0.078150
    64  C   -0.288708
    65  C   -0.264721
    66  H    0.091397
    67  H    0.150725
    68  H    0.093236
    69  H    0.136697
    70  H    0.099740
    71  H    0.123148
    72  H    0.125841
    73  H    0.065280
    74  H    0.085696
    75  H    0.124839
    76  H    0.143439
    77  H    0.140091
    78  H    0.129836
    79  H    0.153785
    80  H    0.111973
    81  H    0.048912
    82  H    0.117246
    83  H    0.118051
    84  H    0.115809
    85  H    0.106815
    86  H    0.086360
    87  H    0.137802
    88  H    0.135211
    89  H    0.126156
    90  H    0.171414
    91  H    0.113302
    92  H    0.138621
    93  H    0.071555
    94  H    0.148709
    95  H    0.109619
    96  H    0.103164
    97  H    0.103592
    98  H    0.093837
    99  H    0.111775
   100  H    0.085129
   101  H    0.095565
   102  H    0.103797
   103  H    0.064529
   104  H    0.112099
   105  H    0.108999
   106  H    0.091136
   107  H    0.065593
   108  H    0.097415
   109  H    0.078018
   110  H    0.089612
   111  H    0.060053
   112  H    0.088024
   113  H    0.073673
   114  H    0.060327
   115  H    0.118963
   116  H    0.108852
   117  H    0.097390
   118  H    0.078953
   119  H    0.098942
   120  H    0.092155
   121  H    0.052669
   122  H    0.098472
   123  H    0.051686
   124  H    0.086336
   125  H    0.102971
   126  H    0.107413
   127  H    0.098085
   128  H    0.092605
   129  H    0.096658
   130  H    0.142882
   131  H    0.137068
   132  H    0.142414
   133  O   -0.418592
   134  H    0.045072
 Sum of Mulliken charges =   0.00000

 Dipole moment (field-independent basis, Debye):
    X=              1.0756    Y=             -7.7860    Z=             -1.2042  Tot=              7.9517
 Quadrupole moment (field-independent basis, Debye-Ang):
   XX=           -362.5280   YY=           -436.6580   ZZ=           -396.0811
   XY=             10.9664   XZ=             26.6736   YZ=            -41.0952

 Normal termination of Gaussian 09 at Fri Oct  4 17:46:55 2019.
