 Gaussian 09, Revision D.01,
 Gaussian 09:  ES64L-G09RevD.01 24-Apr-2013

 ----------------------------------------------------------------------
 # td=(NStates=1) iop(3/107=0140000000,3/108=0140000000) iop(3/107=0140
 000000,3/108=0140000000) CAM-B3LYP/6-31G(d,p)
 ----------------------------------------------------------------------

 --
 TD
 --
 Symbolic Z-matrix:
 Charge =  0 Multiplicity = 1

                         Standard orientation:
 ---------------------------------------------------------------------
 Center     Atomic      Atomic             Coordinates (Angstroms)
 Number     Number       Type             X           Y           Z
 ---------------------------------------------------------------------
      1         12           0       -5.577465    1.233151    0.127376
      2          6           0       -4.979048   -2.113420   -0.371845
      3          6           0       -3.442304    1.180605    2.863494
      4          6           0       -6.094859    4.538829    0.666643
      5          6           0       -7.909464    1.192678   -2.358289
      6          7           0       -4.358859   -0.252726    1.033909
      7          6           0       -4.148384   -1.610088    0.593183
      8          6           0       -3.259070   -2.355068    1.487810
      9          6           0       -2.952646   -1.388647    2.586783
     10          6           0       -3.583986   -0.050430    2.199224
     11          6           0       -3.461350   -1.716315    4.028049
     12          6           0       -1.979098   -2.711708    0.723918
     13          6           0       -1.120010   -3.758623    1.453809
     14          6           0        0.213424   -3.972972    0.676023
     15          8           0        0.447301   -3.462290   -0.454676
     16          8           0        0.982250   -4.695064    1.423276
     17          7           0       -5.022162    2.568939    1.572129
     18          6           0       -4.072746    2.378354    2.583253
     19          6           0       -3.654319    3.716275    3.164044
     20          6           0       -4.423996    4.685621    2.464272
     21          6           0       -5.242939    3.966145    1.524671
     22          6           0       -2.635161    3.931770    4.235252
     23          6           0       -4.455112    6.089880    2.783894
     24          8           0       -3.816762    6.628047    3.721861
     25          7           0       -6.795500    2.683280   -0.687334
     26          6           0       -6.907983    3.932012   -0.310578
     27          6           0       -7.857927    4.613089   -1.180827
     28          6           0       -8.446424    3.763691   -2.071425
     29          6           0       -7.725297    2.422532   -1.737935
     30          6           0       -8.303818    5.957547   -1.196230
     31          6           0       -9.567314    3.780834   -3.148832
     32          6           0       -8.869126    3.844022   -4.583342
     33          7           0       -6.353423   -0.136627   -1.115537
     34          6           0       -7.248370   -0.045203   -2.100596
     35          6           0       -7.520099   -1.301643   -2.625805
     36          6           0       -6.618303   -2.171857   -2.043573
     37          6           0       -5.826005   -1.407898   -1.210898
     38          6           0       -8.616784   -1.609098   -3.759508
     39          6           0       -6.305645   -3.584738   -2.036498
     40          8           0       -6.780740   -4.538430   -2.566841
     41          6           0       -5.072320   -3.569447   -0.929269
     42          6           0       -5.284644   -4.650115    0.138977
     43          8           0       -5.752297   -4.474027    1.184137
     44          8           0       -4.853857   -5.894545   -0.369731
     45          6           0       -5.306358   -6.979658    0.459447
     46          6           0        2.346614   -4.891054    0.699053
     47          6           0        3.400717   -3.871884    1.065150
     48          6           0        4.014365   -3.114211    0.199581
     49          6           0        3.618337   -2.938763   -1.176482
     50          6           0        5.084397   -2.326983    0.732058
     51          6           0        6.431859   -2.755516    0.023522
     52          6           0        7.585807   -1.868151    0.512041
     53          6           0        8.990690   -2.138549   -0.100240
     54          6           0        9.608267   -3.474503    0.156561
     55          6           0        9.977282   -0.824312    0.360373
     56          6           0       11.296470   -0.884393   -0.294287
     57          6           0       12.193242    0.260116    0.069629
     58          6           0       13.625762    0.514292   -0.706203
     59          6           0       14.458920   -0.753016   -0.294969
     60          6           0       14.268222    1.766681   -0.155915
     61          6           0       15.497548    2.040639   -0.947722
     62          6           0       15.994598    3.477821   -0.676587
     63          6           0       17.271898    3.898889   -1.355290
     64          6           0       17.081415    3.928484   -2.924445
     65          6           0       17.807587    5.203432   -0.811086
     66          1           0       -2.707288    1.202085    3.652613
     67          1           0       -6.147728    5.653030    0.744111
     68          1           0       -8.500901    1.144256   -3.179551
     69          1           0       -3.676665   -3.217306    1.819364
     70          1           0       -1.831300   -1.309622    2.747955
     71          1           0       -2.967987   -2.708602    4.440558
     72          1           0       -3.242255   -0.981351    4.646060
     73          1           0       -4.537288   -2.068893    3.958722
     74          1           0       -2.276056   -3.033054   -0.196360
     75          1           0       -1.306899   -1.761312    0.803391
     76          1           0       -0.743916   -3.315226    2.290830
     77          1           0       -1.603011   -4.743594    1.177090
     78          1           0       -1.592966    4.020437    3.698056
     79          1           0       -2.736857    4.995431    4.553647
     80          1           0       -2.734036    3.041529    5.002804
     81          1           0       -5.050918    6.638805    2.154617
     82          1           0       -9.950008    2.669983   -3.085004
     83          1           0      -10.225292    4.518913   -2.972972
     84          1           0       -9.555862    3.879900   -5.421465
     85          1           0       -8.243436    4.760060   -4.506503
     86          1           0       -8.232168    3.040571   -4.701415
     87          1           0       -8.503800   -0.996260   -4.625458
     88          1           0       -8.281365   -2.741354   -3.882038
     89          1           0       -9.772419   -1.478481   -3.375868
     90          1           0       -4.213507   -3.901942   -1.531005
     91          1           0        2.634861   -5.841553    1.120233
     92          1           0        2.210386   -4.804681   -0.404972
     93          1           0        3.653768   -3.953625    2.067769
     94          1           0        2.527432   -2.972323   -1.569727
     95          1           0        3.848797   -1.855727   -1.372107
     96          1           0        4.236749   -3.560220   -1.996558
     97          1           0        4.833373   -1.182328    0.477637
     98          1           0        5.172846   -2.366068    1.718045
     99          1           0        6.792595   -3.680656    0.031973
    100          1           0        6.288213   -2.626430   -1.080528
    101          1           0        7.155682   -0.905778    0.320093
    102          1           0        7.602165   -2.044014    1.560281
    103          1           0        8.595169   -1.867541   -1.154149
    104          1           0        8.827973   -4.207161   -0.147533
    105          1           0       10.558786   -3.557679   -0.250547
    106          1           0        9.643350   -3.866643    1.285143
    107          1           0        9.238489   -0.076064    0.010502
    108          1           0        9.963246   -0.860331    1.621888
    109          1           0       11.864981   -1.795471   -0.127119
    110          1           0       11.166487   -0.876526   -1.446248
    111          1           0       11.642869    1.170127    0.120710
    112          1           0       12.485273    0.268949    1.173611
    113          1           0       13.604467    0.616419   -1.901702
    114          1           0       14.741969   -0.935132    0.786555
    115          1           0       13.951084   -1.568891   -0.761996
    116          1           0       15.324280   -0.576964   -0.898629
    117          1           0       13.374271    2.369076   -0.342962
    118          1           0       14.581037    1.709647    0.969936
    119          1           0       16.359045    1.462030   -0.599603
    120          1           0       15.244360    1.811638   -2.085361
    121          1           0       15.117474    4.381873   -0.726160
    122          1           0       16.159435    3.463405    0.429629
    123          1           0       17.824103    2.891678   -1.241261
    124          1           0       16.285614    4.745155   -3.213195
    125          1           0       18.004221    4.213581   -3.361978
    126          1           0       16.854383    2.835207   -3.359052
    127          1           0       18.195967    5.111439    0.341604
    128          1           0       18.685723    5.514801   -1.262742
    129          1           0       17.053668    6.008922   -0.888479
    130          1           0       -5.012836   -8.072712   -0.085243
    131          1           0       -6.465305   -6.941062    0.473233
    132          1           0       -4.751869   -6.867288    1.317681
    133          8           0       -7.874916    6.853665   -0.313745
    134          1           0       -8.868399    6.328360   -1.958017
 ---------------------------------------------------------------------

 SCF Done:  E(RCAM-B3LYP) =  -3043.46880148     A.U. after   16 cycles

 Excitation energies and oscillator strengths:

 Excited State   1:      Singlet-A      2.0693 eV  599.16 nm  f=0.1965  <S**2>=0.000
     243 -> 246        0.25093
     244 -> 245        0.65083
 This state for optimization and/or second-order correction.
 Total Energy, E(TD-HF/TD-KS) =  -3043.39275564
 Copying the excited state density for this state as the 1-particle RhoCI density.

 The electronic state is 1-A.
 Alpha  occ. eigenvalues --  -46.81018 -19.23574 -19.21245 -19.18156 -19.18006
 Alpha  occ. eigenvalues --  -19.17110 -19.16110 -19.16056 -14.39112 -14.37786
 Alpha  occ. eigenvalues --  -14.37118 -14.35799 -10.34762 -10.34366 -10.31716
 Alpha  occ. eigenvalues --  -10.29761 -10.29563 -10.28467 -10.27964 -10.27702
 Alpha  occ. eigenvalues --  -10.27634 -10.27200 -10.27176 -10.26807 -10.26453
 Alpha  occ. eigenvalues --  -10.26400 -10.26163 -10.25427 -10.24722 -10.24711
 Alpha  occ. eigenvalues --  -10.24577 -10.24511 -10.24315 -10.24171 -10.23838
 Alpha  occ. eigenvalues --  -10.23686 -10.23667 -10.23517 -10.23302 -10.23217
 Alpha  occ. eigenvalues --  -10.23018 -10.22881 -10.22783 -10.22776 -10.22680
 Alpha  occ. eigenvalues --  -10.22575 -10.22521 -10.22411 -10.22261 -10.22226
 Alpha  occ. eigenvalues --  -10.22178 -10.22063 -10.21994 -10.21577 -10.21514
 Alpha  occ. eigenvalues --  -10.21421 -10.21378 -10.21285 -10.21269 -10.21088
 Alpha  occ. eigenvalues --  -10.20692 -10.20690 -10.20648 -10.20409 -10.20078
 Alpha  occ. eigenvalues --  -10.19507  -3.09651  -1.84587  -1.84116  -1.84071
 Alpha  occ. eigenvalues --   -1.13904  -1.13554  -1.08864  -1.05870  -1.04822
 Alpha  occ. eigenvalues --   -1.02205  -1.01209  -1.00791  -0.99727  -0.98213
 Alpha  occ. eigenvalues --   -0.97258  -0.88412  -0.88343  -0.86349  -0.85882
 Alpha  occ. eigenvalues --   -0.85416  -0.84562  -0.84268  -0.83542  -0.83156
 Alpha  occ. eigenvalues --   -0.82890  -0.82454  -0.81480  -0.80743  -0.80104
 Alpha  occ. eigenvalues --   -0.79600  -0.78656  -0.77755  -0.76567  -0.76455
 Alpha  occ. eigenvalues --   -0.75543  -0.75147  -0.74182  -0.72479  -0.72095
 Alpha  occ. eigenvalues --   -0.70957  -0.70643  -0.70232  -0.69931  -0.69666
 Alpha  occ. eigenvalues --   -0.68989  -0.68773  -0.67955  -0.67717  -0.67563
 Alpha  occ. eigenvalues --   -0.66336  -0.64919  -0.64589  -0.62990  -0.62810
 Alpha  occ. eigenvalues --   -0.61816  -0.60601  -0.60359  -0.59084  -0.58742
 Alpha  occ. eigenvalues --   -0.58052  -0.57653  -0.57604  -0.57319  -0.56829
 Alpha  occ. eigenvalues --   -0.56389  -0.56289  -0.56117  -0.55139  -0.55002
 Alpha  occ. eigenvalues --   -0.54452  -0.53599  -0.53033  -0.52964  -0.52567
 Alpha  occ. eigenvalues --   -0.52018  -0.51847  -0.51411  -0.50923  -0.50556
 Alpha  occ. eigenvalues --   -0.50429  -0.50017  -0.49583  -0.49361  -0.49064
 Alpha  occ. eigenvalues --   -0.48788  -0.48621  -0.48499  -0.48357  -0.47876
 Alpha  occ. eigenvalues --   -0.47831  -0.47294  -0.47214  -0.47080  -0.46974
 Alpha  occ. eigenvalues --   -0.46664  -0.46549  -0.46490  -0.46182  -0.45687
 Alpha  occ. eigenvalues --   -0.45455  -0.45408  -0.45281  -0.44733  -0.44564
 Alpha  occ. eigenvalues --   -0.44468  -0.44189  -0.44099  -0.43822  -0.43689
 Alpha  occ. eigenvalues --   -0.43561  -0.43458  -0.43227  -0.42993  -0.42957
 Alpha  occ. eigenvalues --   -0.42538  -0.42444  -0.42283  -0.42098  -0.41957
 Alpha  occ. eigenvalues --   -0.41667  -0.41410  -0.41168  -0.41159  -0.40972
 Alpha  occ. eigenvalues --   -0.40814  -0.40710  -0.40597  -0.40548  -0.39885
 Alpha  occ. eigenvalues --   -0.39848  -0.39588  -0.39458  -0.39046  -0.38760
 Alpha  occ. eigenvalues --   -0.38570  -0.38543  -0.38452  -0.38334  -0.38198
 Alpha  occ. eigenvalues --   -0.37988  -0.37916  -0.37656  -0.37467  -0.37319
 Alpha  occ. eigenvalues --   -0.37072  -0.36824  -0.36703  -0.36285  -0.36151
 Alpha  occ. eigenvalues --   -0.35718  -0.35543  -0.35307  -0.35204  -0.34867
 Alpha  occ. eigenvalues --   -0.34620  -0.34176  -0.33422  -0.33084  -0.33019
 Alpha  occ. eigenvalues --   -0.32618  -0.32387  -0.32111  -0.31771  -0.31654
 Alpha  occ. eigenvalues --   -0.31315  -0.30800  -0.29948  -0.29500  -0.29066
 Alpha  occ. eigenvalues --   -0.28972  -0.28164  -0.27938  -0.27924  -0.27671
 Alpha  occ. eigenvalues --   -0.27642  -0.27328  -0.23162  -0.21688
 Alpha virt. eigenvalues --   -0.08599  -0.06664  -0.02088  -0.01890   0.00268
 Alpha virt. eigenvalues --    0.02821   0.03269   0.03788   0.04245   0.04772
 Alpha virt. eigenvalues --    0.05124   0.05842   0.07787   0.08459   0.09226

 Mulliken charges:
               1
     1  Mg   0.826807
     2  C    0.093423
     3  C   -0.200220
     4  C   -0.209926
     5  C   -0.155488
     6  N   -0.622571
     7  C    0.256839
     8  C   -0.119089
     9  C   -0.161250
    10  C    0.355621
    11  C   -0.305282
    12  C   -0.165498
    13  C   -0.253409
    14  C    0.585627
    15  O   -0.508767
    16  O   -0.445503
    17  N   -0.711703
    18  C    0.322030
    19  C    0.046399
    20  C   -0.007587
    21  C    0.341282
    22  C   -0.394493
    23  C    0.264585
    24  O   -0.448724
    25  N   -0.688596
    26  C    0.374424
    27  C   -0.039963
    28  C    0.056326
    29  C    0.248725
    30  C    0.206906
    31  C   -0.230384
    32  C   -0.317579
    33  N   -0.700003
    34  C    0.291754
    35  C   -0.002707
    36  C    0.027936
    37  C    0.230606
    38  C   -0.365994
    39  C    0.368019
    40  O   -0.432048
    41  C   -0.347398
    42  C    0.614953
    43  O   -0.423653
    44  O   -0.483091
    45  C   -0.070411
    46  C   -0.032271
    47  C   -0.137471
    48  C    0.210529
    49  C   -0.401687
    50  C   -0.226245
    51  C   -0.194820
    52  C   -0.185758
    53  C   -0.066095
    54  C   -0.310383
    55  C   -0.155750
    56  C   -0.165381
    57  C   -0.180029
    58  C   -0.085755
    59  C   -0.306546
    60  C   -0.132317
    61  C   -0.182813
    62  C   -0.140018
    63  C   -0.042634
    64  C   -0.300409
    65  C   -0.305554
    66  H    0.083090
    67  H    0.133236
    68  H    0.071443
    69  H    0.124735
    70  H    0.096676
    71  H    0.089684
    72  H    0.122163
    73  H    0.126032
    74  H    0.117555
    75  H    0.097997
    76  H    0.133542
    77  H    0.141153
    78  H    0.127693
    79  H    0.178652
    80  H    0.113877
    81  H    0.094663
    82  H    0.116625
    83  H    0.123109
    84  H    0.119589
    85  H    0.114506
    86  H    0.128210
    87  H    0.130813
    88  H    0.139189
    89  H    0.106320
    90  H    0.153541
    91  H    0.119177
    92  H    0.149905
    93  H    0.079968
    94  H    0.161804
    95  H    0.105217
    96  H    0.103850
    97  H    0.081112
    98  H    0.108977
    99  H    0.105180
   100  H    0.086219
   101  H    0.092326
   102  H    0.088166
   103  H    0.079073
   104  H    0.099941
   105  H    0.121405
   106  H    0.085622
   107  H    0.096930
   108  H    0.060198
   109  H    0.101054
   110  H    0.083896
   111  H    0.081662
   112  H    0.077750
   113  H    0.069557
   114  H    0.100249
   115  H    0.100902
   116  H    0.097616
   117  H    0.100014
   118  H    0.081163
   119  H    0.105522
   120  H    0.075710
   121  H    0.042377
   122  H    0.082400
   123  H    0.072143
   124  H    0.086852
   125  H    0.107501
   126  H    0.086306
   127  H    0.077688
   128  H    0.112820
   129  H    0.110435
   130  H    0.096340
   131  H    0.128613
   132  H    0.134670
   133  O   -0.473849
   134  H    0.091926
 Sum of Mulliken charges =   0.00000

 Dipole moment (field-independent basis, Debye):
    X=              3.6362    Y=             -3.9892    Z=             -1.5301  Tot=              5.6105
 Quadrupole moment (field-independent basis, Debye-Ang):
   XX=           -373.2319   YY=           -442.9099   ZZ=           -392.9422
   XY=             -2.0156   XZ=             29.7920   YZ=            -39.5595

 Normal termination of Gaussian 09 at Sat Oct  5 10:16:35 2019.
