 Gaussian 09, Revision D.01,
 Gaussian 09:  ES64L-G09RevD.01 24-Apr-2013

 ----------------------------------------------------------------------
 # td=(NStates=1) iop(3/107=0140000000,3/108=0140000000) iop(3/107=0140
 000000,3/108=0140000000) CAM-B3LYP/6-31G(d,p)
 ----------------------------------------------------------------------

 --
 TD
 --
 Symbolic Z-matrix:
 Charge =  0 Multiplicity = 1

                         Standard orientation:
 ---------------------------------------------------------------------
 Center     Atomic      Atomic             Coordinates (Angstroms)
 Number     Number       Type             X           Y           Z
 ---------------------------------------------------------------------
      1         12           0       -5.656881    1.150331    0.288178
      2          6           0       -4.909675   -2.190470   -0.348522
      3          6           0       -3.411823    1.189733    2.831269
      4          6           0       -6.346416    4.623635    0.739871
      5          6           0       -7.992265    1.106482   -2.415417
      6          7           0       -4.402879   -0.339014    1.052556
      7          6           0       -4.154723   -1.590935    0.602258
      8          6           0       -3.166646   -2.336938    1.449981
      9          6           0       -2.838001   -1.333790    2.593416
     10          6           0       -3.619208   -0.093112    2.083303
     11          6           0       -3.474445   -1.841931    3.957584
     12          6           0       -1.872826   -2.608886    0.610089
     13          6           0       -0.912031   -3.569802    1.451135
     14          6           0        0.352777   -3.998080    0.785794
     15          8           0        0.560859   -3.619476   -0.343943
     16          8           0        1.151749   -4.703061    1.583776
     17          7           0       -5.082088    2.577959    1.508718
     18          6           0       -3.982441    2.426526    2.403909
     19          6           0       -3.720197    3.609698    3.176987
     20          6           0       -4.668246    4.646126    2.498653
     21          6           0       -5.351114    3.939104    1.418354
     22          6           0       -2.835018    3.809735    4.356086
     23          6           0       -4.644005    6.026705    2.801692
     24          8           0       -4.232727    6.603101    3.844719
     25          7           0       -6.997234    2.587500   -0.632997
     26          6           0       -7.096642    3.888097   -0.260552
     27          6           0       -8.165538    4.550821   -1.134363
     28          6           0       -8.584802    3.561357   -1.991772
     29          6           0       -7.788765    2.382947   -1.724282
     30          6           0       -8.607361    5.954848   -1.115244
     31          6           0       -9.531734    3.719733   -3.194186
     32          6           0       -8.981999    4.076111   -4.589900
     33          7           0       -6.335671   -0.190725   -1.064510
     34          6           0       -7.391950   -0.024440   -2.068598
     35          6           0       -7.481158   -1.286198   -2.793415
     36          6           0       -6.592607   -2.182472   -2.172264
     37          6           0       -5.901965   -1.463514   -1.159201
     38          6           0       -8.441333   -1.721487   -3.824733
     39          6           0       -6.135436   -3.599731   -2.117553
     40          8           0       -6.472751   -4.476377   -2.773137
     41          6           0       -4.866986   -3.577242   -1.026072
     42          6           0       -5.169488   -4.655221   -0.011554
     43          8           0       -5.616842   -4.436834    1.143675
     44          8           0       -5.019347   -5.871126   -0.565029
     45          6           0       -5.332775   -6.920928    0.427750
     46          6           0        2.408567   -5.076260    0.785360
     47          6           0        3.442882   -3.999729    1.066790
     48          6           0        4.118370   -3.217597    0.201393
     49          6           0        3.798644   -3.058027   -1.288354
     50          6           0        5.166983   -2.358806    0.667217
     51          6           0        6.605724   -2.765906    0.177889
     52          6           0        7.706420   -1.879458    0.673113
     53          6           0        9.005344   -2.105824   -0.025083
     54          6           0        9.632414   -3.446085    0.162058
     55          6           0       10.000339   -0.892204    0.497049
     56          6           0       11.447302   -0.737916   -0.262716
     57          6           0       12.310512    0.287143    0.266483
     58          6           0       13.580112    0.580404   -0.587383
     59          6           0       14.507352   -0.633755   -0.451964
     60          6           0       14.194994    1.875921   -0.204802
     61          6           0       15.391058    2.226858   -1.060630
     62          6           0       16.008404    3.624992   -0.744689
     63          6           0       17.269350    4.056089   -1.450893
     64          6           0       17.097800    4.165517   -2.947845
     65          6           0       17.972517    5.281480   -0.839960
     66          1           0       -2.638981    1.227483    3.581064
     67          1           0       -6.584962    5.510318    0.965623
     68          1           0       -8.898002    1.194215   -3.124421
     69          1           0       -3.716398   -3.180753    1.788264
     70          1           0       -1.747176   -0.974857    2.786311
     71          1           0       -2.993957   -2.782926    4.246090
     72          1           0       -3.284961   -1.147101    4.761457
     73          1           0       -4.447666   -2.168646    3.787695
     74          1           0       -2.028442   -3.093837   -0.356065
     75          1           0       -1.247122   -1.642799    0.299453
     76          1           0       -0.567863   -2.896096    2.505198
     77          1           0       -1.432879   -4.431483    1.927089
     78          1           0       -1.679350    3.816271    4.125316
     79          1           0       -2.959399    4.799783    4.889682
     80          1           0       -3.099241    3.133280    5.072558
     81          1           0       -5.202525    6.656261    2.046487
     82          1           0      -10.152117    2.682390   -3.073046
     83          1           0      -10.248684    4.554165   -2.750012
     84          1           0       -9.858119    4.029668   -5.302531
     85          1           0       -8.573094    4.991191   -4.611875
     86          1           0       -8.253609    3.174231   -4.681232
     87          1           0       -8.122489   -1.235887   -4.875711
     88          1           0       -8.512273   -2.838537   -3.825498
     89          1           0       -9.417625   -1.513062   -3.590171
     90          1           0       -3.989643   -3.942661   -1.681036
     91          1           0        2.812138   -6.190701    0.863860
     92          1           0        2.186072   -4.951184   -0.195726
     93          1           0        3.786900   -3.967355    2.136956
     94          1           0        2.755075   -3.351665   -1.618965
     95          1           0        4.135082   -2.095171   -1.412956
     96          1           0        4.384830   -3.629480   -1.992792
     97          1           0        5.054270   -1.279744    0.169947
     98          1           0        5.198577   -2.344617    1.876472
     99          1           0        6.890603   -3.811903    0.338804
    100          1           0        6.863983   -2.493733   -0.860081
    101          1           0        7.442878   -0.717652    0.729428
    102          1           0        7.887468   -2.076211    1.758316
    103          1           0        8.873843   -1.716221   -1.111041
    104          1           0        9.054000   -4.385989   -0.234825
    105          1           0       10.754943   -3.607476   -0.165072
    106          1           0        9.633140   -3.549833    1.120078
    107          1           0        9.544822    0.176276    0.540844
    108          1           0       10.379387   -1.214852    1.518950
    109          1           0       12.048891   -1.634686   -0.099785
    110          1           0       11.186925   -0.675054   -1.232028
    111          1           0       11.877624    1.501589    0.116822
    112          1           0       12.582072    0.184074    1.450442
    113          1           0       13.202370    0.569990   -1.710801
    114          1           0       14.825216   -0.773060    0.598329
    115          1           0       13.924948   -1.480357   -0.665247
    116          1           0       15.329501   -0.582664   -1.129895
    117          1           0       13.550078    2.735611   -0.197744
    118          1           0       14.547666    1.646885    0.822430
    119          1           0       16.249318    1.537071   -0.945075
    120          1           0       15.268521    2.251199   -2.112864
    121          1           0       15.199034    4.419015   -1.122889
    122          1           0       16.105791    3.686579    0.283619
    123          1           0       17.918535    3.129616   -1.388280
    124          1           0       16.203332    4.835733   -3.164240
    125          1           0       17.913876    4.287013   -3.557324
    126          1           0       16.745207    3.149909   -3.431781
    127          1           0       18.256491    5.026461    0.249322
    128          1           0       19.032825    5.521521   -1.239788
    129          1           0       17.414645    6.074710   -0.937473
    130          1           0       -5.080892   -7.843020    0.062646
    131          1           0       -6.396327   -6.980205    0.528665
    132          1           0       -4.883704   -6.685930    1.482382
    133          8           0       -8.165910    6.801602   -0.376692
    134          1           0       -9.325430    6.088360   -1.885008
 ---------------------------------------------------------------------

 SCF Done:  E(RCAM-B3LYP) =  -3043.48860022     A.U. after   16 cycles

 Excitation energies and oscillator strengths:

 Excited State   1:      Singlet-A      1.9236 eV  644.53 nm  f=0.1734  <S**2>=0.000
     243 -> 246       -0.22922
     244 -> 245        0.65740
 This state for optimization and/or second-order correction.
 Total Energy, E(TD-HF/TD-KS) =  -3043.41790750
 Copying the excited state density for this state as the 1-particle RhoCI density.

 The electronic state is 1-A.
 Alpha  occ. eigenvalues --  -46.81100 -19.24031 -19.23361 -19.18906 -19.17349
 Alpha  occ. eigenvalues --  -19.16871 -19.16853 -19.15438 -14.39390 -14.37069
 Alpha  occ. eigenvalues --  -14.37007 -14.36906 -10.35567 -10.34742 -10.32469
 Alpha  occ. eigenvalues --  -10.29531 -10.28853 -10.28627 -10.28196 -10.27476
 Alpha  occ. eigenvalues --  -10.27207 -10.27122 -10.26580 -10.26530 -10.26338
 Alpha  occ. eigenvalues --  -10.26324 -10.26232 -10.25928 -10.25624 -10.25500
 Alpha  occ. eigenvalues --  -10.25445 -10.25396 -10.25239 -10.25236 -10.24574
 Alpha  occ. eigenvalues --  -10.24391 -10.23847 -10.23844 -10.23834 -10.23749
 Alpha  occ. eigenvalues --  -10.23427 -10.23215 -10.23070 -10.23042 -10.22869
 Alpha  occ. eigenvalues --  -10.22852 -10.22613 -10.22588 -10.22309 -10.22146
 Alpha  occ. eigenvalues --  -10.22035 -10.21941 -10.21881 -10.21775 -10.21677
 Alpha  occ. eigenvalues --  -10.21618 -10.21521 -10.21214 -10.20522 -10.20450
 Alpha  occ. eigenvalues --  -10.20365 -10.20198 -10.20167 -10.20074 -10.20040
 Alpha  occ. eigenvalues --  -10.19272  -3.09761  -1.84695  -1.84244  -1.84166
 Alpha  occ. eigenvalues --   -1.13515  -1.13491  -1.12369  -1.06963  -1.04947
 Alpha  occ. eigenvalues --   -1.03479  -1.02747  -1.01940  -0.99258  -0.98146
 Alpha  occ. eigenvalues --   -0.97078  -0.87554  -0.86843  -0.85964  -0.85178
 Alpha  occ. eigenvalues --   -0.84853  -0.84742  -0.83813  -0.83784  -0.83718
 Alpha  occ. eigenvalues --   -0.82920  -0.81636  -0.80966  -0.80446  -0.79899
 Alpha  occ. eigenvalues --   -0.78504  -0.78226  -0.77559  -0.77295  -0.76587
 Alpha  occ. eigenvalues --   -0.75755  -0.75082  -0.74164  -0.72967  -0.72506
 Alpha  occ. eigenvalues --   -0.72028  -0.71469  -0.71052  -0.70179  -0.69597
 Alpha  occ. eigenvalues --   -0.68996  -0.68412  -0.66983  -0.66573  -0.66048
 Alpha  occ. eigenvalues --   -0.65672  -0.64933  -0.63571  -0.62712  -0.62316
 Alpha  occ. eigenvalues --   -0.61564  -0.60729  -0.59871  -0.59064  -0.59025
 Alpha  occ. eigenvalues --   -0.58763  -0.58274  -0.56951  -0.56893  -0.56557
 Alpha  occ. eigenvalues --   -0.55958  -0.55473  -0.55221  -0.54611  -0.54131
 Alpha  occ. eigenvalues --   -0.53435  -0.53216  -0.52354  -0.52236  -0.51686
 Alpha  occ. eigenvalues --   -0.51661  -0.51194  -0.51146  -0.50931  -0.50887
 Alpha  occ. eigenvalues --   -0.50307  -0.50229  -0.50116  -0.50028  -0.49562
 Alpha  occ. eigenvalues --   -0.49059  -0.48934  -0.48485  -0.48310  -0.48035
 Alpha  occ. eigenvalues --   -0.47860  -0.47697  -0.47385  -0.47228  -0.46842
 Alpha  occ. eigenvalues --   -0.46798  -0.46421  -0.46285  -0.46038  -0.45990
 Alpha  occ. eigenvalues --   -0.45561  -0.45328  -0.44972  -0.44779  -0.44539
 Alpha  occ. eigenvalues --   -0.44492  -0.44199  -0.44121  -0.43918  -0.43835
 Alpha  occ. eigenvalues --   -0.43701  -0.43569  -0.43444  -0.43221  -0.43192
 Alpha  occ. eigenvalues --   -0.42888  -0.42644  -0.42327  -0.42220  -0.42111
 Alpha  occ. eigenvalues --   -0.41815  -0.41689  -0.41396  -0.41169  -0.41062
 Alpha  occ. eigenvalues --   -0.40909  -0.40846  -0.40606  -0.40480  -0.40211
 Alpha  occ. eigenvalues --   -0.40140  -0.39777  -0.39645  -0.39599  -0.39480
 Alpha  occ. eigenvalues --   -0.39298  -0.38812  -0.38748  -0.38522  -0.38228
 Alpha  occ. eigenvalues --   -0.38145  -0.37717  -0.37245  -0.37138  -0.36804
 Alpha  occ. eigenvalues --   -0.36611  -0.36567  -0.36381  -0.36292  -0.35965
 Alpha  occ. eigenvalues --   -0.35694  -0.35182  -0.34910  -0.34820  -0.34267
 Alpha  occ. eigenvalues --   -0.34164  -0.33961  -0.33852  -0.33724  -0.33593
 Alpha  occ. eigenvalues --   -0.33553  -0.32306  -0.31999  -0.31870  -0.31809
 Alpha  occ. eigenvalues --   -0.31385  -0.30978  -0.30411  -0.30213  -0.29391
 Alpha  occ. eigenvalues --   -0.28510  -0.28317  -0.27917  -0.27565  -0.27126
 Alpha  occ. eigenvalues --   -0.26437  -0.26214  -0.23478  -0.21165
 Alpha virt. eigenvalues --   -0.08741  -0.06633  -0.01490  -0.00541   0.00876
 Alpha virt. eigenvalues --    0.02477   0.02964   0.03666   0.03908   0.04445
 Alpha virt. eigenvalues --    0.04626   0.05768   0.07857   0.08169   0.09250

 Mulliken charges:
               1
     1  Mg   0.828147
     2  C    0.115235
     3  C   -0.192204
     4  C   -0.078010
     5  C   -0.155489
     6  N   -0.612959
     7  C    0.287678
     8  C   -0.156620
     9  C   -0.150806
    10  C    0.332068
    11  C   -0.316954
    12  C   -0.168763
    13  C   -0.263586
    14  C    0.632929
    15  O   -0.475176
    16  O   -0.463169
    17  N   -0.701644
    18  C    0.296100
    19  C    0.055838
    20  C   -0.041666
    21  C    0.322104
    22  C   -0.402131
    23  C    0.213823
    24  O   -0.450196
    25  N   -0.661879
    26  C    0.263840
    27  C   -0.039469
    28  C   -0.001028
    29  C    0.272952
    30  C    0.266164
    31  C   -0.243509
    32  C   -0.281433
    33  N   -0.732436
    34  C    0.286316
    35  C    0.003098
    36  C    0.015246
    37  C    0.284535
    38  C   -0.384709
    39  C    0.370577
    40  O   -0.382597
    41  C   -0.365994
    42  C    0.643739
    43  O   -0.505000
    44  O   -0.445201
    45  C   -0.096889
    46  C   -0.031776
    47  C   -0.151847
    48  C    0.193529
    49  C   -0.376877
    50  C   -0.249682
    51  C   -0.165815
    52  C   -0.166030
    53  C   -0.061290
    54  C   -0.306852
    55  C   -0.195557
    56  C   -0.173694
    57  C   -0.139967
    58  C   -0.054763
    59  C   -0.312591
    60  C   -0.148121
    61  C   -0.188005
    62  C   -0.159758
    63  C   -0.051426
    64  C   -0.304772
    65  C   -0.301168
    66  H    0.094195
    67  H    0.095491
    68  H    0.102564
    69  H    0.141596
    70  H    0.105635
    71  H    0.110060
    72  H    0.116205
    73  H    0.137818
    74  H    0.121671
    75  H    0.112215
    76  H    0.092087
    77  H    0.128922
    78  H    0.116031
    79  H    0.165426
    80  H    0.137197
    81  H    0.069805
    82  H    0.088710
    83  H    0.090288
    84  H    0.116769
    85  H    0.134660
    86  H    0.105198
    87  H    0.115995
    88  H    0.143168
    89  H    0.137231
    90  H    0.157784
    91  H    0.119492
    92  H    0.150686
    93  H    0.075508
    94  H    0.145137
    95  H    0.111558
    96  H    0.119951
    97  H    0.089348
    98  H    0.086529
    99  H    0.101207
   100  H    0.097134
   101  H    0.078940
   102  H    0.079137
   103  H    0.073980
   104  H    0.092775
   105  H    0.096857
   106  H    0.126977
   107  H    0.090293
   108  H    0.081132
   109  H    0.095453
   110  H    0.105505
   111  H    0.030361
   112  H    0.067217
   113  H    0.063739
   114  H    0.092765
   115  H    0.103887
   116  H    0.106610
   117  H    0.098195
   118  H    0.088066
   119  H    0.086882
   120  H    0.099819
   121  H    0.053444
   122  H    0.093725
   123  H    0.073021
   124  H    0.088798
   125  H    0.112524
   126  H    0.075869
   127  H    0.089788
   128  H    0.090174
   129  H    0.119463
   130  H    0.130640
   131  H    0.140845
   132  H    0.131339
   133  O   -0.426433
   134  H    0.060535
 Sum of Mulliken charges =   0.00000

 Dipole moment (field-independent basis, Debye):
    X=              2.9283    Y=             -7.8094    Z=             -2.3329  Tot=              8.6605
 Quadrupole moment (field-independent basis, Debye-Ang):
   XX=           -371.9179   YY=           -438.3168   ZZ=           -396.3753
   XY=             19.2474   XZ=             29.1402   YZ=            -37.0566

 Normal termination of Gaussian 09 at Fri Oct  4 21:13:27 2019.
