 Gaussian 09, Revision D.01,
 Gaussian 09:  ES64L-G09RevD.01 24-Apr-2013

 ----------------------------------------------------------------------
 # td=(NStates=1) iop(3/107=0140000000,3/108=0140000000) iop(3/107=0140
 000000,3/108=0140000000) CAM-B3LYP/6-31G(d,p)
 ----------------------------------------------------------------------

 --
 TD
 --
 Symbolic Z-matrix:
 Charge =  0 Multiplicity = 1

                         Standard orientation:
 ---------------------------------------------------------------------
 Center     Atomic      Atomic             Coordinates (Angstroms)
 Number     Number       Type             X           Y           Z
 ---------------------------------------------------------------------
      1         12           0       -5.692412    1.285158    0.184879
      2          6           0       -4.983575   -2.122257   -0.346401
      3          6           0       -3.366881    1.115115    2.782410
      4          6           0       -6.196932    4.520922    0.695561
      5          6           0       -7.929989    1.179642   -2.324693
      6          7           0       -4.343985   -0.292799    1.059523
      7          6           0       -4.277250   -1.676315    0.686409
      8          6           0       -3.294699   -2.400230    1.532795
      9          6           0       -2.896369   -1.302322    2.617459
     10          6           0       -3.497838   -0.075587    2.085421
     11          6           0       -3.456429   -1.684746    4.071759
     12          6           0       -2.023551   -2.810544    0.675735
     13          6           0       -1.026355   -3.557749    1.480417
     14          6           0        0.237637   -3.880816    0.674100
     15          8           0        0.329312   -3.467121   -0.504287
     16          8           0        1.068033   -4.693129    1.387555
     17          7           0       -5.042437    2.669689    1.546918
     18          6           0       -4.036824    2.358879    2.487039
     19          6           0       -3.766138    3.640670    3.129636
     20          6           0       -4.463163    4.653997    2.560605
     21          6           0       -5.335524    3.963826    1.539451
     22          6           0       -2.612382    3.847751    4.241004
     23          6           0       -4.524726    6.083318    2.888358
     24          8           0       -3.890475    6.586074    3.824217
     25          7           0       -6.794948    2.628284   -0.769088
     26          6           0       -6.904819    3.976517   -0.270555
     27          6           0       -7.845368    4.619594   -1.196052
     28          6           0       -8.406703    3.759762   -2.164447
     29          6           0       -7.724249    2.426514   -1.767372
     30          6           0       -8.252902    6.032846   -1.150635
     31          6           0       -9.403945    3.841313   -3.169197
     32          6           0       -8.820070    4.096746   -4.537051
     33          7           0       -6.302296   -0.166688   -1.108828
     34          6           0       -7.311838   -0.057719   -2.083736
     35          6           0       -7.501634   -1.355589   -2.726888
     36          6           0       -6.528233   -2.159434   -2.148765
     37          6           0       -5.849929   -1.365976   -1.139502
     38          6           0       -8.468348   -1.699515   -3.841877
     39          6           0       -6.126864   -3.548940   -2.007648
     40          8           0       -6.515839   -4.478928   -2.714767
     41          6           0       -5.031530   -3.565766   -0.931744
     42          6           0       -5.326205   -4.621787    0.092066
     43          8           0       -5.706740   -4.500203    1.277811
     44          8           0       -5.225731   -5.882280   -0.414313
     45          6           0       -5.694184   -6.958590    0.373055
     46          6           0        2.365135   -5.055197    0.706540
     47          6           0        3.399262   -4.053722    1.105485
     48          6           0        3.923406   -3.203090    0.308441
     49          6           0        3.534441   -3.092891   -1.197499
     50          6           0        5.124970   -2.307811    0.714311
     51          6           0        6.438870   -2.691749    0.096930
     52          6           0        7.690080   -1.824894    0.677440
     53          6           0        8.958786   -1.990500   -0.000164
     54          6           0        9.511792   -3.413778    0.108451
     55          6           0        9.899371   -0.945726    0.418813
     56          6           0       11.253845   -0.816580   -0.379237
     57          6           0       12.164834    0.259492    0.138354
     58          6           0       13.573810    0.387030   -0.568166
     59          6           0       14.462094   -0.776008   -0.542940
     60          6           0       14.240422    1.677642   -0.135661
     61          6           0       15.572542    2.119534   -0.812961
     62          6           0       16.161949    3.538547   -0.547303
     63          6           0       17.304389    3.876189   -1.412594
     64          6           0       17.034566    3.952734   -2.920335
     65          6           0       17.950654    5.205811   -0.895221
     66          1           0       -2.532944    1.380354    3.319133
     67          1           0       -6.147739    5.653012    0.703321
     68          1           0       -8.905026    0.942192   -2.946161
     69          1           0       -3.615952   -3.398473    1.875935
     70          1           0       -1.694541   -1.289843    2.632216
     71          1           0       -3.124685   -2.534721    4.452982
     72          1           0       -2.824739   -0.981929    4.869559
     73          1           0       -4.574295   -1.952410    4.235619
     74          1           0       -2.356229   -3.522095   -0.098231
     75          1           0       -1.646576   -2.049268    0.018599
     76          1           0       -0.485386   -3.206728    2.191416
     77          1           0       -1.413954   -4.592732    1.694605
     78          1           0       -1.706373    3.757536    3.599552
     79          1           0       -2.628334    4.976760    4.348571
     80          1           0       -2.657701    3.310313    5.134386
     81          1           0       -5.233048    6.821513    2.391538
     82          1           0       -9.891127    2.992360   -3.128442
     83          1           0      -10.018556    4.753149   -2.827691
     84          1           0       -9.517979    3.967042   -5.301073
     85          1           0       -8.364109    5.234435   -4.585468
     86          1           0       -8.119988    3.204388   -4.459243
     87          1           0       -7.947272   -1.393749   -4.861544
     88          1           0       -8.467679   -2.760336   -3.935769
     89          1           0       -9.427058   -1.253688   -3.768592
     90          1           0       -4.055668   -3.862197   -1.582418
     91          1           0        2.574217   -6.081163    1.106490
     92          1           0        2.213626   -5.040803   -0.390970
     93          1           0        3.849636   -4.204479    2.132400
     94          1           0        2.550056   -3.496147   -1.447876
     95          1           0        3.749790   -2.195527   -1.614149
     96          1           0        4.040013   -3.763974   -1.887841
     97          1           0        4.978292   -1.349591    0.191135
     98          1           0        5.169645   -2.287793    1.744454
     99          1           0        6.616771   -3.636598    0.316152
    100          1           0        6.385674   -2.536394   -1.114414
    101          1           0        7.246750   -0.782039    0.651973
    102          1           0        7.895922   -2.150412    1.716833
    103          1           0        8.852973   -1.857875   -1.197586
    104          1           0        8.975224   -4.159489   -0.127739
    105          1           0       10.389382   -3.582563   -0.494029
    106          1           0        9.730872   -3.529872    1.206557
    107          1           0        9.368163    0.100898    0.721622
    108          1           0       10.382607   -1.260135    1.282481
    109          1           0       11.703454   -1.881436   -0.208665
    110          1           0       11.170106   -0.815840   -1.487966
    111          1           0       11.689847    1.252408    0.122332
    112          1           0       12.489406    0.055951    1.211140
    113          1           0       13.294356    0.607198   -1.747992
    114          1           0       14.441975   -1.135623    0.479472
    115          1           0       14.118755   -1.722744   -1.345990
    116          1           0       15.572263   -0.420691   -0.891447
    117          1           0       13.494019    2.491531   -0.380513
    118          1           0       14.354313    1.694325    1.107568
    119          1           0       16.385798    1.331145   -0.667974
    120          1           0       15.510130    1.995161   -1.933796
    121          1           0       15.353776    4.295610   -0.719159
    122          1           0       16.362920    3.451776    0.576478
    123          1           0       18.087208    3.040594   -1.152762
    124          1           0       16.380581    4.634508   -3.251917
    125          1           0       18.095603    4.246673   -3.353181
    126          1           0       16.747972    2.960364   -3.401724
    127          1           0       18.225821    5.094581    0.055009
    128          1           0       18.822915    5.767339   -1.458794
    129          1           0       17.188696    6.157712   -1.107385
    130          1           0       -5.376491   -7.862447   -0.137945
    131          1           0       -6.926784   -6.757288    0.455851
    132          1           0       -5.210800   -6.959751    1.342084
    133          8           0       -7.848973    6.925197   -0.411443
    134          1           0       -9.075028    6.178469   -1.763848
 ---------------------------------------------------------------------

 SCF Done:  E(RCAM-B3LYP) =  -3043.45611629     A.U. after   15 cycles

 Excitation energies and oscillator strengths:

 Excited State   1:      Singlet-A      2.0026 eV  619.13 nm  f=0.2276  <S**2>=0.000
     243 -> 246        0.21925
     244 -> 245        0.66657
 This state for optimization and/or second-order correction.
 Total Energy, E(TD-HF/TD-KS) =  -3043.38252388
 Copying the excited state density for this state as the 1-particle RhoCI density.

 The electronic state is 1-A.
 Alpha  occ. eigenvalues --  -46.81238 -19.23131 -19.22078 -19.17150 -19.17101
 Alpha  occ. eigenvalues --  -19.16936 -19.16795 -19.16677 -14.38870 -14.37068
 Alpha  occ. eigenvalues --  -14.36641 -14.36434 -10.35692 -10.35175 -10.31144
 Alpha  occ. eigenvalues --  -10.30670 -10.29358 -10.28722 -10.27996 -10.27376
 Alpha  occ. eigenvalues --  -10.27229 -10.26902 -10.26854 -10.26797 -10.26410
 Alpha  occ. eigenvalues --  -10.26302 -10.25781 -10.25588 -10.25482 -10.25338
 Alpha  occ. eigenvalues --  -10.25327 -10.25174 -10.24743 -10.23806 -10.23592
 Alpha  occ. eigenvalues --  -10.23435 -10.23359 -10.23308 -10.23201 -10.23086
 Alpha  occ. eigenvalues --  -10.22991 -10.22886 -10.22847 -10.22712 -10.22612
 Alpha  occ. eigenvalues --  -10.22566 -10.22542 -10.22472 -10.22406 -10.22105
 Alpha  occ. eigenvalues --  -10.22019 -10.21816 -10.21730 -10.21699 -10.21620
 Alpha  occ. eigenvalues --  -10.21620 -10.21608 -10.21477 -10.21445 -10.21389
 Alpha  occ. eigenvalues --  -10.21379 -10.21322 -10.21079 -10.20769 -10.20049
 Alpha  occ. eigenvalues --  -10.19377  -3.09844  -1.84784  -1.84315  -1.84247
 Alpha  occ. eigenvalues --   -1.13041  -1.11596  -1.05964  -1.05927  -1.05646
 Alpha  occ. eigenvalues --   -1.03454  -1.03085  -1.01036  -0.99720  -0.98845
 Alpha  occ. eigenvalues --   -0.97290  -0.88919  -0.87182  -0.87058  -0.86210
 Alpha  occ. eigenvalues --   -0.85471  -0.85351  -0.84990  -0.83940  -0.83719
 Alpha  occ. eigenvalues --   -0.83354  -0.82190  -0.81535  -0.80875  -0.80100
 Alpha  occ. eigenvalues --   -0.79312  -0.78496  -0.78081  -0.77551  -0.76155
 Alpha  occ. eigenvalues --   -0.75574  -0.74701  -0.73946  -0.72822  -0.72795
 Alpha  occ. eigenvalues --   -0.72343  -0.71560  -0.71256  -0.70299  -0.70011
 Alpha  occ. eigenvalues --   -0.69874  -0.69610  -0.68412  -0.67312  -0.66537
 Alpha  occ. eigenvalues --   -0.65963  -0.65032  -0.64354  -0.62819  -0.62535
 Alpha  occ. eigenvalues --   -0.61661  -0.60749  -0.60096  -0.58685  -0.58496
 Alpha  occ. eigenvalues --   -0.58431  -0.58096  -0.58025  -0.56757  -0.56421
 Alpha  occ. eigenvalues --   -0.56193  -0.55841  -0.55713  -0.55118  -0.54629
 Alpha  occ. eigenvalues --   -0.53904  -0.53630  -0.53367  -0.52661  -0.52588
 Alpha  occ. eigenvalues --   -0.51996  -0.51870  -0.51706  -0.50978  -0.50629
 Alpha  occ. eigenvalues --   -0.50466  -0.50190  -0.49998  -0.49415  -0.49338
 Alpha  occ. eigenvalues --   -0.49038  -0.48487  -0.48356  -0.47997  -0.47831
 Alpha  occ. eigenvalues --   -0.47556  -0.47410  -0.47284  -0.47195  -0.46948
 Alpha  occ. eigenvalues --   -0.46754  -0.46609  -0.46261  -0.46052  -0.45956
 Alpha  occ. eigenvalues --   -0.45813  -0.45443  -0.45289  -0.45247  -0.45108
 Alpha  occ. eigenvalues --   -0.44380  -0.44244  -0.43920  -0.43820  -0.43662
 Alpha  occ. eigenvalues --   -0.43360  -0.43230  -0.43106  -0.42779  -0.42614
 Alpha  occ. eigenvalues --   -0.42590  -0.42177  -0.42018  -0.41527  -0.41508
 Alpha  occ. eigenvalues --   -0.41340  -0.41321  -0.40989  -0.40941  -0.40720
 Alpha  occ. eigenvalues --   -0.40686  -0.40548  -0.40444  -0.40276  -0.40077
 Alpha  occ. eigenvalues --   -0.39807  -0.39760  -0.39587  -0.39524  -0.39239
 Alpha  occ. eigenvalues --   -0.38940  -0.38529  -0.38379  -0.38128  -0.38068
 Alpha  occ. eigenvalues --   -0.37750  -0.37641  -0.37504  -0.37295  -0.37055
 Alpha  occ. eigenvalues --   -0.36999  -0.36910  -0.36494  -0.36290  -0.36028
 Alpha  occ. eigenvalues --   -0.35826  -0.35720  -0.34719  -0.34658  -0.34109
 Alpha  occ. eigenvalues --   -0.34041  -0.33962  -0.33904  -0.33397  -0.32758
 Alpha  occ. eigenvalues --   -0.32646  -0.32493  -0.32024  -0.31703  -0.31528
 Alpha  occ. eigenvalues --   -0.31364  -0.31139  -0.30561  -0.30271  -0.29754
 Alpha  occ. eigenvalues --   -0.28791  -0.28726  -0.28252  -0.27832  -0.27726
 Alpha  occ. eigenvalues --   -0.27493  -0.27309  -0.23437  -0.21367
 Alpha virt. eigenvalues --   -0.08657  -0.06167  -0.01529  -0.00854   0.00178
 Alpha virt. eigenvalues --    0.02082   0.03390   0.03832   0.04098   0.04193
 Alpha virt. eigenvalues --    0.05099   0.05820   0.07883   0.08559   0.08948

 Mulliken charges:
               1
     1  Mg   0.831622
     2  C    0.094829
     3  C   -0.148131
     4  C   -0.186718
     5  C   -0.196342
     6  N   -0.632112
     7  C    0.308605
     8  C   -0.154244
     9  C   -0.149244
    10  C    0.381629
    11  C   -0.304998
    12  C   -0.197804
    13  C   -0.226623
    14  C    0.576321
    15  O   -0.481614
    16  O   -0.474995
    17  N   -0.745768
    18  C    0.295502
    19  C   -0.017623
    20  C    0.004737
    21  C    0.342834
    22  C   -0.396092
    23  C    0.223958
    24  O   -0.416558
    25  N   -0.718585
    26  C    0.342734
    27  C   -0.072187
    28  C    0.070670
    29  C    0.290478
    30  C    0.264024
    31  C   -0.249362
    32  C   -0.284291
    33  N   -0.729547
    34  C    0.243691
    35  C    0.032298
    36  C   -0.004054
    37  C    0.328046
    38  C   -0.377095
    39  C    0.366825
    40  O   -0.468248
    41  C   -0.320394
    42  C    0.618632
    43  O   -0.494199
    44  O   -0.435981
    45  C   -0.067316
    46  C   -0.016426
    47  C   -0.131760
    48  C    0.162242
    49  C   -0.398707
    50  C   -0.227979
    51  C   -0.168643
    52  C   -0.168933
    53  C   -0.034468
    54  C   -0.310486
    55  C   -0.156864
    56  C   -0.193271
    57  C   -0.160326
    58  C   -0.038351
    59  C   -0.278155
    60  C   -0.148735
    61  C   -0.196131
    62  C   -0.146872
    63  C   -0.045805
    64  C   -0.307463
    65  C   -0.292444
    66  H    0.090709
    67  H    0.133300
    68  H    0.085958
    69  H    0.126706
    70  H    0.098129
    71  H    0.130919
    72  H    0.082185
    73  H    0.124560
    74  H    0.105415
    75  H    0.130675
    76  H    0.134785
    77  H    0.132741
    78  H    0.122747
    79  H    0.162173
    80  H    0.131671
    81  H    0.098331
    82  H    0.125284
    83  H    0.103343
    84  H    0.122142
    85  H    0.099546
    86  H    0.108427
    87  H    0.122094
    88  H    0.158716
    89  H    0.125217
    90  H    0.169350
    91  H    0.120861
    92  H    0.132164
    93  H    0.078609
    94  H    0.146910
    95  H    0.115191
    96  H    0.113783
    97  H    0.102977
    98  H    0.100956
    99  H    0.105422
   100  H    0.070875
   101  H    0.087292
   102  H    0.085386
   103  H    0.054016
   104  H    0.115463
   105  H    0.106032
   106  H    0.084335
   107  H    0.068520
   108  H    0.103576
   109  H    0.083541
   110  H    0.088041
   111  H    0.096561
   112  H    0.079127
   113  H    0.051366
   114  H    0.104573
   115  H    0.068614
   116  H    0.090085
   117  H    0.091632
   118  H    0.049218
   119  H    0.080556
   120  H    0.083749
   121  H    0.084565
   122  H    0.087924
   123  H    0.074429
   124  H    0.120877
   125  H    0.090115
   126  H    0.097829
   127  H    0.115930
   128  H    0.084881
   129  H    0.066125
   130  H    0.127759
   131  H    0.108741
   132  H    0.129022
   133  O   -0.438939
   134  H    0.058451
 Sum of Mulliken charges =   0.00000

 Dipole moment (field-independent basis, Debye):
    X=              2.8522    Y=             -5.3314    Z=             -1.5235  Tot=              6.2354
 Quadrupole moment (field-independent basis, Debye-Ang):
   XX=           -373.5404   YY=           -434.0544   ZZ=           -398.7600
   XY=              3.0056   XZ=             26.4312   YZ=            -37.5147

 Normal termination of Gaussian 09 at Sat Oct  5 10:27:41 2019.
