 Gaussian 09, Revision D.01,
 Gaussian 09:  ES64L-G09RevD.01 24-Apr-2013

 ----------------------------------------------------------------------
 # td=(NStates=1) iop(3/107=0140000000,3/108=0140000000) iop(3/107=0140
 000000,3/108=0140000000) CAM-B3LYP/6-31G(d,p)
 ----------------------------------------------------------------------

 --
 TD
 --
 Symbolic Z-matrix:
 Charge =  0 Multiplicity = 1

                         Standard orientation:
 ---------------------------------------------------------------------
 Center     Atomic      Atomic             Coordinates (Angstroms)
 Number     Number       Type             X           Y           Z
 ---------------------------------------------------------------------
      1         12           0       -5.667210    1.239876    0.271841
      2          6           0       -5.102252   -2.072255   -0.427515
      3          6           0       -3.479226    1.114246    2.827166
      4          6           0       -6.098264    4.546646    0.642260
      5          6           0       -7.929162    1.265616   -2.244771
      6          7           0       -4.339712   -0.349999    1.004129
      7          6           0       -4.311899   -1.631663    0.667068
      8          6           0       -3.251634   -2.393442    1.433576
      9          6           0       -2.935007   -1.301535    2.604357
     10          6           0       -3.652991   -0.095163    2.167964
     11          6           0       -3.430329   -1.848264    4.018076
     12          6           0       -1.957299   -2.636375    0.558686
     13          6           0       -1.004179   -3.592435    1.548103
     14          6           0        0.261030   -3.903088    0.674118
     15          8           0        0.415859   -3.527972   -0.401484
     16          8           0        0.994496   -4.757621    1.379891
     17          7           0       -4.952027    2.611530    1.517733
     18          6           0       -3.954731    2.375834    2.521316
     19          6           0       -3.631086    3.683993    3.238512
     20          6           0       -4.484655    4.582857    2.658737
     21          6           0       -5.154377    3.996229    1.514432
     22          6           0       -2.755150    3.894256    4.366830
     23          6           0       -4.518824    5.994293    2.845099
     24          8           0       -3.814477    6.608315    3.681247
     25          7           0       -6.795027    2.603705   -0.678311
     26          6           0       -6.835370    3.916661   -0.355975
     27          6           0       -7.842406    4.668917   -1.174515
     28          6           0       -8.356002    3.730426   -1.993224
     29          6           0       -7.731207    2.452979   -1.671130
     30          6           0       -8.159395    5.982699   -1.212433
     31          6           0       -9.342803    3.933336   -3.144375
     32          6           0       -8.704839    4.027130   -4.561623
     33          7           0       -6.476208   -0.132775   -1.101206
     34          6           0       -7.324490   -0.034700   -2.058896
     35          6           0       -7.545201   -1.365307   -2.784963
     36          6           0       -6.765348   -2.143870   -2.122553
     37          6           0       -6.024024   -1.410794   -1.115889
     38          6           0       -8.463492   -1.604276   -3.933519
     39          6           0       -6.353936   -3.515665   -2.078190
     40          8           0       -6.728270   -4.531820   -2.616655
     41          6           0       -5.033720   -3.493010   -0.955234
     42          6           0       -5.300413   -4.562903    0.031130
     43          8           0       -5.736206   -4.457465    1.136589
     44          8           0       -4.945706   -5.801095   -0.488697
     45          6           0       -5.302412   -6.877873    0.450994
     46          6           0        2.297503   -5.041304    0.684709
     47          6           0        3.308306   -4.130944    1.159821
     48          6           0        3.853926   -3.259884    0.308179
     49          6           0        3.601647   -3.101964   -1.253586
     50          6           0        5.055593   -2.350836    0.726825
     51          6           0        6.453221   -2.637553    0.193898
     52          6           0        7.612483   -1.843619    0.616964
     53          6           0        8.912200   -1.942441   -0.173794
     54          6           0        9.462527   -3.379986   -0.095774
     55          6           0        9.957995   -0.844372    0.327442
     56          6           0       11.190008   -0.897439   -0.384716
     57          6           0       12.125963    0.237657    0.227247
     58          6           0       13.479374    0.428858   -0.561392
     59          6           0       14.436698   -0.674018   -0.425278
     60          6           0       14.106035    1.814532   -0.190884
     61          6           0       15.410252    2.131784   -0.930072
     62          6           0       16.104295    3.461906   -0.639927
     63          6           0       17.434065    3.829002   -1.350839
     64          6           0       17.281783    3.935861   -2.981064
     65          6           0       17.966000    4.991049   -0.654354
     66          1           0       -2.919249    0.900221    3.724004
     67          1           0       -6.403565    5.597053    0.516282
     68          1           0       -8.552129    1.154656   -3.178979
     69          1           0       -3.590208   -3.249836    1.915150
     70          1           0       -1.877787   -1.245643    2.623429
     71          1           0       -2.946336   -2.851165    4.275565
     72          1           0       -2.931194   -1.112586    4.876989
     73          1           0       -4.491580   -2.014068    4.119593
     74          1           0       -2.247733   -3.154808   -0.428853
     75          1           0       -1.266170   -1.802491    0.240168
     76          1           0       -0.814942   -3.256516    2.534659
     77          1           0       -1.548218   -4.723907    1.622019
     78          1           0       -1.809194    3.358952    4.273608
     79          1           0       -2.623519    5.063235    4.610368
     80          1           0       -2.981124    3.278226    5.087474
     81          1           0       -5.066252    6.711744    2.193199
     82          1           0      -10.077239    3.104766   -2.955457
     83          1           0      -10.021015    4.735038   -2.821610
     84          1           0       -9.544717    4.025897   -5.361449
     85          1           0       -7.941326    4.885876   -4.561373
     86          1           0       -7.951240    3.278979   -4.730650
     87          1           0       -8.417178   -0.861509   -4.684391
     88          1           0       -8.476431   -2.618247   -4.301333
     89          1           0       -9.468768   -1.312754   -3.618468
     90          1           0       -4.188534   -3.916079   -1.419662
     91          1           0        2.459531   -6.122487    1.073614
     92          1           0        2.011088   -5.093337   -0.399657
     93          1           0        3.422146   -3.950830    2.228466
     94          1           0        2.522888   -3.291847   -1.377808
     95          1           0        3.875275   -2.032257   -1.376956
     96          1           0        4.167669   -3.786379   -1.883357
     97          1           0        4.551599   -1.509615    0.461225
     98          1           0        5.226225   -2.282892    1.884616
     99          1           0        6.744775   -3.672267    0.605129
    100          1           0        6.362623   -2.675081   -0.918072
    101          1           0        7.354535   -0.833397    0.471567
    102          1           0        7.897770   -2.061566    1.529016
    103          1           0        8.856544   -1.793190   -1.478937
    104          1           0        8.819093   -4.090415   -0.313652
    105          1           0       10.422624   -3.556661   -0.413542
    106          1           0        9.777690   -3.682264    1.003151
    107          1           0        9.539264    0.193110    0.323545
    108          1           0       10.161427   -1.245882    1.496041
    109          1           0       11.788587   -1.887745   -0.252571
    110          1           0       10.915410   -0.850354   -1.586339
    111          1           0       11.580701    1.218292    0.161172
    112          1           0       12.351423    0.244349    1.366455
    113          1           0       13.106227    0.584887   -1.577786
    114          1           0       14.873853   -0.776549    0.602883
    115          1           0       13.776808   -1.613290   -0.578547
    116          1           0       15.191127   -0.682741   -1.211537
    117          1           0       13.364560    2.683730   -0.323186
    118          1           0       14.397052    1.751315    0.910251
    119          1           0       16.143012    1.391930   -0.789419
    120          1           0       15.180618    2.233930   -2.184040
    121          1           0       15.303113    4.215305   -0.926214
    122          1           0       16.125010    3.569842    0.482695
    123          1           0       18.096648    3.012100   -1.375959
    124          1           0       16.492307    4.646860   -3.058727
    125          1           0       18.360872    4.129648   -3.469844
    126          1           0       16.864681    2.982731   -3.437180
    127          1           0       18.158144    4.829154    0.413337
    128          1           0       19.095711    5.097028   -1.178231
    129          1           0       17.361820    6.010348   -0.930142
    130          1           0       -5.092679   -7.671453   -0.081227
    131          1           0       -6.372758   -6.786611    0.755940
    132          1           0       -4.519326   -6.819939    1.332716
    133          8           0       -7.588490    6.880516   -0.476260
    134          1           0       -8.839027    6.232129   -1.926876
 ---------------------------------------------------------------------

 SCF Done:  E(RCAM-B3LYP) =  -3043.46231089     A.U. after   16 cycles

 Excitation energies and oscillator strengths:

 Excited State   1:      Singlet-A      1.9642 eV  631.23 nm  f=0.1934  <S**2>=0.000
     243 -> 246       -0.24564
     244 -> 245        0.65482
 This state for optimization and/or second-order correction.
 Total Energy, E(TD-HF/TD-KS) =  -3043.39012871
 Copying the excited state density for this state as the 1-particle RhoCI density.

 The electronic state is 1-A.
 Alpha  occ. eigenvalues --  -46.81916 -19.21695 -19.21186 -19.18690 -19.17952
 Alpha  occ. eigenvalues --  -19.16662 -19.16470 -19.15441 -14.39002 -14.37059
 Alpha  occ. eigenvalues --  -14.36799 -14.36756 -10.34391 -10.33760 -10.32511
 Alpha  occ. eigenvalues --  -10.28928 -10.28896 -10.27981 -10.27211 -10.27086
 Alpha  occ. eigenvalues --  -10.26798 -10.26594 -10.26464 -10.26253 -10.26005
 Alpha  occ. eigenvalues --  -10.25795 -10.25392 -10.25210 -10.24993 -10.24950
 Alpha  occ. eigenvalues --  -10.24931 -10.24812 -10.24529 -10.24156 -10.24091
 Alpha  occ. eigenvalues --  -10.24043 -10.23995 -10.23978 -10.23976 -10.23843
 Alpha  occ. eigenvalues --  -10.23636 -10.23353 -10.22971 -10.22965 -10.22865
 Alpha  occ. eigenvalues --  -10.22569 -10.22316 -10.22313 -10.22307 -10.22282
 Alpha  occ. eigenvalues --  -10.22096 -10.21923 -10.21881 -10.21832 -10.21763
 Alpha  occ. eigenvalues --  -10.21726 -10.21596 -10.21546 -10.21411 -10.21395
 Alpha  occ. eigenvalues --  -10.21288 -10.20847 -10.20755 -10.20683 -10.19341
 Alpha  occ. eigenvalues --  -10.19283  -3.10487  -1.85419  -1.84952  -1.84907
 Alpha  occ. eigenvalues --   -1.15265  -1.12356  -1.08289  -1.07058  -1.03954
 Alpha  occ. eigenvalues --   -1.03716  -1.02959  -1.02745  -1.00466  -1.00032
 Alpha  occ. eigenvalues --   -0.97167  -0.89157  -0.86583  -0.86228  -0.85722
 Alpha  occ. eigenvalues --   -0.85408  -0.84570  -0.84519  -0.83986  -0.83710
 Alpha  occ. eigenvalues --   -0.83414  -0.83222  -0.81422  -0.80312  -0.79592
 Alpha  occ. eigenvalues --   -0.79128  -0.78375  -0.77534  -0.77109  -0.76732
 Alpha  occ. eigenvalues --   -0.76343  -0.75531  -0.74263  -0.72909  -0.72177
 Alpha  occ. eigenvalues --   -0.72096  -0.71079  -0.70478  -0.70223  -0.69950
 Alpha  occ. eigenvalues --   -0.69444  -0.68769  -0.68301  -0.67748  -0.66584
 Alpha  occ. eigenvalues --   -0.66042  -0.65119  -0.64506  -0.62761  -0.62066
 Alpha  occ. eigenvalues --   -0.61523  -0.60664  -0.59423  -0.58775  -0.58246
 Alpha  occ. eigenvalues --   -0.58170  -0.58146  -0.57759  -0.57086  -0.56955
 Alpha  occ. eigenvalues --   -0.56717  -0.55952  -0.55495  -0.54970  -0.54593
 Alpha  occ. eigenvalues --   -0.53770  -0.53457  -0.53183  -0.53008  -0.52851
 Alpha  occ. eigenvalues --   -0.52432  -0.51799  -0.51201  -0.50717  -0.50499
 Alpha  occ. eigenvalues --   -0.50333  -0.49966  -0.49715  -0.49473  -0.49299
 Alpha  occ. eigenvalues --   -0.48874  -0.48806  -0.48583  -0.48052  -0.47822
 Alpha  occ. eigenvalues --   -0.47691  -0.47374  -0.47013  -0.46726  -0.46515
 Alpha  occ. eigenvalues --   -0.46375  -0.46280  -0.46055  -0.45961  -0.45905
 Alpha  occ. eigenvalues --   -0.45743  -0.45464  -0.45224  -0.45052  -0.44678
 Alpha  occ. eigenvalues --   -0.44503  -0.44378  -0.44233  -0.43888  -0.43705
 Alpha  occ. eigenvalues --   -0.43459  -0.43186  -0.43111  -0.43063  -0.42797
 Alpha  occ. eigenvalues --   -0.42641  -0.42376  -0.42253  -0.42128  -0.42025
 Alpha  occ. eigenvalues --   -0.41875  -0.41673  -0.41500  -0.41429  -0.41227
 Alpha  occ. eigenvalues --   -0.41099  -0.41014  -0.40960  -0.40610  -0.40309
 Alpha  occ. eigenvalues --   -0.39953  -0.39718  -0.39677  -0.39328  -0.39234
 Alpha  occ. eigenvalues --   -0.39076  -0.38935  -0.38792  -0.38770  -0.38627
 Alpha  occ. eigenvalues --   -0.38201  -0.38154  -0.37992  -0.37832  -0.37142
 Alpha  occ. eigenvalues --   -0.36904  -0.36438  -0.36205  -0.35585  -0.35307
 Alpha  occ. eigenvalues --   -0.35284  -0.35099  -0.34874  -0.34424  -0.34161
 Alpha  occ. eigenvalues --   -0.34017  -0.33896  -0.33670  -0.33220  -0.32852
 Alpha  occ. eigenvalues --   -0.32588  -0.32579  -0.32477  -0.31858  -0.31735
 Alpha  occ. eigenvalues --   -0.31555  -0.31169  -0.30743  -0.30308  -0.30000
 Alpha  occ. eigenvalues --   -0.29883  -0.29201  -0.27977  -0.27898  -0.27799
 Alpha  occ. eigenvalues --   -0.27556  -0.26270  -0.22930  -0.20464
 Alpha virt. eigenvalues --   -0.07840  -0.06573  -0.02325  -0.01067   0.00407
 Alpha virt. eigenvalues --    0.02948   0.03299   0.03937   0.04097   0.04954
 Alpha virt. eigenvalues --    0.05292   0.06501   0.08048   0.08988   0.09124

 Mulliken charges:
               1
     1  Mg   0.839974
     2  C    0.095204
     3  C   -0.184664
     4  C   -0.182986
     5  C   -0.242152
     6  N   -0.625310
     7  C    0.312266
     8  C   -0.139131
     9  C   -0.170203
    10  C    0.358679
    11  C   -0.317728
    12  C   -0.183325
    13  C   -0.275961
    14  C    0.605374
    15  O   -0.429117
    16  O   -0.468637
    17  N   -0.701184
    18  C    0.297021
    19  C    0.076556
    20  C   -0.010975
    21  C    0.296121
    22  C   -0.396089
    23  C    0.219575
    24  O   -0.449491
    25  N   -0.718420
    26  C    0.304168
    27  C    0.057650
    28  C    0.003910
    29  C    0.348153
    30  C    0.208804
    31  C   -0.235936
    32  C   -0.309826
    33  N   -0.680049
    34  C    0.245653
    35  C    0.037826
    36  C    0.079716
    37  C    0.269749
    38  C   -0.390566
    39  C    0.347605
    40  O   -0.431171
    41  C   -0.366553
    42  C    0.622720
    43  O   -0.472209
    44  O   -0.484967
    45  C   -0.066302
    46  C   -0.035187
    47  C   -0.098365
    48  C    0.082893
    49  C   -0.370696
    50  C   -0.214114
    51  C   -0.170741
    52  C   -0.140152
    53  C   -0.053726
    54  C   -0.312515
    55  C   -0.140455
    56  C   -0.156242
    57  C   -0.189833
    58  C   -0.039853
    59  C   -0.304767
    60  C   -0.171075
    61  C   -0.158901
    62  C   -0.171631
    63  C   -0.046320
    64  C   -0.321212
    65  C   -0.276717
    66  H    0.076998
    67  H    0.136684
    68  H    0.065684
    69  H    0.130735
    70  H    0.114580
    71  H    0.106054
    72  H    0.082680
    73  H    0.138741
    74  H    0.114742
    75  H    0.127752
    76  H    0.137457
    77  H    0.107168
    78  H    0.111151
    79  H    0.171990
    80  H    0.137557
    81  H    0.101030
    82  H    0.111915
    83  H    0.112360
    84  H    0.116608
    85  H    0.112598
    86  H    0.127600
    87  H    0.136635
    88  H    0.151270
    89  H    0.134509
    90  H    0.152157
    91  H    0.108377
    92  H    0.136158
    93  H    0.097001
    94  H    0.149451
    95  H    0.107454
    96  H    0.130664
    97  H    0.111123
    98  H    0.067106
    99  H    0.086069
   100  H    0.090311
   101  H    0.093333
   102  H    0.104089
   103  H    0.027228
   104  H    0.120129
   105  H    0.111389
   106  H    0.058986
   107  H    0.096768
   108  H    0.061837
   109  H    0.094692
   110  H    0.074538
   111  H    0.085122
   112  H    0.083646
   113  H    0.089695
   114  H    0.099202
   115  H    0.083539
   116  H    0.114627
   117  H    0.079588
   118  H    0.074534
   119  H    0.099607
   120  H    0.038648
   121  H    0.076455
   122  H    0.077784
   123  H    0.099001
   124  H    0.112958
   125  H    0.090865
   126  H    0.104277
   127  H    0.116034
   128  H    0.057198
   129  H    0.087403
   130  H    0.129976
   131  H    0.138104
   132  H    0.103274
   133  O   -0.471423
   134  H    0.082366
 Sum of Mulliken charges =   0.00000

 Dipole moment (field-independent basis, Debye):
    X=              1.7066    Y=             -5.9663    Z=             -1.8027  Tot=              6.4621
 Quadrupole moment (field-independent basis, Debye-Ang):
   XX=           -368.8283   YY=           -456.8122   ZZ=           -390.1066
   XY=              1.9388   XZ=             33.6330   YZ=            -34.1015

 Normal termination of Gaussian 09 at Fri Oct  4 17:34:06 2019.
