 Gaussian 09, Revision D.01,
 Gaussian 09:  ES64L-G09RevD.01 24-Apr-2013

 ----------------------------------------------------------------------
 # td=(NStates=1) iop(3/107=0140000000,3/108=0140000000) iop(3/107=0140
 000000,3/108=0140000000) CAM-B3LYP/6-31G(d,p)
 ----------------------------------------------------------------------

 --
 TD
 --
 Symbolic Z-matrix:
 Charge =  0 Multiplicity = 1

                         Standard orientation:
 ---------------------------------------------------------------------
 Center     Atomic      Atomic             Coordinates (Angstroms)
 Number     Number       Type             X           Y           Z
 ---------------------------------------------------------------------
      1         12           0       -5.607664    1.217968    0.206677
      2          6           0       -5.063125   -2.116186   -0.369496
      3          6           0       -3.391395    1.188301    2.739566
      4          6           0       -6.163385    4.589524    0.572707
      5          6           0       -8.030761    1.250545   -2.400499
      6          7           0       -4.358708   -0.255302    1.088354
      7          6           0       -4.297354   -1.690220    0.594441
      8          6           0       -3.196995   -2.445070    1.400516
      9          6           0       -2.902897   -1.290084    2.453860
     10          6           0       -3.503552   -0.066079    2.052920
     11          6           0       -3.231889   -1.719758    3.952082
     12          6           0       -2.072862   -2.819087    0.475824
     13          6           0       -0.990611   -3.503626    1.394435
     14          6           0        0.331038   -3.844206    0.598652
     15          8           0        0.531136   -3.367828   -0.552431
     16          8           0        1.070416   -4.696095    1.239842
     17          7           0       -4.848184    2.639395    1.428817
     18          6           0       -3.954932    2.466332    2.445549
     19          6           0       -3.605797    3.696072    3.041638
     20          6           0       -4.370567    4.726656    2.402891
     21          6           0       -5.144969    3.969200    1.394960
     22          6           0       -2.603457    3.777025    4.209426
     23          6           0       -4.576438    6.086997    2.912546
     24          8           0       -4.011453    6.586802    3.845542
     25          7           0       -6.772737    2.650860   -0.657020
     26          6           0       -6.895308    3.951030   -0.373146
     27          6           0       -7.793050    4.625392   -1.177922
     28          6           0       -8.332121    3.681660   -2.084330
     29          6           0       -7.734881    2.421527   -1.758214
     30          6           0       -8.371593    5.975142   -1.015555
     31          6           0       -9.419622    3.930396   -3.059330
     32          6           0       -8.840588    4.063454   -4.574749
     33          7           0       -6.348503   -0.124928   -1.093305
     34          6           0       -7.375123   -0.014947   -2.010406
     35          6           0       -7.675091   -1.251794   -2.685594
     36          6           0       -6.799096   -2.172086   -1.929456
     37          6           0       -6.005453   -1.417336   -1.145154
     38          6           0       -8.721261   -1.709904   -3.690144
     39          6           0       -6.404131   -3.525452   -1.911617
     40          8           0       -6.808149   -4.550610   -2.518820
     41          6           0       -5.115275   -3.592966   -0.857484
     42          6           0       -5.377048   -4.666218    0.215282
     43          8           0       -5.785103   -4.366010    1.395836
     44          8           0       -5.185000   -5.914972   -0.222950
     45          6           0       -5.487936   -6.925256    0.675842
     46          6           0        2.304379   -5.084813    0.505232
     47          6           0        3.372920   -4.231475    0.884187
     48          6           0        4.043101   -3.350012    0.095096
     49          6           0        3.922126   -3.237567   -1.388581
     50          6           0        5.175683   -2.498193    0.750508
     51          6           0        6.483305   -2.641815    0.016186
     52          6           0        7.590971   -1.840216    0.651852
     53          6           0        8.977875   -1.985242    0.090215
     54          6           0        9.600177   -3.361788    0.215433
     55          6           0        9.988679   -0.922067    0.576791
     56          6           0       11.356414   -0.842076   -0.229148
     57          6           0       12.215383    0.296994    0.096712
     58          6           0       13.488467    0.420659   -0.810214
     59          6           0       14.427996   -0.758600   -0.694259
     60          6           0       14.205955    1.652899   -0.347911
     61          6           0       15.555882    2.058261   -1.071775
     62          6           0       15.942206    3.496157   -0.590627
     63          6           0       17.300945    3.890741   -1.208736
     64          6           0       17.307808    4.213635   -2.781024
     65          6           0       17.804965    5.229619   -0.510224
     66          1           0       -2.525467    1.274614    3.515673
     67          1           0       -6.282515    5.702022    0.671893
     68          1           0       -8.647571    1.201408   -3.315382
     69          1           0       -3.695220   -3.255670    1.941510
     70          1           0       -1.620364   -1.315519    2.485250
     71          1           0       -2.664029   -2.750327    4.138487
     72          1           0       -2.957871   -0.904745    4.731282
     73          1           0       -4.355598   -1.770050    3.838039
     74          1           0       -2.320313   -3.477776   -0.291483
     75          1           0       -1.548121   -2.066613   -0.081196
     76          1           0       -0.622914   -2.892978    2.275700
     77          1           0       -1.201838   -4.551083    1.678576
     78          1           0       -1.419871    3.877736    3.672042
     79          1           0       -2.795992    4.714896    4.637713
     80          1           0       -2.723317    2.707109    4.933398
     81          1           0       -5.061409    6.929085    2.267746
     82          1           0      -10.126721    3.208744   -2.994276
     83          1           0       -9.965127    4.971187   -2.846939
     84          1           0       -9.595809    4.149834   -5.114078
     85          1           0       -8.177553    4.669104   -4.748655
     86          1           0       -8.430775    3.036311   -4.762318
     87          1           0       -8.519170   -1.378023   -4.705340
     88          1           0       -8.984562   -2.743148   -3.723221
     89          1           0       -9.669306   -1.140455   -3.435466
     90          1           0       -4.182414   -3.797535   -1.563064
     91          1           0        2.494061   -5.986564    0.996195
     92          1           0        1.988499   -5.090044   -0.544522
     93          1           0        3.550052   -4.198302    2.047211
     94          1           0        2.844138   -3.530663   -1.670168
     95          1           0        4.318627   -2.242808   -1.557981
     96          1           0        4.546103   -4.048030   -1.902773
     97          1           0        4.709690   -1.579503    0.809137
     98          1           0        5.150839   -2.681548    1.817036
     99          1           0        6.863737   -3.789132   -0.256714
    100          1           0        6.261943   -2.613104   -1.051498
    101          1           0        7.331062   -0.753616    0.841928
    102          1           0        7.681674   -2.258187    1.700726
    103          1           0        9.098330   -1.711582   -0.928594
    104          1           0        8.891676   -4.028496   -0.148833
    105          1           0       10.456921   -3.524847   -0.467960
    106          1           0       10.031520   -3.591593    1.365368
    107          1           0        9.502026   -0.084419    0.145540
    108          1           0       10.143534   -1.019525    1.635406
    109          1           0       12.058437   -1.636595   -0.192757
    110          1           0       11.066729   -1.037187   -1.313082
    111          1           0       11.457875    1.166761   -0.122724
    112          1           0       12.373654    0.413281    1.253441
    113          1           0       13.136659    0.565967   -1.854362
    114          1           0       14.900830   -0.897152    0.329006
    115          1           0       14.034882   -1.860454   -0.727221
    116          1           0       15.300666   -0.686083   -1.425271
    117          1           0       13.491517    2.605969   -0.531736
    118          1           0       14.410319    1.685523    0.661783
    119          1           0       16.333553    1.355649   -0.719867
    120          1           0       15.354756    1.949469   -2.145900
    121          1           0       15.127995    4.220635   -0.802576
    122          1           0       16.253133    3.364473    0.529077
    123          1           0       17.947353    3.108075   -1.115124
    124          1           0       16.724911    5.258899   -3.091110
    125          1           0       18.297939    4.363238   -3.275065
    126          1           0       16.534935    3.495422   -3.238920
    127          1           0       18.249331    4.698031    0.629222
    128          1           0       18.523463    5.497964   -1.015995
    129          1           0       16.958445    6.030539   -0.519086
    130          1           0       -5.106756   -7.664366    0.273199
    131          1           0       -6.594739   -6.893062    0.790071
    132          1           0       -4.962536   -6.902431    1.644303
    133          8           0       -7.855566    6.802088   -0.306826
    134          1           0       -9.391566    6.393989   -1.382803
 ---------------------------------------------------------------------

 SCF Done:  E(RCAM-B3LYP) =  -3043.37727708     A.U. after   16 cycles

 Excitation energies and oscillator strengths:

 Excited State   1:      Singlet-A      2.0026 eV  619.10 nm  f=0.2104  <S**2>=0.000
     243 -> 246       -0.19299
     244 -> 245        0.67412
 This state for optimization and/or second-order correction.
 Total Energy, E(TD-HF/TD-KS) =  -3043.30368121
 Copying the excited state density for this state as the 1-particle RhoCI density.

 The electronic state is 1-A.
 Alpha  occ. eigenvalues --  -46.80672 -19.23454 -19.23202 -19.17104 -19.16816
 Alpha  occ. eigenvalues --  -19.16589 -19.16169 -19.15973 -14.38760 -14.36705
 Alpha  occ. eigenvalues --  -14.36590 -14.36461 -10.35690 -10.34627 -10.30839
 Alpha  occ. eigenvalues --  -10.30718 -10.30678 -10.27846 -10.27308 -10.26990
 Alpha  occ. eigenvalues --  -10.26794 -10.26416 -10.26386 -10.26340 -10.25807
 Alpha  occ. eigenvalues --  -10.25721 -10.25608 -10.25470 -10.25468 -10.25373
 Alpha  occ. eigenvalues --  -10.25277 -10.25144 -10.24961 -10.24644 -10.24460
 Alpha  occ. eigenvalues --  -10.24228 -10.24210 -10.24156 -10.24065 -10.24013
 Alpha  occ. eigenvalues --  -10.23471 -10.23121 -10.23037 -10.22781 -10.22767
 Alpha  occ. eigenvalues --  -10.22563 -10.22377 -10.22306 -10.22202 -10.22125
 Alpha  occ. eigenvalues --  -10.22048 -10.21774 -10.21766 -10.21730 -10.21551
 Alpha  occ. eigenvalues --  -10.21380 -10.21380 -10.21152 -10.21104 -10.20938
 Alpha  occ. eigenvalues --  -10.20791 -10.20679 -10.20484 -10.20329 -10.20197
 Alpha  occ. eigenvalues --  -10.19871  -3.09363  -1.84299  -1.83814  -1.83801
 Alpha  occ. eigenvalues --   -1.14314  -1.14204  -1.07900  -1.07810  -1.03585
 Alpha  occ. eigenvalues --   -1.02482  -1.02008  -1.00557  -1.00094  -0.99022
 Alpha  occ. eigenvalues --   -0.98461  -0.88371  -0.86820  -0.85892  -0.85791
 Alpha  occ. eigenvalues --   -0.85232  -0.84662  -0.83581  -0.83045  -0.82843
 Alpha  occ. eigenvalues --   -0.82816  -0.82173  -0.81824  -0.80255  -0.79738
 Alpha  occ. eigenvalues --   -0.79450  -0.79022  -0.78216  -0.77600  -0.76915
 Alpha  occ. eigenvalues --   -0.75278  -0.74550  -0.73290  -0.73048  -0.72100
 Alpha  occ. eigenvalues --   -0.71791  -0.70684  -0.70549  -0.69870  -0.69207
 Alpha  occ. eigenvalues --   -0.69154  -0.68999  -0.67536  -0.67110  -0.66223
 Alpha  occ. eigenvalues --   -0.65702  -0.65247  -0.63742  -0.63556  -0.62068
 Alpha  occ. eigenvalues --   -0.61211  -0.60579  -0.60130  -0.59158  -0.59038
 Alpha  occ. eigenvalues --   -0.58751  -0.58698  -0.58108  -0.58098  -0.56868
 Alpha  occ. eigenvalues --   -0.56367  -0.55754  -0.55570  -0.54887  -0.54512
 Alpha  occ. eigenvalues --   -0.53760  -0.53256  -0.52829  -0.52428  -0.52097
 Alpha  occ. eigenvalues --   -0.51640  -0.51568  -0.51388  -0.50745  -0.50575
 Alpha  occ. eigenvalues --   -0.50182  -0.50044  -0.49476  -0.49390  -0.48929
 Alpha  occ. eigenvalues --   -0.48781  -0.48360  -0.47932  -0.47653  -0.47476
 Alpha  occ. eigenvalues --   -0.47378  -0.47168  -0.46970  -0.46668  -0.46581
 Alpha  occ. eigenvalues --   -0.46421  -0.46235  -0.46145  -0.46025  -0.45682
 Alpha  occ. eigenvalues --   -0.45502  -0.45362  -0.44909  -0.44759  -0.44498
 Alpha  occ. eigenvalues --   -0.44333  -0.44202  -0.44087  -0.43872  -0.43639
 Alpha  occ. eigenvalues --   -0.43501  -0.43306  -0.43124  -0.42932  -0.42701
 Alpha  occ. eigenvalues --   -0.42585  -0.42425  -0.42337  -0.42222  -0.41824
 Alpha  occ. eigenvalues --   -0.41710  -0.41516  -0.41472  -0.41083  -0.40744
 Alpha  occ. eigenvalues --   -0.40657  -0.40580  -0.40333  -0.40152  -0.40130
 Alpha  occ. eigenvalues --   -0.40130  -0.39898  -0.39685  -0.39336  -0.39215
 Alpha  occ. eigenvalues --   -0.38904  -0.38770  -0.38467  -0.38415  -0.38169
 Alpha  occ. eigenvalues --   -0.38139  -0.37914  -0.37808  -0.37559  -0.37406
 Alpha  occ. eigenvalues --   -0.37187  -0.36759  -0.36692  -0.35808  -0.35406
 Alpha  occ. eigenvalues --   -0.35307  -0.35229  -0.35039  -0.34899  -0.34220
 Alpha  occ. eigenvalues --   -0.34190  -0.33853  -0.33601  -0.33065  -0.32719
 Alpha  occ. eigenvalues --   -0.32702  -0.32109  -0.32095  -0.31335  -0.31038
 Alpha  occ. eigenvalues --   -0.30790  -0.30488  -0.30142  -0.29917  -0.29325
 Alpha  occ. eigenvalues --   -0.28437  -0.27755  -0.27497  -0.27381  -0.27216
 Alpha  occ. eigenvalues --   -0.26989  -0.26587  -0.23247  -0.21850
 Alpha virt. eigenvalues --   -0.09326  -0.06177  -0.01653  -0.00504   0.00857
 Alpha virt. eigenvalues --    0.02236   0.03054   0.04133   0.04234   0.04699
 Alpha virt. eigenvalues --    0.04973   0.05669   0.07720   0.08357   0.08778

 Mulliken charges:
               1
     1  Mg   0.815748
     2  C    0.112417
     3  C   -0.222563
     4  C   -0.199165
     5  C   -0.161021
     6  N   -0.629969
     7  C    0.204114
     8  C   -0.120869
     9  C   -0.186603
    10  C    0.448974
    11  C   -0.294904
    12  C   -0.166626
    13  C   -0.271628
    14  C    0.575971
    15  O   -0.512163
    16  O   -0.438572
    17  N   -0.705560
    18  C    0.349733
    19  C    0.034289
    20  C   -0.033819
    21  C    0.302683
    22  C   -0.346353
    23  C    0.230441
    24  O   -0.396620
    25  N   -0.720013
    26  C    0.389488
    27  C   -0.042964
    28  C    0.060670
    29  C    0.277182
    30  C    0.228658
    31  C   -0.270079
    32  C   -0.292373
    33  N   -0.719907
    34  C    0.244954
    35  C    0.029227
    36  C    0.043739
    37  C    0.303436
    38  C   -0.386367
    39  C    0.317304
    40  O   -0.494281
    41  C   -0.326075
    42  C    0.622972
    43  O   -0.510884
    44  O   -0.414379
    45  C   -0.062833
    46  C    0.001736
    47  C   -0.129553
    48  C    0.115402
    49  C   -0.377258
    50  C   -0.226494
    51  C   -0.165802
    52  C   -0.162713
    53  C   -0.068602
    54  C   -0.290757
    55  C   -0.175687
    56  C   -0.188688
    57  C   -0.160675
    58  C   -0.043820
    59  C   -0.320123
    60  C   -0.156687
    61  C   -0.196429
    62  C   -0.156494
    63  C   -0.052523
    64  C   -0.324031
    65  C   -0.257793
    66  H    0.083166
    67  H    0.139236
    68  H    0.110014
    69  H    0.144188
    70  H    0.065789
    71  H    0.106516
    72  H    0.110672
    73  H    0.128060
    74  H    0.122186
    75  H    0.141392
    76  H    0.128340
    77  H    0.129757
    78  H    0.098809
    79  H    0.164804
    80  H    0.096625
    81  H    0.074376
    82  H    0.124277
    83  H    0.096249
    84  H    0.122195
    85  H    0.128229
    86  H    0.094258
    87  H    0.129998
    88  H    0.160449
    89  H    0.111296
    90  H    0.147650
    91  H    0.120691
    92  H    0.134998
    93  H    0.074731
    94  H    0.142910
    95  H    0.124223
    96  H    0.117779
    97  H    0.123368
    98  H    0.096102
    99  H    0.067359
   100  H    0.102588
   101  H    0.089385
   102  H    0.094392
   103  H    0.083534
   104  H    0.100791
   105  H    0.101965
   106  H    0.067355
   107  H    0.098628
   108  H    0.089183
   109  H    0.092023
   110  H    0.072530
   111  H    0.069074
   112  H    0.082909
   113  H    0.091379
   114  H    0.097820
   115  H    0.090432
   116  H    0.103917
   117  H    0.059062
   118  H    0.098804
   119  H    0.094101
   120  H    0.093647
   121  H    0.094284
   122  H    0.084865
   123  H    0.099356
   124  H    0.062260
   125  H    0.110817
   126  H    0.095147
   127  H    0.041445
   128  H    0.113665
   129  H    0.097948
   130  H    0.120726
   131  H    0.131517
   132  H    0.115404
   133  O   -0.406023
   134  H    0.075962
 Sum of Mulliken charges =   0.00000

 Dipole moment (field-independent basis, Debye):
    X=              2.5799    Y=             -3.6247    Z=             -1.9594  Tot=              4.8614
 Quadrupole moment (field-independent basis, Debye-Ang):
   XX=           -367.7027   YY=           -432.4001   ZZ=           -395.8436
   XY=            -12.7549   XZ=             23.8752   YZ=            -37.0634

 Normal termination of Gaussian 09 at Wed Oct  9 07:17:01 2019.
