 Gaussian 09, Revision D.01,
 Gaussian 09:  ES64L-G09RevD.01 24-Apr-2013

 ----------------------------------------------------------------------
 # td=(NStates=1) iop(3/107=0140000000,3/108=0140000000) iop(3/107=0140
 000000,3/108=0140000000) CAM-B3LYP/6-31G(d,p)
 ----------------------------------------------------------------------

 --
 TD
 --
 Symbolic Z-matrix:
 Charge =  0 Multiplicity = 1

                         Standard orientation:
 ---------------------------------------------------------------------
 Center     Atomic      Atomic             Coordinates (Angstroms)
 Number     Number       Type             X           Y           Z
 ---------------------------------------------------------------------
      1         12           0       -5.582626    1.238246    0.163800
      2          6           0       -5.022213   -2.099034   -0.367745
      3          6           0       -3.466596    1.229240    2.816504
      4          6           0       -6.487164    4.426404    0.744056
      5          6           0       -8.105422    1.053489   -2.418545
      6          7           0       -4.354764   -0.302044    1.066364
      7          6           0       -4.279851   -1.585757    0.678070
      8          6           0       -3.188140   -2.259414    1.540657
      9          6           0       -2.857612   -1.229810    2.602670
     10          6           0       -3.621776    0.007569    2.120778
     11          6           0       -3.458922   -1.791670    3.983928
     12          6           0       -1.933677   -2.724697    0.749379
     13          6           0       -0.887112   -3.509229    1.507145
     14          6           0        0.304061   -3.828983    0.728328
     15          8           0        0.532013   -3.347937   -0.411750
     16          8           0        1.244143   -4.555877    1.290189
     17          7           0       -5.044839    2.652708    1.457876
     18          6           0       -4.070844    2.407164    2.525090
     19          6           0       -3.941862    3.651387    3.229720
     20          6           0       -4.584607    4.694328    2.518347
     21          6           0       -5.416153    3.907194    1.525797
     22          6           0       -2.912967    3.924353    4.245138
     23          6           0       -4.883692    5.952417    2.869838
     24          8           0       -4.225200    6.711332    3.686913
     25          7           0       -7.043957    2.466705   -0.714333
     26          6           0       -7.070190    3.808638   -0.325875
     27          6           0       -8.044161    4.523841   -1.307373
     28          6           0       -8.403259    3.567385   -2.188430
     29          6           0       -7.907200    2.270629   -1.742050
     30          6           0       -8.388881    5.932624   -1.185256
     31          6           0       -9.389579    3.667291   -3.251885
     32          6           0       -8.775595    3.975220   -4.644541
     33          7           0       -6.469362   -0.201095   -1.080886
     34          6           0       -7.495198   -0.141436   -1.962381
     35          6           0       -7.536128   -1.359884   -2.802245
     36          6           0       -6.683203   -2.251988   -2.093446
     37          6           0       -5.893353   -1.419124   -1.176077
     38          6           0       -8.522746   -1.707304   -3.808976
     39          6           0       -6.175532   -3.661298   -1.895855
     40          8           0       -6.436039   -4.564539   -2.628264
     41          6           0       -5.048013   -3.616274   -0.829480
     42          6           0       -5.123160   -4.692648    0.188470
     43          8           0       -5.386676   -4.514198    1.324229
     44          8           0       -4.855977   -5.872427   -0.319053
     45          6           0       -5.222902   -7.015461    0.564450
     46          6           0        2.427335   -5.066369    0.666375
     47          6           0        3.655801   -4.185748    0.999398
     48          6           0        4.166480   -3.233039    0.188669
     49          6           0        3.805299   -3.098877   -1.285586
     50          6           0        5.372834   -2.413582    0.692201
     51          6           0        6.604762   -2.677435   -0.030716
     52          6           0        7.805147   -1.817001    0.535436
     53          6           0        9.141847   -1.883436   -0.060302
     54          6           0        9.672480   -3.297690   -0.114946
     55          6           0       10.037735   -0.907698    0.457875
     56          6           0       11.399752   -0.799545   -0.294509
     57          6           0       12.202833    0.300406    0.306261
     58          6           0       13.473214    0.537840   -0.570608
     59          6           0       14.410914   -0.698870   -0.524264
     60          6           0       14.136067    1.872118   -0.080877
     61          6           0       15.407281    2.273802   -0.947532
     62          6           0       15.986363    3.668574   -0.511546
     63          6           0       17.291198    3.938930   -1.333443
     64          6           0       16.967793    4.001322   -2.875730
     65          6           0       17.846459    5.287842   -0.815037
     66          1           0       -2.826902    1.418736    3.635290
     67          1           0       -6.809021    5.580486    0.816013
     68          1           0       -9.034835    0.932061   -3.271656
     69          1           0       -3.607425   -3.193302    1.938222
     70          1           0       -1.791006   -0.976940    2.842189
     71          1           0       -2.889962   -2.637827    4.221373
     72          1           0       -3.383447   -1.100074    4.852723
     73          1           0       -4.583501   -2.122222    3.743575
     74          1           0       -2.029171   -3.128456   -0.297976
     75          1           0       -1.342838   -1.944854    0.193134
     76          1           0       -0.680547   -2.865601    2.552323
     77          1           0       -1.282038   -4.336296    2.099317
     78          1           0       -1.688316    3.516530    4.088939
     79          1           0       -3.010627    4.929884    4.646597
     80          1           0       -3.086629    3.278805    5.267939
     81          1           0       -5.575540    6.491028    2.259700
     82          1           0       -9.936712    2.693373   -3.467024
     83          1           0      -10.047524    4.385514   -2.939702
     84          1           0       -9.560967    4.416439   -5.453284
     85          1           0       -8.148659    4.799114   -4.368588
     86          1           0       -8.313611    2.977836   -5.182831
     87          1           0       -8.295650   -1.248921   -4.741045
     88          1           0       -8.657285   -2.808597   -4.231491
     89          1           0       -9.627351   -1.512821   -3.638588
     90          1           0       -4.103081   -3.568737   -1.385445
     91          1           0        2.362324   -6.091796    1.049449
     92          1           0        2.151090   -5.048566   -0.424223
     93          1           0        4.170785   -4.405655    2.055491
     94          1           0        2.970975   -3.714649   -1.439325
     95          1           0        3.620617   -1.959052   -1.544767
     96          1           0        4.614402   -3.606426   -1.944614
     97          1           0        5.254091   -1.375523    0.401295
     98          1           0        5.327301   -2.654027    1.779943
     99          1           0        6.712725   -3.930738    0.145336
    100          1           0        6.685135   -2.197806   -1.137209
    101          1           0        7.370625   -0.806770    0.478077
    102          1           0        7.847835   -1.977350    1.623817
    103          1           0        9.149311   -1.551253   -1.140117
    104          1           0        8.909759   -3.929594   -0.411985
    105          1           0       10.583710   -3.441382   -0.898278
    106          1           0       10.128637   -3.444921    0.982893
    107          1           0        9.799921    0.125876    0.167823
    108          1           0       10.206459   -0.961110    1.563810
    109          1           0       11.840473   -1.806023   -0.034957
    110          1           0       11.151182   -0.835319   -1.323159
    111          1           0       11.621487    1.265394    0.445894
    112          1           0       12.501545    0.009976    1.308415
    113          1           0       13.268995    0.702635   -1.664152
    114          1           0       14.511154   -0.905919    0.534883
    115          1           0       13.786085   -1.540724   -0.954919
    116          1           0       15.245699   -0.715688   -1.305664
    117          1           0       13.494750    2.666123   -0.249656
    118          1           0       14.462559    1.759570    0.994070
    119          1           0       16.101188    1.278743   -0.853152
    120          1           0       15.070364    2.213465   -1.997891
    121          1           0       15.280679    4.471372   -0.666018
    122          1           0       16.117648    3.682404    0.606524
    123          1           0       17.871567    3.070940   -1.255352
    124          1           0       16.203809    4.901896   -3.046716
    125          1           0       17.819068    4.197315   -3.662215
    126          1           0       16.452365    3.046217   -3.225296
    127          1           0       18.125057    5.314198    0.252235
    128          1           0       18.869665    5.582225   -1.293707
    129          1           0       17.156298    6.191470   -1.082552
    130          1           0       -4.660011   -7.941725    0.343388
    131          1           0       -6.346733   -6.828555    0.632568
    132          1           0       -4.633551   -6.808530    1.521261
    133          8           0       -7.913370    6.787486   -0.417247
    134          1           0       -9.061257    6.260321   -2.015805
 ---------------------------------------------------------------------

 SCF Done:  E(RCAM-B3LYP) =  -3043.46066250     A.U. after   16 cycles

 Excitation energies and oscillator strengths:

 Excited State   1:      Singlet-A      1.8882 eV  656.63 nm  f=0.2421  <S**2>=0.000
     243 -> 246        0.22903
     244 -> 245        0.66359
 This state for optimization and/or second-order correction.
 Total Energy, E(TD-HF/TD-KS) =  -3043.39127309
 Copying the excited state density for this state as the 1-particle RhoCI density.

 The electronic state is 1-A.
 Alpha  occ. eigenvalues --  -46.82437 -19.22934 -19.21784 -19.18063 -19.17527
 Alpha  occ. eigenvalues --  -19.17374 -19.15889 -19.14632 -14.39827 -14.37260
 Alpha  occ. eigenvalues --  -14.37073 -14.36770 -10.35275 -10.35203 -10.31940
 Alpha  occ. eigenvalues --  -10.31280 -10.29498 -10.28862 -10.28106 -10.27824
 Alpha  occ. eigenvalues --  -10.27531 -10.26977 -10.26823 -10.26647 -10.26612
 Alpha  occ. eigenvalues --  -10.26487 -10.25880 -10.25624 -10.25510 -10.25376
 Alpha  occ. eigenvalues --  -10.25374 -10.25172 -10.24806 -10.24676 -10.24592
 Alpha  occ. eigenvalues --  -10.24444 -10.24124 -10.24008 -10.24006 -10.23900
 Alpha  occ. eigenvalues --  -10.23593 -10.23482 -10.23423 -10.23332 -10.23282
 Alpha  occ. eigenvalues --  -10.23106 -10.23073 -10.22859 -10.22838 -10.22648
 Alpha  occ. eigenvalues --  -10.22088 -10.22007 -10.21875 -10.21816 -10.21692
 Alpha  occ. eigenvalues --  -10.21499 -10.21435 -10.21433 -10.21170 -10.21068
 Alpha  occ. eigenvalues --  -10.21022 -10.20819 -10.20771 -10.20186 -10.19897
 Alpha  occ. eigenvalues --  -10.19835  -3.10883  -1.85826  -1.85355  -1.85280
 Alpha  occ. eigenvalues --   -1.15662  -1.13758  -1.08796  -1.06359  -1.06155
 Alpha  occ. eigenvalues --   -1.02381  -1.02043  -1.01004  -1.00139  -0.99362
 Alpha  occ. eigenvalues --   -0.98441  -0.88836  -0.87558  -0.86364  -0.86091
 Alpha  occ. eigenvalues --   -0.85690  -0.85491  -0.84058  -0.83687  -0.83402
 Alpha  occ. eigenvalues --   -0.82943  -0.82668  -0.82142  -0.80696  -0.80105
 Alpha  occ. eigenvalues --   -0.78990  -0.78379  -0.77973  -0.77616  -0.76627
 Alpha  occ. eigenvalues --   -0.75363  -0.74854  -0.73827  -0.73605  -0.72107
 Alpha  occ. eigenvalues --   -0.71397  -0.70501  -0.70289  -0.69999  -0.69454
 Alpha  occ. eigenvalues --   -0.69230  -0.69089  -0.67701  -0.66976  -0.66157
 Alpha  occ. eigenvalues --   -0.65866  -0.64566  -0.64317  -0.62726  -0.62155
 Alpha  occ. eigenvalues --   -0.61466  -0.60956  -0.60090  -0.58962  -0.58926
 Alpha  occ. eigenvalues --   -0.58769  -0.58377  -0.57428  -0.57257  -0.57164
 Alpha  occ. eigenvalues --   -0.56421  -0.56224  -0.55811  -0.55335  -0.55180
 Alpha  occ. eigenvalues --   -0.54977  -0.54454  -0.53819  -0.52933  -0.52709
 Alpha  occ. eigenvalues --   -0.52580  -0.51978  -0.51647  -0.51312  -0.51037
 Alpha  occ. eigenvalues --   -0.50857  -0.50405  -0.49918  -0.49814  -0.49233
 Alpha  occ. eigenvalues --   -0.48987  -0.48440  -0.48376  -0.48010  -0.47920
 Alpha  occ. eigenvalues --   -0.47716  -0.47389  -0.47195  -0.46933  -0.46850
 Alpha  occ. eigenvalues --   -0.46695  -0.46294  -0.46190  -0.45971  -0.45674
 Alpha  occ. eigenvalues --   -0.45547  -0.45158  -0.45011  -0.44913  -0.44455
 Alpha  occ. eigenvalues --   -0.44375  -0.44159  -0.43920  -0.43686  -0.43587
 Alpha  occ. eigenvalues --   -0.43397  -0.43167  -0.43113  -0.42954  -0.42833
 Alpha  occ. eigenvalues --   -0.42354  -0.42028  -0.42014  -0.41835  -0.41677
 Alpha  occ. eigenvalues --   -0.41613  -0.41264  -0.41057  -0.40612  -0.40482
 Alpha  occ. eigenvalues --   -0.40366  -0.40093  -0.40038  -0.39764  -0.39653
 Alpha  occ. eigenvalues --   -0.39524  -0.39290  -0.39236  -0.39032  -0.38678
 Alpha  occ. eigenvalues --   -0.38300  -0.38269  -0.38227  -0.38195  -0.37885
 Alpha  occ. eigenvalues --   -0.37826  -0.37635  -0.37532  -0.37229  -0.36982
 Alpha  occ. eigenvalues --   -0.36963  -0.36860  -0.36342  -0.35816  -0.35310
 Alpha  occ. eigenvalues --   -0.35070  -0.34852  -0.34385  -0.34376  -0.34160
 Alpha  occ. eigenvalues --   -0.34074  -0.34004  -0.33730  -0.33676  -0.33319
 Alpha  occ. eigenvalues --   -0.33004  -0.32547  -0.31928  -0.31782  -0.31662
 Alpha  occ. eigenvalues --   -0.31174  -0.31043  -0.30195  -0.29773  -0.29493
 Alpha  occ. eigenvalues --   -0.29092  -0.28451  -0.28262  -0.27984  -0.27502
 Alpha  occ. eigenvalues --   -0.27170  -0.25905  -0.23303  -0.21189
 Alpha virt. eigenvalues --   -0.09116  -0.06765  -0.02814  -0.01476  -0.00021
 Alpha virt. eigenvalues --    0.01744   0.02442   0.03077   0.03482   0.04636
 Alpha virt. eigenvalues --    0.04713   0.06096   0.07142   0.08218   0.08774

 Mulliken charges:
               1
     1  Mg   0.838889
     2  C    0.042338
     3  C   -0.143601
     4  C   -0.204937
     5  C   -0.154256
     6  N   -0.639471
     7  C    0.302869
     8  C   -0.157791
     9  C   -0.158196
    10  C    0.359123
    11  C   -0.313442
    12  C   -0.198076
    13  C   -0.252817
    14  C    0.604345
    15  O   -0.509374
    16  O   -0.451124
    17  N   -0.730084
    18  C    0.304558
    19  C    0.039463
    20  C    0.044496
    21  C    0.317759
    22  C   -0.380675
    23  C    0.183252
    24  O   -0.473446
    25  N   -0.683665
    26  C    0.307604
    27  C   -0.001561
    28  C    0.029078
    29  C    0.301397
    30  C    0.245630
    31  C   -0.257493
    32  C   -0.296888
    33  N   -0.661336
    34  C    0.262952
    35  C    0.013504
    36  C    0.005748
    37  C    0.248237
    38  C   -0.411431
    39  C    0.358261
    40  O   -0.417504
    41  C   -0.287966
    42  C    0.610850
    43  O   -0.460715
    44  O   -0.445711
    45  C   -0.090339
    46  C    0.004076
    47  C   -0.136418
    48  C    0.132643
    49  C   -0.348411
    50  C   -0.197845
    51  C   -0.163510
    52  C   -0.169300
    53  C   -0.035576
    54  C   -0.290203
    55  C   -0.179340
    56  C   -0.183708
    57  C   -0.172485
    58  C   -0.061252
    59  C   -0.314094
    60  C   -0.170893
    61  C   -0.194779
    62  C   -0.161203
    63  C   -0.039334
    64  C   -0.305638
    65  C   -0.309809
    66  H    0.087201
    67  H    0.155448
    68  H    0.097416
    69  H    0.139120
    70  H    0.113039
    71  H    0.117776
    72  H    0.107632
    73  H    0.116106
    74  H    0.110475
    75  H    0.124698
    76  H    0.111597
    77  H    0.133172
    78  H    0.098019
    79  H    0.168222
    80  H    0.088677
    81  H    0.091121
    82  H    0.104300
    83  H    0.120793
    84  H    0.091932
    85  H    0.122092
    86  H    0.101145
    87  H    0.134856
    88  H    0.131449
    89  H    0.124169
    90  H    0.185024
    91  H    0.120801
    92  H    0.122832
    93  H    0.076926
    94  H    0.135911
    95  H    0.106403
    96  H    0.114353
    97  H    0.098204
    98  H    0.098794
    99  H    0.060450
   100  H    0.089309
   101  H    0.089043
   102  H    0.084600
   103  H    0.066368
   104  H    0.116299
   105  H    0.081870
   106  H    0.077571
   107  H    0.089382
   108  H    0.073805
   109  H    0.094774
   110  H    0.095427
   111  H    0.084709
   112  H    0.098004
   113  H    0.072334
   114  H    0.106099
   115  H    0.097839
   116  H    0.102452
   117  H    0.097595
   118  H    0.076294
   119  H    0.069523
   120  H    0.092834
   121  H    0.095580
   122  H    0.089709
   123  H    0.102539
   124  H    0.078054
   125  H    0.091744
   126  H    0.099571
   127  H    0.104427
   128  H    0.081791
   129  H    0.093852
   130  H    0.141265
   131  H    0.150936
   132  H    0.127915
   133  O   -0.428865
   134  H    0.063820
 Sum of Mulliken charges =   0.00000

 Dipole moment (field-independent basis, Debye):
    X=              1.4619    Y=             -7.7189    Z=             -1.5022  Tot=              7.9984
 Quadrupole moment (field-independent basis, Debye-Ang):
   XX=           -387.5484   YY=           -444.0566   ZZ=           -395.6504
   XY=             18.8642   XZ=             28.5252   YZ=            -41.7151

 Normal termination of Gaussian 09 at Mon Oct  7 21:15:06 2019.
