 Gaussian 09, Revision D.01,
 Gaussian 09:  ES64L-G09RevD.01 24-Apr-2013

 ----------------------------------------------------------------------
 # td=(NStates=1) iop(3/107=0140000000,3/108=0140000000) iop(3/107=0140
 000000,3/108=0140000000) CAM-B3LYP/6-31G(d,p)
 ----------------------------------------------------------------------

 --
 TD
 --
 Symbolic Z-matrix:
 Charge =  0 Multiplicity = 1

                         Standard orientation:
 ---------------------------------------------------------------------
 Center     Atomic      Atomic             Coordinates (Angstroms)
 Number     Number       Type             X           Y           Z
 ---------------------------------------------------------------------
      1         12           0        5.655735    1.108782   -0.314403
      2          6           0        4.928841   -2.113015    0.371725
      3          6           0        3.368094    1.301448   -2.831111
      4          6           0        6.334116    4.482397   -0.745489
      5          6           0        7.964512    1.102777    2.393216
      6          7           0        4.318310   -0.239667   -1.135171
      7          6           0        4.240621   -1.565690   -0.653743
      8          6           0        3.212424   -2.255539   -1.502822
      9          6           0        2.807346   -1.266773   -2.653866
     10          6           0        3.495022   -0.017311   -2.234738
     11          6           0        3.324075   -1.809357   -4.015207
     12          6           0        1.991461   -2.742850   -0.659364
     13          6           0        0.936623   -3.446970   -1.500336
     14          6           0       -0.296109   -3.826457   -0.626397
     15          8           0       -0.624346   -3.270193    0.386550
     16          8           0       -1.130276   -4.758990   -1.261701
     17          7           0        5.044119    2.546352   -1.462467
     18          6           0        4.006241    2.512623   -2.463512
     19          6           0        3.793101    3.802573   -3.063195
     20          6           0        4.637007    4.617610   -2.494989
     21          6           0        5.418174    3.906079   -1.488544
     22          6           0        2.775143    3.897812   -4.127031
     23          6           0        4.578096    6.167597   -2.726606
     24          8           0        3.869273    6.670207   -3.571889
     25          7           0        6.947154    2.530103    0.614302
     26          6           0        7.126526    3.904142    0.319926
     27          6           0        8.051366    4.569209    1.206724
     28          6           0        8.570009    3.563306    2.035904
     29          6           0        7.782867    2.281336    1.607939
     30          6           0        8.453806    6.013292    1.159206
     31          6           0        9.457734    3.641349    3.164607
     32          6           0        8.722506    3.837949    4.586168
     33          7           0        6.354352   -0.194312    1.092280
     34          6           0        7.345979   -0.105475    2.052280
     35          6           0        7.567907   -1.376861    2.708394
     36          6           0        6.607580   -2.185014    2.057048
     37          6           0        5.951034   -1.399537    1.168995
     38          6           0        8.430554   -1.771253    3.844945
     39          6           0        6.122284   -3.571171    1.960299
     40          8           0        6.541265   -4.624788    2.529182
     41          6           0        4.996690   -3.593646    0.812616
     42          6           0        5.326789   -4.645615   -0.202447
     43          8           0        5.836855   -4.365131   -1.241534
     44          8           0        5.022391   -5.898727    0.296156
     45          6           0        5.538491   -6.970575   -0.465162
     46          6           0       -2.384621   -5.020327   -0.617421
     47          6           0       -3.399485   -4.066233   -0.979922
     48          6           0       -4.159500   -3.215281   -0.094747
     49          6           0       -3.748768   -3.034663    1.288263
     50          6           0       -5.164972   -2.314788   -0.658752
     51          6           0       -6.517773   -2.531438   -0.011558
     52          6           0       -7.665076   -1.681070   -0.567733
     53          6           0       -8.997422   -1.985373    0.170910
     54          6           0       -9.556295   -3.263097   -0.209434
     55          6           0      -10.046433   -0.807268   -0.283760
     56          6           0      -11.421241   -0.878749    0.242584
     57          6           0      -12.227508    0.305758   -0.243267
     58          6           0      -13.602326    0.390639    0.559445
     59          6           0      -14.607704   -0.692503    0.114250
     60          6           0      -14.202501    1.758872    0.237242
     61          6           0      -15.382349    2.200980    1.110420
     62          6           0      -15.923258    3.492127    0.700552
     63          6           0      -17.265408    3.826369    1.363175
     64          6           0      -17.127574    4.036887    2.886280
     65          6           0      -17.965038    5.057800    0.739990
     66          1           0        2.696131    1.291292   -3.461986
     67          1           0        6.638425    5.642997   -1.071007
     68          1           0        8.587973    1.086905    3.405760
     69          1           0        3.652756   -2.994812   -1.899532
     70          1           0        1.612575   -1.228344   -2.599967
     71          1           0        2.939111   -2.685652   -4.573644
     72          1           0        3.191765   -1.007655   -4.811123
     73          1           0        4.313541   -1.939345   -4.053168
     74          1           0        2.317446   -3.289430    0.090016
     75          1           0        1.517734   -1.937011   -0.179977
     76          1           0        0.525694   -2.705383   -2.266643
     77          1           0        1.352678   -4.364004   -2.004515
     78          1           0        1.747890    3.681400   -3.636872
     79          1           0        2.944866    4.800817   -4.660503
     80          1           0        3.005386    3.159803   -4.856000
     81          1           0        5.358849    6.631206   -2.155923
     82          1           0       10.166449    2.847878    3.324410
     83          1           0       10.184852    4.608070    3.225252
     84          1           0        9.416302    3.785162    5.348941
     85          1           0        8.037187    4.662974    4.765455
     86          1           0        8.200866    2.903922    4.629837
     87          1           0        8.197579   -1.208191    4.787938
     88          1           0        8.306173   -2.845580    4.132136
     89          1           0        9.630819   -1.589676    3.790489
     90          1           0        4.144032   -3.659516    1.530055
     91          1           0       -2.569923   -6.032735   -1.031372
     92          1           0       -2.282923   -5.051379    0.402338
     93          1           0       -3.584385   -3.907488   -1.984386
     94          1           0       -2.688379   -3.446145    1.650416
     95          1           0       -3.649778   -2.038572    1.536523
     96          1           0       -4.498773   -3.653925    1.817424
     97          1           0       -5.070762   -1.191885   -0.682360
     98          1           0       -5.089696   -2.562543   -1.818014
     99          1           0       -6.741365   -3.556176    0.048524
    100          1           0       -6.406452   -2.367881    1.191247
    101          1           0       -7.373165   -0.554903   -0.409547
    102          1           0       -7.782402   -1.792748   -1.767649
    103          1           0       -8.959387   -2.001389    1.179371
    104          1           0       -9.067382   -4.083384    0.364288
    105          1           0      -10.609691   -3.567899    0.129717
    106          1           0       -9.629985   -3.470531   -1.417579
    107          1           0       -9.503132    0.131574   -0.106791
    108          1           0      -10.120284   -0.878864   -1.336427
    109          1           0      -12.042423   -1.795220   -0.084329
    110          1           0      -11.379475   -0.980496    1.295974
    111          1           0      -11.627095    1.285940   -0.178207
    112          1           0      -12.483732    0.358877   -1.341970
    113          1           0      -13.265778    0.251777    1.709814
    114          1           0      -14.927716   -0.887537   -1.078144
    115          1           0      -13.999037   -1.754404    0.242976
    116          1           0      -15.432443   -0.715667    0.666313
    117          1           0      -13.378487    2.587941    0.194521
    118          1           0      -14.548340    1.656685   -0.724870
    119          1           0      -16.156939    1.483492    1.064145
    120          1           0      -15.106128    2.227826    2.054835
    121          1           0      -15.170435    4.262864    0.989296
    122          1           0      -16.170688    3.368170   -0.435212
    123          1           0      -17.774633    2.840261    1.376352
    124          1           0      -16.638371    4.841998    3.375057
    125          1           0      -18.143953    3.784727    3.579578
    126          1           0      -16.514272    3.237964    3.364845
    127          1           0      -17.898644    4.917533   -0.363095
    128          1           0      -18.984200    5.238918    1.257395
    129          1           0      -17.263193    5.928740    0.834119
    130          1           0        5.241108   -7.982384    0.054064
    131          1           0        6.593024   -6.875809   -0.678818
    132          1           0        5.103163   -7.026817   -1.380408
    133          8           0        7.999723    6.873143    0.509383
    134          1           0        9.064067    6.214580    2.029997
 ---------------------------------------------------------------------

 SCF Done:  E(RCAM-B3LYP) =  -3043.47212781     A.U. after   15 cycles

 Excitation energies and oscillator strengths:

 Excited State   1:      Singlet-A      2.0811 eV  595.76 nm  f=0.1717  <S**2>=0.000
     243 -> 246        0.25352
     244 -> 245        0.65116
 This state for optimization and/or second-order correction.
 Total Energy, E(TD-HF/TD-KS) =  -3043.39564844
 Copying the excited state density for this state as the 1-particle RhoCI density.

 The electronic state is 1-A.
 Alpha  occ. eigenvalues --  -46.80680 -19.22669 -19.21053 -19.18769 -19.18313
 Alpha  occ. eigenvalues --  -19.18051 -19.17711 -19.16644 -14.38500 -14.37481
 Alpha  occ. eigenvalues --  -14.36545 -14.36446 -10.35844 -10.35106 -10.31619
 Alpha  occ. eigenvalues --  -10.31518 -10.30470 -10.28656 -10.27013 -10.27013
 Alpha  occ. eigenvalues --  -10.26656 -10.26607 -10.26561 -10.25907 -10.25737
 Alpha  occ. eigenvalues --  -10.25724 -10.25721 -10.25641 -10.25271 -10.25256
 Alpha  occ. eigenvalues --  -10.25134 -10.24871 -10.24849 -10.24637 -10.24035
 Alpha  occ. eigenvalues --  -10.23818 -10.23713 -10.23286 -10.23233 -10.23203
 Alpha  occ. eigenvalues --  -10.23111 -10.22873 -10.22775 -10.22245 -10.21993
 Alpha  occ. eigenvalues --  -10.21976 -10.21879 -10.21872 -10.21788 -10.21668
 Alpha  occ. eigenvalues --  -10.21646 -10.21569 -10.21522 -10.21304 -10.21269
 Alpha  occ. eigenvalues --  -10.21248 -10.21161 -10.20963 -10.20803 -10.20723
 Alpha  occ. eigenvalues --  -10.20543 -10.20404 -10.20287 -10.19935 -10.19787
 Alpha  occ. eigenvalues --  -10.18184  -3.09434  -1.84356  -1.83915  -1.83855
 Alpha  occ. eigenvalues --   -1.13716  -1.12227  -1.10164  -1.08131  -1.06657
 Alpha  occ. eigenvalues --   -1.04661  -1.03789  -1.02282  -0.99226  -0.98404
 Alpha  occ. eigenvalues --   -0.97500  -0.87900  -0.86218  -0.85774  -0.85650
 Alpha  occ. eigenvalues --   -0.85324  -0.84694  -0.84662  -0.84090  -0.83164
 Alpha  occ. eigenvalues --   -0.83129  -0.82903  -0.81400  -0.80365  -0.79658
 Alpha  occ. eigenvalues --   -0.79133  -0.78625  -0.77426  -0.77144  -0.76728
 Alpha  occ. eigenvalues --   -0.75754  -0.75149  -0.74229  -0.72910  -0.72348
 Alpha  occ. eigenvalues --   -0.71095  -0.70365  -0.70002  -0.69877  -0.69527
 Alpha  occ. eigenvalues --   -0.69154  -0.68830  -0.67794  -0.66866  -0.66318
 Alpha  occ. eigenvalues --   -0.66231  -0.64323  -0.64014  -0.62694  -0.62218
 Alpha  occ. eigenvalues --   -0.61917  -0.60966  -0.60340  -0.59575  -0.59256
 Alpha  occ. eigenvalues --   -0.58921  -0.58810  -0.58232  -0.57633  -0.57379
 Alpha  occ. eigenvalues --   -0.56673  -0.56262  -0.55838  -0.55697  -0.55078
 Alpha  occ. eigenvalues --   -0.53751  -0.53218  -0.53186  -0.52783  -0.52069
 Alpha  occ. eigenvalues --   -0.51938  -0.51261  -0.51245  -0.50786  -0.50665
 Alpha  occ. eigenvalues --   -0.50276  -0.49757  -0.49258  -0.49108  -0.48671
 Alpha  occ. eigenvalues --   -0.48568  -0.48214  -0.48071  -0.47991  -0.47769
 Alpha  occ. eigenvalues --   -0.47760  -0.47598  -0.47226  -0.47019  -0.46792
 Alpha  occ. eigenvalues --   -0.46527  -0.46309  -0.46131  -0.45977  -0.45697
 Alpha  occ. eigenvalues --   -0.45564  -0.45352  -0.45212  -0.45010  -0.44839
 Alpha  occ. eigenvalues --   -0.44428  -0.44318  -0.44297  -0.44019  -0.43784
 Alpha  occ. eigenvalues --   -0.43443  -0.43287  -0.43086  -0.42862  -0.42807
 Alpha  occ. eigenvalues --   -0.42738  -0.42450  -0.42438  -0.42339  -0.42232
 Alpha  occ. eigenvalues --   -0.42125  -0.41938  -0.41465  -0.41144  -0.41043
 Alpha  occ. eigenvalues --   -0.40981  -0.40804  -0.40489  -0.40138  -0.40089
 Alpha  occ. eigenvalues --   -0.39981  -0.39487  -0.39435  -0.39378  -0.39190
 Alpha  occ. eigenvalues --   -0.38849  -0.38717  -0.38613  -0.38520  -0.38421
 Alpha  occ. eigenvalues --   -0.38051  -0.37990  -0.37588  -0.37542  -0.37083
 Alpha  occ. eigenvalues --   -0.36770  -0.36407  -0.36141  -0.35906  -0.35835
 Alpha  occ. eigenvalues --   -0.35580  -0.35259  -0.35220  -0.34807  -0.34739
 Alpha  occ. eigenvalues --   -0.34642  -0.33852  -0.33768  -0.33563  -0.33273
 Alpha  occ. eigenvalues --   -0.32916  -0.32759  -0.32547  -0.32083  -0.31872
 Alpha  occ. eigenvalues --   -0.31445  -0.31177  -0.30557  -0.30016  -0.29488
 Alpha  occ. eigenvalues --   -0.29271  -0.28525  -0.28268  -0.28107  -0.27740
 Alpha  occ. eigenvalues --   -0.27272  -0.25027  -0.22928  -0.21448
 Alpha virt. eigenvalues --   -0.08161  -0.06120  -0.01596  -0.00892   0.00376
 Alpha virt. eigenvalues --    0.01987   0.03080   0.03482   0.03850   0.04710
 Alpha virt. eigenvalues --    0.05083   0.05561   0.07637   0.08713   0.09294

 Mulliken charges:
               1
     1  Mg   0.824594
     2  C    0.054805
     3  C   -0.150785
     4  C   -0.236910
     5  C   -0.151977
     6  N   -0.661724
     7  C    0.294981
     8  C   -0.126037
     9  C   -0.162919
    10  C    0.330306
    11  C   -0.330025
    12  C   -0.172739
    13  C   -0.265574
    14  C    0.591728
    15  O   -0.442369
    16  O   -0.486177
    17  N   -0.727728
    18  C    0.294069
    19  C    0.096258
    20  C   -0.103202
    21  C    0.385601
    22  C   -0.369460
    23  C    0.296309
    24  O   -0.401705
    25  N   -0.650470
    26  C    0.239538
    27  C   -0.020685
    28  C    0.052509
    29  C    0.303572
    30  C    0.272776
    31  C   -0.304141
    32  C   -0.317407
    33  N   -0.713514
    34  C    0.224021
    35  C    0.067946
    36  C    0.036545
    37  C    0.343689
    38  C   -0.411265
    39  C    0.320569
    40  O   -0.487055
    41  C   -0.301595
    42  C    0.647498
    43  O   -0.453975
    44  O   -0.447119
    45  C   -0.090694
    46  C    0.020092
    47  C   -0.126866
    48  C    0.126245
    49  C   -0.364680
    50  C   -0.216773
    51  C   -0.177499
    52  C   -0.154392
    53  C   -0.051410
    54  C   -0.293595
    55  C   -0.178166
    56  C   -0.168660
    57  C   -0.173240
    58  C   -0.052776
    59  C   -0.296809
    60  C   -0.162602
    61  C   -0.173494
    62  C   -0.159115
    63  C   -0.038115
    64  C   -0.326462
    65  C   -0.300250
    66  H    0.034496
    67  H    0.120610
    68  H    0.107077
    69  H    0.116083
    70  H    0.096179
    71  H    0.119141
    72  H    0.097416
    73  H    0.142309
    74  H    0.116126
    75  H    0.127310
    76  H    0.134078
    77  H    0.127138
    78  H    0.124402
    79  H    0.150782
    80  H    0.128327
    81  H    0.090038
    82  H    0.124348
    83  H    0.096747
    84  H    0.118243
    85  H    0.124313
    86  H    0.108285
    87  H    0.126482
    88  H    0.156342
    89  H    0.107396
    90  H    0.171042
    91  H    0.109406
    92  H    0.113961
    93  H    0.074308
    94  H    0.125864
    95  H    0.128348
    96  H    0.112758
    97  H    0.099555
    98  H    0.079014
    99  H    0.110733
   100  H    0.070872
   101  H    0.076944
   102  H    0.079285
   103  H    0.092438
   104  H    0.092342
   105  H    0.092568
   106  H    0.076739
   107  H    0.083422
   108  H    0.093630
   109  H    0.089332
   110  H    0.093987
   111  H    0.076489
   112  H    0.087951
   113  H    0.066913
   114  H    0.079803
   115  H    0.069092
   116  H    0.124380
   117  H    0.066338
   118  H    0.098741
   119  H    0.086207
   120  H    0.104502
   121  H    0.086603
   122  H    0.072712
   123  H    0.086082
   124  H    0.110620
   125  H    0.062608
   126  H    0.092234
   127  H    0.095506
   128  H    0.102946
   129  H    0.102212
   130  H    0.114646
   131  H    0.132988
   132  H    0.128604
   133  O   -0.385625
   134  H    0.055737
 Sum of Mulliken charges =   0.00000

 Dipole moment (field-independent basis, Debye):
    X=             -0.8522    Y=             -2.9440    Z=              0.7434  Tot=              3.1538
 Quadrupole moment (field-independent basis, Debye-Ang):
   XX=           -385.7512   YY=           -437.1250   ZZ=           -385.3869
   XY=              6.7179   XZ=             16.4526   YZ=             28.4996

 Normal termination of Gaussian 09 at Sat Oct  5 11:25:06 2019.
