 Gaussian 09, Revision D.01,
 Gaussian 09:  ES64L-G09RevD.01 24-Apr-2013

 ----------------------------------------------------------------------
 # td=(NStates=1) iop(3/107=0140000000,3/108=0140000000) iop(3/107=0140
 000000,3/108=0140000000) CAM-B3LYP/6-31G(d,p)
 ----------------------------------------------------------------------

 --
 TD
 --
 Symbolic Z-matrix:
 Charge =  0 Multiplicity = 1

                         Standard orientation:
 ---------------------------------------------------------------------
 Center     Atomic      Atomic             Coordinates (Angstroms)
 Number     Number       Type             X           Y           Z
 ---------------------------------------------------------------------
      1         12           0       -5.581087    1.218614    0.231407
      2          6           0       -4.998246   -2.107234   -0.346562
      3          6           0       -3.348267    1.040968    2.838687
      4          6           0       -5.990848    4.585502    0.643183
      5          6           0       -8.026717    1.221707   -2.185000
      6          7           0       -4.320518   -0.347001    0.932215
      7          6           0       -4.273533   -1.639725    0.597329
      8          6           0       -3.231923   -2.343425    1.447388
      9          6           0       -2.931699   -1.463922    2.620823
     10          6           0       -3.525192   -0.085496    2.041861
     11          6           0       -3.409906   -1.914887    4.004442
     12          6           0       -1.901333   -2.767930    0.531452
     13          6           0       -0.968050   -3.580678    1.415188
     14          6           0        0.269669   -3.925167    0.492782
     15          8           0        0.359145   -3.571774   -0.598932
     16          8           0        1.058409   -4.830395    1.236277
     17          7           0       -4.756321    2.620164    1.490039
     18          6           0       -3.872552    2.426707    2.484947
     19          6           0       -3.590405    3.616739    3.219843
     20          6           0       -4.342286    4.533935    2.584409
     21          6           0       -5.133274    4.045021    1.484705
     22          6           0       -2.707352    3.829847    4.346203
     23          6           0       -4.497855    5.991346    2.974862
     24          8           0       -3.815198    6.670181    3.818722
     25          7           0       -6.838892    2.677555   -0.668420
     26          6           0       -6.804806    3.967029   -0.336186
     27          6           0       -7.764587    4.763514   -1.195722
     28          6           0       -8.379674    3.731784   -2.007486
     29          6           0       -7.781271    2.463704   -1.671039
     30          6           0       -7.970651    6.119346   -1.275432
     31          6           0       -9.423254    3.959478   -3.009126
     32          6           0       -8.941586    4.010251   -4.478050
     33          7           0       -6.415956   -0.077784   -1.071923
     34          6           0       -7.449025    0.009802   -2.000366
     35          6           0       -7.647682   -1.297868   -2.607336
     36          6           0       -6.790704   -2.178785   -2.024272
     37          6           0       -5.996299   -1.310371   -1.164684
     38          6           0       -8.668736   -1.483270   -3.754393
     39          6           0       -6.353678   -3.531802   -1.976394
     40          8           0       -6.849006   -4.496265   -2.605892
     41          6           0       -5.245082   -3.661688   -0.876032
     42          6           0       -5.466630   -4.610432    0.201764
     43          8           0       -5.867004   -4.393549    1.312654
     44          8           0       -5.187032   -5.946776   -0.255621
     45          6           0       -5.422912   -7.022000    0.630957
     46          6           0        2.347946   -5.127328    0.568727
     47          6           0        3.405304   -4.003063    0.839736
     48          6           0        3.978857   -3.137801   -0.058548
     49          6           0        3.618910   -3.002039   -1.437323
     50          6           0        5.053009   -2.208399    0.490157
     51          6           0        6.510906   -2.649958   -0.051739
     52          6           0        7.536559   -1.741182    0.630586
     53          6           0        8.892689   -1.989577   -0.087361
     54          6           0        9.503685   -3.425592    0.198846
     55          6           0        9.809344   -0.912426    0.460086
     56          6           0       11.206085   -0.883529   -0.219224
     57          6           0       12.100556    0.402509    0.152497
     58          6           0       13.506406    0.401159   -0.609676
     59          6           0       14.333537   -0.855425   -0.325409
     60          6           0       14.259197    1.731639   -0.165275
     61          6           0       15.610912    2.035619   -0.906437
     62          6           0       16.165802    3.398676   -0.516681
     63          6           0       17.424281    3.803122   -1.278731
     64          6           0       17.202460    3.887813   -2.870802
     65          6           0       17.828414    5.174305   -0.884038
     66          1           0       -2.630293    0.951495    3.729497
     67          1           0       -6.208200    5.694820    0.736323
     68          1           0       -8.658833    1.187354   -3.048072
     69          1           0       -3.582149   -3.281735    1.816564
     70          1           0       -1.919579   -1.268672    2.676761
     71          1           0       -2.557846   -2.791426    4.149606
     72          1           0       -3.065567   -0.987501    4.686847
     73          1           0       -4.344793   -2.145905    4.033527
     74          1           0       -2.332704   -3.270705   -0.333284
     75          1           0       -1.491657   -1.957230    0.093859
     76          1           0       -0.636386   -2.992680    2.260716
     77          1           0       -1.159817   -4.618811    1.947687
     78          1           0       -1.667035    3.842426    4.002198
     79          1           0       -2.566428    4.917790    4.645721
     80          1           0       -2.789250    3.099314    5.159145
     81          1           0       -5.416240    6.400905    2.351536
     82          1           0      -10.282245    3.267982   -2.918968
     83          1           0       -9.934311    4.843890   -2.660243
     84          1           0       -9.639294    4.612106   -5.173336
     85          1           0       -8.101952    4.849049   -4.336437
     86          1           0       -8.428436    3.062779   -4.924363
     87          1           0       -8.259198   -0.904175   -4.484225
     88          1           0       -8.581690   -2.517733   -4.300210
     89          1           0       -9.615702   -1.143289   -3.524260
     90          1           0       -4.406178   -4.107431   -1.471869
     91          1           0        2.667519   -6.083933    1.125718
     92          1           0        2.012262   -5.343520   -0.561435
     93          1           0        3.740366   -3.693077    1.966503
     94          1           0        2.625071   -3.541932   -1.573593
     95          1           0        3.441939   -1.853019   -1.809286
     96          1           0        4.396374   -3.421498   -2.108178
     97          1           0        4.835023   -1.327748    0.088957
     98          1           0        5.068943   -2.259874    1.513332
     99          1           0        6.686528   -3.840483   -0.107333
    100          1           0        6.255346   -2.289242   -1.019208
    101          1           0        7.205879   -0.570967    0.369144
    102          1           0        7.462739   -1.879690    1.571942
    103          1           0        8.617823   -2.058782   -1.135627
    104          1           0        8.819874   -3.999282   -0.409328
    105          1           0       10.367941   -3.385244   -0.304391
    106          1           0        9.573950   -3.792368    1.211181
    107          1           0        9.292502   -0.089604    0.264097
    108          1           0       10.082960   -1.429738    1.402103
    109          1           0       11.783164   -1.697207    0.021644
    110          1           0       11.061279   -0.776113   -1.259433
    111          1           0       11.433707    1.227750   -0.148169
    112          1           0       12.256425    0.340670    1.284142
    113          1           0       13.223623    0.461341   -1.616053
    114          1           0       14.627798   -0.908394    0.817348
    115          1           0       13.998121   -1.769090   -0.736818
    116          1           0       15.207396   -0.830778   -0.743668
    117          1           0       13.404721    2.489471   -0.550770
    118          1           0       14.368486    1.711494    0.935681
    119          1           0       16.459064    1.136139   -0.570445
    120          1           0       15.492759    2.019379   -1.974583
    121          1           0       15.332505    4.207474   -0.777883
    122          1           0       16.318592    3.552626    0.702331
    123          1           0       18.386036    2.996190   -1.207608
    124          1           0       16.411463    4.704829   -3.013460
    125          1           0       18.175934    3.725804   -3.398115
    126          1           0       16.669619    2.991702   -3.070151
    127          1           0       17.758211    5.054343    0.285221
    128          1           0       18.969090    5.128292   -1.195588
    129          1           0       17.069268    5.938411   -1.183795
    130          1           0       -5.086283   -7.931379   -0.035137
    131          1           0       -6.427345   -7.133949    0.865812
    132          1           0       -4.831869   -6.993612    1.490448
    133          8           0       -7.357529    6.989246   -0.593987
    134          1           0       -8.629536    6.629596   -2.069081
 ---------------------------------------------------------------------

 SCF Done:  E(RCAM-B3LYP) =  -3043.40370947     A.U. after   15 cycles

 Excitation energies and oscillator strengths:

 Excited State   1:      Singlet-A      2.2013 eV  563.24 nm  f=0.1189  <S**2>=0.000
     243 -> 245        0.41756
     243 -> 246       -0.24335
     244 -> 245        0.44660
     244 -> 246        0.22620
 This state for optimization and/or second-order correction.
 Total Energy, E(TD-HF/TD-KS) =  -3043.32281404
 Copying the excited state density for this state as the 1-particle RhoCI density.

 The electronic state is 1-A.
 Alpha  occ. eigenvalues --  -46.82336 -19.21429 -19.20971 -19.19092 -19.18183
 Alpha  occ. eigenvalues --  -19.18122 -19.17201 -19.15775 -14.37998 -14.37914
 Alpha  occ. eigenvalues --  -14.37527 -14.37396 -10.35405 -10.34938 -10.32091
 Alpha  occ. eigenvalues --  -10.31749 -10.29723 -10.29537 -10.28228 -10.27664
 Alpha  occ. eigenvalues --  -10.27527 -10.27236 -10.26744 -10.26373 -10.26328
 Alpha  occ. eigenvalues --  -10.26246 -10.26125 -10.26075 -10.25848 -10.25465
 Alpha  occ. eigenvalues --  -10.24695 -10.24639 -10.24613 -10.24258 -10.24112
 Alpha  occ. eigenvalues --  -10.24024 -10.23839 -10.23834 -10.23526 -10.23495
 Alpha  occ. eigenvalues --  -10.23330 -10.22919 -10.22917 -10.22900 -10.22843
 Alpha  occ. eigenvalues --  -10.22826 -10.22715 -10.22710 -10.22680 -10.22624
 Alpha  occ. eigenvalues --  -10.22615 -10.22335 -10.22224 -10.22211 -10.21941
 Alpha  occ. eigenvalues --  -10.21600 -10.21212 -10.21212 -10.21102 -10.21007
 Alpha  occ. eigenvalues --  -10.20656 -10.19863 -10.19472 -10.19131 -10.19124
 Alpha  occ. eigenvalues --  -10.18887  -3.10784  -1.85738  -1.85237  -1.85201
 Alpha  occ. eigenvalues --   -1.14196  -1.11939  -1.05883  -1.05270  -1.04697
 Alpha  occ. eigenvalues --   -1.03760  -1.03702  -1.01912  -1.00044  -0.99676
 Alpha  occ. eigenvalues --   -0.98944  -0.87815  -0.86317  -0.86276  -0.85259
 Alpha  occ. eigenvalues --   -0.84920  -0.84841  -0.84673  -0.84277  -0.84173
 Alpha  occ. eigenvalues --   -0.83988  -0.82597  -0.81843  -0.80182  -0.79497
 Alpha  occ. eigenvalues --   -0.79149  -0.77970  -0.77407  -0.77300  -0.75998
 Alpha  occ. eigenvalues --   -0.75674  -0.75131  -0.73968  -0.73242  -0.72690
 Alpha  occ. eigenvalues --   -0.72035  -0.71238  -0.70477  -0.70431  -0.70000
 Alpha  occ. eigenvalues --   -0.69586  -0.68687  -0.67493  -0.66867  -0.66727
 Alpha  occ. eigenvalues --   -0.65886  -0.65200  -0.64455  -0.62503  -0.62142
 Alpha  occ. eigenvalues --   -0.61807  -0.61107  -0.60248  -0.58950  -0.58918
 Alpha  occ. eigenvalues --   -0.58384  -0.58231  -0.57681  -0.56814  -0.56606
 Alpha  occ. eigenvalues --   -0.55957  -0.55891  -0.55362  -0.54893  -0.54025
 Alpha  occ. eigenvalues --   -0.53783  -0.53425  -0.53115  -0.52559  -0.52462
 Alpha  occ. eigenvalues --   -0.52042  -0.51774  -0.51596  -0.51217  -0.50492
 Alpha  occ. eigenvalues --   -0.50070  -0.49894  -0.49721  -0.49319  -0.49204
 Alpha  occ. eigenvalues --   -0.48884  -0.48733  -0.48474  -0.48134  -0.47939
 Alpha  occ. eigenvalues --   -0.47644  -0.47592  -0.47291  -0.47013  -0.46924
 Alpha  occ. eigenvalues --   -0.46723  -0.46351  -0.46227  -0.46030  -0.45945
 Alpha  occ. eigenvalues --   -0.45851  -0.45568  -0.45546  -0.45073  -0.44931
 Alpha  occ. eigenvalues --   -0.44798  -0.44614  -0.44569  -0.44420  -0.44128
 Alpha  occ. eigenvalues --   -0.43764  -0.43639  -0.43367  -0.43273  -0.43019
 Alpha  occ. eigenvalues --   -0.42777  -0.42672  -0.42381  -0.42011  -0.41933
 Alpha  occ. eigenvalues --   -0.41554  -0.41487  -0.41262  -0.41122  -0.40923
 Alpha  occ. eigenvalues --   -0.40579  -0.40454  -0.40385  -0.40268  -0.40082
 Alpha  occ. eigenvalues --   -0.39846  -0.39707  -0.39402  -0.39386  -0.39214
 Alpha  occ. eigenvalues --   -0.39035  -0.38926  -0.38363  -0.37991  -0.37894
 Alpha  occ. eigenvalues --   -0.37758  -0.37404  -0.37299  -0.37283  -0.37041
 Alpha  occ. eigenvalues --   -0.36694  -0.36416  -0.36393  -0.36044  -0.35803
 Alpha  occ. eigenvalues --   -0.35674  -0.35245  -0.35082  -0.34864  -0.34621
 Alpha  occ. eigenvalues --   -0.34490  -0.33710  -0.33597  -0.33445  -0.32775
 Alpha  occ. eigenvalues --   -0.32619  -0.32224  -0.31915  -0.31820  -0.31773
 Alpha  occ. eigenvalues --   -0.31343  -0.31046  -0.30943  -0.30489  -0.29754
 Alpha  occ. eigenvalues --   -0.29703  -0.28658  -0.28337  -0.28068  -0.27770
 Alpha  occ. eigenvalues --   -0.27071  -0.26127  -0.23323  -0.22919
 Alpha virt. eigenvalues --   -0.08941  -0.07256  -0.01748  -0.01554   0.00123
 Alpha virt. eigenvalues --    0.02139   0.03205   0.03300   0.03990   0.04599
 Alpha virt. eigenvalues --    0.04878   0.05759   0.07598   0.08551   0.09304

 Mulliken charges:
               1
     1  Mg   0.826300
     2  C    0.001153
     3  C   -0.203737
     4  C   -0.191825
     5  C   -0.187242
     6  N   -0.667240
     7  C    0.361016
     8  C   -0.170674
     9  C   -0.140413
    10  C    0.324109
    11  C   -0.260939
    12  C   -0.173326
    13  C   -0.282662
    14  C    0.607765
    15  O   -0.403483
    16  O   -0.496058
    17  N   -0.718304
    18  C    0.302831
    19  C    0.106268
    20  C   -0.044977
    21  C    0.337455
    22  C   -0.424661
    23  C    0.260475
    24  O   -0.442168
    25  N   -0.703560
    26  C    0.316264
    27  C    0.038693
    28  C    0.029470
    29  C    0.311105
    30  C    0.171319
    31  C   -0.259805
    32  C   -0.306349
    33  N   -0.701239
    34  C    0.285899
    35  C   -0.004483
    36  C    0.082535
    37  C    0.289187
    38  C   -0.375095
    39  C    0.337291
    40  O   -0.467874
    41  C   -0.289098
    42  C    0.636053
    43  O   -0.451669
    44  O   -0.483154
    45  C   -0.073939
    46  C   -0.015414
    47  C   -0.141417
    48  C    0.152905
    49  C   -0.378984
    50  C   -0.230210
    51  C   -0.197384
    52  C   -0.137024
    53  C   -0.084916
    54  C   -0.329110
    55  C   -0.132035
    56  C   -0.207975
    57  C   -0.180811
    58  C   -0.061712
    59  C   -0.306346
    60  C   -0.160144
    61  C   -0.155869
    62  C   -0.145182
    63  C   -0.052662
    64  C   -0.313119
    65  C   -0.265236
    66  H    0.086638
    67  H    0.155615
    68  H    0.083453
    69  H    0.112096
    70  H    0.110089
    71  H    0.088649
    72  H    0.090787
    73  H    0.138488
    74  H    0.115255
    75  H    0.130970
    76  H    0.135287
    77  H    0.132910
    78  H    0.137122
    79  H    0.165505
    80  H    0.127868
    81  H    0.082224
    82  H    0.111313
    83  H    0.118379
    84  H    0.116590
    85  H    0.097262
    86  H    0.114550
    87  H    0.143170
    88  H    0.138981
    89  H    0.137567
    90  H    0.165812
    91  H    0.117841
    92  H    0.118769
    93  H    0.071284
    94  H    0.133173
    95  H    0.094167
    96  H    0.121271
    97  H    0.107109
    98  H    0.092491
    99  H    0.091657
   100  H    0.106921
   101  H    0.055339
   102  H    0.105073
   103  H    0.082066
   104  H    0.096521
   105  H    0.119437
   106  H    0.104312
   107  H    0.085611
   108  H    0.096958
   109  H    0.104326
   110  H    0.085433
   111  H    0.083975
   112  H    0.076036
   113  H    0.087396
   114  H    0.078274
   115  H    0.102260
   116  H    0.113486
   117  H    0.069076
   118  H    0.095743
   119  H    0.056768
   120  H    0.104566
   121  H    0.071244
   122  H    0.069462
   123  H    0.051183
   124  H    0.095873
   125  H    0.109367
   126  H    0.101187
   127  H    0.074515
   128  H    0.093468
   129  H    0.105105
   130  H    0.109900
   131  H    0.131861
   132  H    0.122624
   133  O   -0.457984
   134  H    0.069708
 Sum of Mulliken charges =   0.00000

 Dipole moment (field-independent basis, Debye):
    X=              2.1342    Y=             -4.4157    Z=             -1.7011  Tot=              5.1910
 Quadrupole moment (field-independent basis, Debye-Ang):
   XX=           -380.6199   YY=           -459.8907   ZZ=           -391.9500
   XY=             -7.5459   XZ=             15.1930   YZ=            -31.6434

 Normal termination of Gaussian 09 at Wed Oct  9 12:02:32 2019.
