 Gaussian 09, Revision D.01,
 Gaussian 09:  ES64L-G09RevD.01 24-Apr-2013

 ----------------------------------------------------------------------
 # td=(NStates=1) iop(3/107=0140000000,3/108=0140000000) iop(3/107=0140
 000000,3/108=0140000000) CAM-B3LYP/6-31G(d,p)
 ----------------------------------------------------------------------

 --
 TD
 --
 Symbolic Z-matrix:
 Charge =  0 Multiplicity = 1

                         Standard orientation:
 ---------------------------------------------------------------------
 Center     Atomic      Atomic             Coordinates (Angstroms)
 Number     Number       Type             X           Y           Z
 ---------------------------------------------------------------------
      1         12           0       -5.787808    1.185230    0.248935
      2          6           0       -5.059444   -2.134915   -0.427424
      3          6           0       -3.341932    1.198783    2.702576
      4          6           0       -6.287170    4.558770    0.667189
      5          6           0       -7.866866    1.163340   -2.540150
      6          7           0       -4.452875   -0.247633    1.151824
      7          6           0       -4.260122   -1.592096    0.577230
      8          6           0       -3.232304   -2.410276    1.458635
      9          6           0       -2.912119   -1.293067    2.662129
     10          6           0       -3.588353   -0.092943    2.116009
     11          6           0       -3.614316   -1.759602    3.991378
     12          6           0       -1.884088   -2.664135    0.695863
     13          6           0       -0.979309   -3.521933    1.548033
     14          6           0        0.316952   -3.874546    0.693013
     15          8           0        0.398076   -3.389724   -0.482244
     16          8           0        1.009476   -4.597092    1.305611
     17          7           0       -4.997866    2.681848    1.499348
     18          6           0       -4.017585    2.380255    2.412932
     19          6           0       -3.742171    3.617721    3.211163
     20          6           0       -4.421325    4.656166    2.505057
     21          6           0       -5.248411    3.993097    1.527318
     22          6           0       -2.774539    3.823898    4.400133
     23          6           0       -4.653638    5.980649    2.979591
     24          8           0       -4.093684    6.662875    3.875786
     25          7           0       -6.821428    2.550486   -0.721264
     26          6           0       -6.914537    3.924114   -0.362739
     27          6           0       -7.934105    4.572452   -1.157608
     28          6           0       -8.356565    3.701158   -2.130761
     29          6           0       -7.706768    2.412419   -1.863123
     30          6           0       -8.369384    5.973399   -1.238027
     31          6           0       -9.455667    3.843115   -3.150862
     32          6           0       -8.772649    3.891207   -4.536828
     33          7           0       -6.388281   -0.119455   -1.139353
     34          6           0       -7.327937   -0.019075   -2.156803
     35          6           0       -7.649576   -1.372179   -2.617284
     36          6           0       -6.648446   -2.266795   -2.084327
     37          6           0       -5.958878   -1.408996   -1.170099
     38          6           0       -8.567362   -1.545370   -3.725725
     39          6           0       -6.284221   -3.589424   -2.016478
     40          8           0       -6.608047   -4.529920   -2.663319
     41          6           0       -4.985997   -3.486830   -0.921748
     42          6           0       -5.170683   -4.616342    0.018943
     43          8           0       -5.803525   -4.533905    1.150719
     44          8           0       -4.905305   -5.813708   -0.522255
     45          6           0       -5.366494   -6.887806    0.326336
     46          6           0        2.201427   -5.014714    0.696612
     47          6           0        3.346909   -4.064770    1.155037
     48          6           0        3.999657   -3.295473    0.288189
     49          6           0        3.866053   -3.215526   -1.276534
     50          6           0        5.182521   -2.452578    0.738522
     51          6           0        6.559880   -2.808148    0.070492
     52          6           0        7.639939   -1.841412    0.711155
     53          6           0        8.992004   -1.994247   -0.021880
     54          6           0        9.675534   -3.416126    0.250480
     55          6           0        9.961298   -0.910575    0.407707
     56          6           0       11.360450   -0.828320   -0.273383
     57          6           0       12.260388    0.341348    0.109853
     58          6           0       13.612883    0.421499   -0.687511
     59          6           0       14.442589   -0.742670   -0.472022
     60          6           0       14.411657    1.645150   -0.169793
     61          6           0       15.645961    2.076579   -1.022799
     62          6           0       15.990831    3.477322   -0.646512
     63          6           0       17.303268    4.000490   -1.420002
     64          6           0       17.160062    4.113363   -2.889331
     65          6           0       17.898846    5.333590   -0.851207
     66          1           0       -2.624662    1.203484    3.619298
     67          1           0       -6.388203    5.673575    0.780893
     68          1           0       -8.769494    1.302234   -3.303800
     69          1           0       -3.808617   -3.382699    1.944306
     70          1           0       -1.907207   -0.997050    2.827973
     71          1           0       -3.054577   -2.705494    4.253277
     72          1           0       -3.673238   -0.938549    4.728772
     73          1           0       -4.471384   -2.091993    3.699288
     74          1           0       -2.127679   -3.335080   -0.247252
     75          1           0       -1.462103   -1.878069    0.416196
     76          1           0       -0.547489   -3.137181    2.522080
     77          1           0       -1.400478   -4.470765    1.679136
     78          1           0       -1.652155    3.669727    4.064964
     79          1           0       -2.782065    4.847977    4.681337
     80          1           0       -3.085633    2.952210    5.112933
     81          1           0       -5.105111    6.634974    2.248373
     82          1           0      -10.167249    3.104292   -3.026759
     83          1           0       -9.939292    4.779029   -3.052278
     84          1           0       -9.467277    3.840508   -5.256646
     85          1           0       -8.050734    4.722269   -4.724529
     86          1           0       -8.274284    3.020537   -4.569607
     87          1           0       -8.030983   -1.123170   -4.530711
     88          1           0       -8.595329   -2.582464   -3.830211
     89          1           0       -9.629480   -1.263688   -3.301916
     90          1           0       -4.095805   -3.721103   -1.582044
     91          1           0        2.308479   -6.015801    1.272785
     92          1           0        2.167522   -5.071730   -0.274198
     93          1           0        3.437675   -3.997573    2.225472
     94          1           0        2.715440   -3.257102   -1.218736
     95          1           0        4.273339   -2.049581   -1.427632
     96          1           0        4.388279   -4.042714   -2.005228
     97          1           0        4.863161   -1.448954    0.582309
     98          1           0        5.465310   -2.325905    1.818657
     99          1           0        6.866281   -3.736862    0.451498
    100          1           0        6.618864   -2.811418   -1.006007
    101          1           0        7.410871   -0.704953    0.674587
    102          1           0        8.000221   -1.952921    1.907212
    103          1           0        8.743719   -1.873426   -0.982656
    104          1           0        8.847934   -3.998058    0.082957
    105          1           0       10.679590   -3.540516   -0.048545
    106          1           0        9.853734   -3.381252    1.326492
    107          1           0        9.426989    0.029052    0.238703
    108          1           0        9.886904   -0.955517    1.614753
    109          1           0       11.822644   -1.936612    0.008564
    110          1           0       11.238126   -0.854032   -1.464453
    111          1           0       11.567122    1.198604   -0.084769
    112          1           0       12.285000    0.139186    1.187358
    113          1           0       13.343201    0.501926   -1.768122
    114          1           0       14.661548   -0.979533    0.725831
    115          1           0       14.040093   -1.693660   -0.882782
    116          1           0       15.424281   -0.685181   -1.001652
    117          1           0       13.718757    2.663772    0.042322
    118          1           0       14.998512    1.417689    0.780510
    119          1           0       16.421599    1.199902   -0.846901
    120          1           0       15.188041    2.232300   -2.061013
    121          1           0       15.281772    4.230427   -0.886743
    122          1           0       16.021068    3.672326    0.373933
    123          1           0       18.126686    3.379777   -1.370547
    124          1           0       16.438910    4.879778   -3.101617
    125          1           0       18.099804    4.187978   -3.380608
    126          1           0       16.960196    3.195486   -3.388141
    127          1           0       18.277595    5.039340    0.285084
    128          1           0       18.707157    5.717438   -1.674550
    129          1           0       17.196003    6.046521   -0.757958
    130          1           0       -5.271926   -7.953433   -0.165699
    131          1           0       -6.387398   -6.817165    0.571380
    132          1           0       -4.774722   -7.030005    1.256119
    133          8           0       -7.976811    6.819095   -0.408014
    134          1           0       -9.169324    6.164482   -1.896116
 ---------------------------------------------------------------------

 SCF Done:  E(RCAM-B3LYP) =  -3043.38308061     A.U. after   16 cycles

 Excitation energies and oscillator strengths:

 Excited State   1:      Singlet-A      1.8701 eV  662.99 nm  f=0.2407  <S**2>=0.000
     243 -> 246       -0.19884
     244 -> 245        0.67016
 This state for optimization and/or second-order correction.
 Total Energy, E(TD-HF/TD-KS) =  -3043.31435644
 Copying the excited state density for this state as the 1-particle RhoCI density.

 The electronic state is 1-A.
 Alpha  occ. eigenvalues --  -46.81119 -19.26191 -19.23833 -19.18127 -19.16775
 Alpha  occ. eigenvalues --  -19.15893 -19.15731 -19.15429 -14.39619 -14.36924
 Alpha  occ. eigenvalues --  -14.36833 -14.36808 -10.35171 -10.34486 -10.31657
 Alpha  occ. eigenvalues --  -10.29964 -10.28758 -10.28669 -10.28129 -10.27525
 Alpha  occ. eigenvalues --  -10.27495 -10.27018 -10.26819 -10.26669 -10.26373
 Alpha  occ. eigenvalues --  -10.26020 -10.25928 -10.25820 -10.25533 -10.25520
 Alpha  occ. eigenvalues --  -10.25279 -10.24954 -10.24756 -10.24628 -10.24309
 Alpha  occ. eigenvalues --  -10.24098 -10.24063 -10.23728 -10.23503 -10.23422
 Alpha  occ. eigenvalues --  -10.23161 -10.23112 -10.22958 -10.22713 -10.22706
 Alpha  occ. eigenvalues --  -10.22697 -10.22478 -10.22454 -10.22438 -10.22342
 Alpha  occ. eigenvalues --  -10.22203 -10.22163 -10.22135 -10.21887 -10.21864
 Alpha  occ. eigenvalues --  -10.21670 -10.21526 -10.21512 -10.21256 -10.21192
 Alpha  occ. eigenvalues --  -10.20553 -10.20395 -10.20199 -10.19977 -10.19214
 Alpha  occ. eigenvalues --  -10.18434  -3.09793  -1.84714  -1.84267  -1.84211
 Alpha  occ. eigenvalues --   -1.22765  -1.13370  -1.09359  -1.04928  -1.03336
 Alpha  occ. eigenvalues --   -1.02298  -1.00676  -1.00258  -0.99844  -0.98891
 Alpha  occ. eigenvalues --   -0.96637  -0.89967  -0.86899  -0.85776  -0.85660
 Alpha  occ. eigenvalues --   -0.85092  -0.84769  -0.84465  -0.83622  -0.83479
 Alpha  occ. eigenvalues --   -0.83205  -0.82654  -0.82475  -0.80834  -0.79666
 Alpha  occ. eigenvalues --   -0.79511  -0.79019  -0.78377  -0.77735  -0.77260
 Alpha  occ. eigenvalues --   -0.75957  -0.75162  -0.73478  -0.72633  -0.72055
 Alpha  occ. eigenvalues --   -0.71246  -0.70875  -0.70820  -0.70006  -0.69863
 Alpha  occ. eigenvalues --   -0.69172  -0.69082  -0.68028  -0.67643  -0.66673
 Alpha  occ. eigenvalues --   -0.66097  -0.65560  -0.64701  -0.63318  -0.62391
 Alpha  occ. eigenvalues --   -0.62119  -0.61409  -0.61025  -0.59494  -0.59346
 Alpha  occ. eigenvalues --   -0.58460  -0.58334  -0.58069  -0.57997  -0.57719
 Alpha  occ. eigenvalues --   -0.56391  -0.55997  -0.55337  -0.55009  -0.54551
 Alpha  occ. eigenvalues --   -0.54328  -0.53588  -0.53456  -0.52928  -0.52428
 Alpha  occ. eigenvalues --   -0.51656  -0.51640  -0.51253  -0.50714  -0.50491
 Alpha  occ. eigenvalues --   -0.50400  -0.50279  -0.50097  -0.49999  -0.49711
 Alpha  occ. eigenvalues --   -0.49461  -0.49280  -0.48861  -0.48568  -0.48253
 Alpha  occ. eigenvalues --   -0.47931  -0.47795  -0.47376  -0.47026  -0.46916
 Alpha  occ. eigenvalues --   -0.46822  -0.46542  -0.46388  -0.46015  -0.45837
 Alpha  occ. eigenvalues --   -0.45634  -0.45384  -0.45123  -0.44896  -0.44575
 Alpha  occ. eigenvalues --   -0.44410  -0.44150  -0.44007  -0.43744  -0.43676
 Alpha  occ. eigenvalues --   -0.43481  -0.43159  -0.42967  -0.42762  -0.42684
 Alpha  occ. eigenvalues --   -0.42621  -0.42431  -0.42265  -0.42161  -0.41979
 Alpha  occ. eigenvalues --   -0.41714  -0.41414  -0.41373  -0.41187  -0.40976
 Alpha  occ. eigenvalues --   -0.40794  -0.40308  -0.40123  -0.39982  -0.39852
 Alpha  occ. eigenvalues --   -0.39786  -0.39510  -0.39388  -0.39359  -0.39249
 Alpha  occ. eigenvalues --   -0.38968  -0.38807  -0.38775  -0.38442  -0.38025
 Alpha  occ. eigenvalues --   -0.37926  -0.37873  -0.37667  -0.37573  -0.37141
 Alpha  occ. eigenvalues --   -0.36965  -0.36500  -0.36260  -0.35604  -0.35557
 Alpha  occ. eigenvalues --   -0.35470  -0.35028  -0.34639  -0.34536  -0.34383
 Alpha  occ. eigenvalues --   -0.34268  -0.34015  -0.33839  -0.33659  -0.33036
 Alpha  occ. eigenvalues --   -0.32804  -0.32634  -0.32120  -0.31979  -0.31808
 Alpha  occ. eigenvalues --   -0.31131  -0.30313  -0.29988  -0.29401  -0.29173
 Alpha  occ. eigenvalues --   -0.28660  -0.28240  -0.28024  -0.28017  -0.27716
 Alpha  occ. eigenvalues --   -0.27521  -0.26266  -0.23619  -0.20848
 Alpha virt. eigenvalues --   -0.08947  -0.06558  -0.02703  -0.01037   0.00421
 Alpha virt. eigenvalues --    0.01708   0.02829   0.02975   0.04208   0.05331
 Alpha virt. eigenvalues --    0.05716   0.05827   0.07387   0.08317   0.09446

 Mulliken charges:
               1
     1  Mg   0.836584
     2  C    0.152298
     3  C   -0.199795
     4  C   -0.187550
     5  C   -0.193424
     6  N   -0.602118
     7  C    0.240240
     8  C   -0.190535
     9  C   -0.152048
    10  C    0.370601
    11  C   -0.299547
    12  C   -0.115278
    13  C   -0.278473
    14  C    0.550951
    15  O   -0.532772
    16  O   -0.307950
    17  N   -0.696785
    18  C    0.334326
    19  C    0.024834
    20  C   -0.043818
    21  C    0.319089
    22  C   -0.362890
    23  C    0.226528
    24  O   -0.447629
    25  N   -0.706892
    26  C    0.318035
    27  C   -0.029445
    28  C    0.037972
    29  C    0.264578
    30  C    0.248555
    31  C   -0.255527
    32  C   -0.318665
    33  N   -0.734897
    34  C    0.312238
    35  C   -0.027755
    36  C    0.075127
    37  C    0.292988
    38  C   -0.366852
    39  C    0.335076
    40  O   -0.427655
    41  C   -0.381062
    42  C    0.621448
    43  O   -0.534609
    44  O   -0.426984
    45  C   -0.086109
    46  C   -0.024720
    47  C   -0.130734
    48  C    0.114810
    49  C   -0.361880
    50  C   -0.241889
    51  C   -0.182117
    52  C   -0.185335
    53  C   -0.059264
    54  C   -0.311341
    55  C   -0.166822
    56  C   -0.173815
    57  C   -0.158748
    58  C   -0.033705
    59  C   -0.301462
    60  C   -0.169349
    61  C   -0.164626
    62  C   -0.176365
    63  C   -0.058657
    64  C   -0.314775
    65  C   -0.299375
    66  H    0.085697
    67  H    0.137265
    68  H    0.094237
    69  H    0.123629
    70  H    0.107768
    71  H    0.107145
    72  H    0.109899
    73  H    0.146417
    74  H    0.100052
    75  H    0.120349
    76  H    0.112817
    77  H    0.130583
    78  H    0.115586
    79  H    0.169124
    80  H    0.114417
    81  H    0.077607
    82  H    0.128035
    83  H    0.113676
    84  H    0.114115
    85  H    0.117553
    86  H    0.121576
    87  H    0.150093
    88  H    0.146582
    89  H    0.119999
    90  H    0.158860
    91  H    0.111752
    92  H    0.139288
    93  H    0.093281
    94  H    0.154591
    95  H    0.095952
    96  H    0.116190
    97  H    0.112415
    98  H    0.093234
    99  H    0.127401
   100  H    0.109966
   101  H    0.085706
   102  H    0.062063
   103  H    0.093519
   104  H    0.099908
   105  H    0.114955
   106  H    0.094141
   107  H    0.078556
   108  H    0.057269
   109  H    0.059987
   110  H    0.067728
   111  H    0.090922
   112  H    0.101117
   113  H    0.087726
   114  H    0.076991
   115  H    0.102016
   116  H    0.100051
   117  H    0.055607
   118  H    0.089184
   119  H    0.091959
   120  H    0.093546
   121  H    0.096935
   122  H    0.091378
   123  H    0.090973
   124  H    0.097302
   125  H    0.098665
   126  H    0.100192
   127  H    0.073876
   128  H    0.078761
   129  H    0.113490
   130  H    0.104227
   131  H    0.151208
   132  H    0.122116
   133  O   -0.435676
   134  H    0.082217
 Sum of Mulliken charges =   0.00000

 Dipole moment (field-independent basis, Debye):
    X=              2.5680    Y=             -6.5850    Z=             -1.6238  Tot=              7.2522
 Quadrupole moment (field-independent basis, Debye-Ang):
   XX=           -378.9877   YY=           -445.7908   ZZ=           -395.2617
   XY=              2.2063   XZ=             25.3945   YZ=            -42.0322

 Normal termination of Gaussian 09 at Sat Oct  5 05:56:31 2019.
