 Gaussian 09, Revision D.01,
 Gaussian 09:  ES64L-G09RevD.01 24-Apr-2013

 ----------------------------------------------------------------------
 # td=(NStates=1) iop(3/107=0140000000,3/108=0140000000) iop(3/107=0140
 000000,3/108=0140000000) CAM-B3LYP/6-31G(d,p)
 ----------------------------------------------------------------------

 --
 TD
 --
 Symbolic Z-matrix:
 Charge =  0 Multiplicity = 1

                         Standard orientation:
 ---------------------------------------------------------------------
 Center     Atomic      Atomic             Coordinates (Angstroms)
 Number     Number       Type             X           Y           Z
 ---------------------------------------------------------------------
      1         12           0       -5.642520    1.217329    0.112285
      2          6           0       -5.047198   -2.120617   -0.468509
      3          6           0       -3.489534    1.056016    2.754439
      4          6           0       -6.184256    4.553554    0.648051
      5          6           0       -7.957600    1.218923   -2.406609
      6          7           0       -4.440455   -0.234625    0.976866
      7          6           0       -4.261944   -1.577190    0.560098
      8          6           0       -3.327176   -2.367868    1.425157
      9          6           0       -2.955577   -1.379700    2.553736
     10          6           0       -3.641529   -0.085166    2.087845
     11          6           0       -3.552280   -1.736405    3.935112
     12          6           0       -1.953902   -2.672436    0.715758
     13          6           0       -0.973642   -3.589907    1.494771
     14          6           0        0.268076   -3.871148    0.660685
     15          8           0        0.502457   -3.580802   -0.585460
     16          8           0        1.032119   -4.698646    1.448467
     17          7           0       -4.950437    2.590871    1.472947
     18          6           0       -4.069112    2.332114    2.538456
     19          6           0       -3.880968    3.542704    3.290777
     20          6           0       -4.616203    4.523746    2.569564
     21          6           0       -5.321227    3.885685    1.548265
     22          6           0       -2.973438    3.656669    4.492243
     23          6           0       -4.607919    5.896736    3.027978
     24          8           0       -4.068457    6.463167    3.996478
     25          7           0       -6.760937    2.667210   -0.726455
     26          6           0       -6.857163    3.953697   -0.365203
     27          6           0       -7.890716    4.634169   -1.238413
     28          6           0       -8.313999    3.727371   -2.000747
     29          6           0       -7.639475    2.440537   -1.715015
     30          6           0       -8.275095    6.081343   -1.158439
     31          6           0       -9.319565    3.884072   -3.236660
     32          6           0       -8.549070    4.191215   -4.531536
     33          7           0       -6.323372   -0.175050   -1.211014
     34          6           0       -7.352416   -0.052957   -2.184819
     35          6           0       -7.502113   -1.366107   -2.747520
     36          6           0       -6.631443   -2.167720   -2.276516
     37          6           0       -5.944303   -1.364036   -1.225643
     38          6           0       -8.439299   -1.552579   -3.845266
     39          6           0       -6.237249   -3.506651   -2.041091
     40          8           0       -6.634146   -4.517021   -2.666475
     41          6           0       -4.995924   -3.532153   -1.071888
     42          6           0       -5.370407   -4.631563    0.147449
     43          8           0       -5.834192   -4.428755    1.133532
     44          8           0       -4.902202   -5.838724   -0.378828
     45          6           0       -5.404080   -6.900843    0.460743
     46          6           0        2.367342   -5.045767    0.825410
     47          6           0        3.477414   -4.104548    1.084556
     48          6           0        4.026464   -3.243015    0.285825
     49          6           0        3.615515   -3.117864   -1.204358
     50          6           0        5.099393   -2.346443    0.687747
     51          6           0        6.492587   -2.683248    0.080504
     52          6           0        7.626176   -1.769800    0.748037
     53          6           0        8.955928   -1.952034   -0.105899
     54          6           0        9.482855   -3.337327    0.029849
     55          6           0       10.038276   -0.947436    0.473658
     56          6           0       11.358684   -0.799623   -0.328601
     57          6           0       12.179883    0.256374    0.053143
     58          6           0       13.537042    0.508364   -0.611489
     59          6           0       14.462996   -0.774062   -0.438709
     60          6           0       14.408808    1.786461   -0.114787
     61          6           0       15.512387    2.075496   -0.990234
     62          6           0       16.113339    3.446920   -0.606637
     63          6           0       17.340762    3.937984   -1.322704
     64          6           0       17.229833    4.068291   -2.927638
     65          6           0       17.985593    5.205123   -0.721006
     66          1           0       -2.886647    0.842762    3.737352
     67          1           0       -6.237533    5.594322    0.637807
     68          1           0       -8.946921    1.203098   -3.297725
     69          1           0       -3.869927   -3.352605    1.647295
     70          1           0       -1.948214   -1.333009    2.569586
     71          1           0       -3.148682   -2.744186    4.263876
     72          1           0       -3.113611   -1.005807    4.798367
     73          1           0       -4.663076   -1.634094    3.977316
     74          1           0       -2.231305   -3.248838   -0.208346
     75          1           0       -1.614977   -1.579150    0.539680
     76          1           0       -0.795596   -3.101792    2.588675
     77          1           0       -1.495866   -4.371423    1.547674
     78          1           0       -2.019780    3.285351    4.270770
     79          1           0       -2.707576    4.801803    4.709231
     80          1           0       -3.358056    3.082858    5.205885
     81          1           0       -5.547995    6.550684    2.702866
     82          1           0      -10.067179    3.082268   -3.270720
     83          1           0      -10.042216    4.684970   -3.088195
     84          1           0       -9.364507    4.653818   -5.297804
     85          1           0       -7.948527    5.138558   -4.250147
     86          1           0       -8.003272    3.385212   -4.901706
     87          1           0       -8.459310   -0.754110   -4.539166
     88          1           0       -8.459648   -2.547634   -4.212762
     89          1           0       -9.542682   -1.353487   -3.276933
     90          1           0       -4.235413   -3.751908   -1.629112
     91          1           0        2.430062   -6.058380    1.223393
     92          1           0        2.128035   -5.122969   -0.105466
     93          1           0        3.825253   -3.923350    2.132437
     94          1           0        2.535819   -3.474991   -1.276078
     95          1           0        3.671641   -2.103989   -1.537923
     96          1           0        4.143470   -3.614480   -1.931219
     97          1           0        4.833987   -1.260876    0.356414
     98          1           0        5.299793   -2.463971    1.769469
     99          1           0        6.618775   -3.693702    0.302259
    100          1           0        6.391468   -2.584015   -1.211347
    101          1           0        7.020999   -0.797342    0.507178
    102          1           0        7.833447   -1.893054    1.823604
    103          1           0        9.076024   -1.835358   -1.136757
    104          1           0        8.837686   -3.950937   -0.575114
    105          1           0       10.582559   -3.577505   -0.152933
    106          1           0        9.210939   -3.753375    1.162440
    107          1           0        9.870975    0.209410    0.469552
    108          1           0       10.212687   -1.398632    1.439087
    109          1           0       11.855077   -1.883105   -0.442149
    110          1           0       11.148631   -0.612320   -1.502446
    111          1           0       11.736964    1.196936   -0.098639
    112          1           0       12.360101    0.196808    1.165917
    113          1           0       13.623808    0.811923   -1.622685
    114          1           0       14.722784   -0.753720    0.779420
    115          1           0       13.960774   -1.741893   -0.719788
    116          1           0       15.527778   -0.819024   -0.970257
    117          1           0       13.568236    2.550145    0.073475
    118          1           0       14.911022    1.594771    1.021376
    119          1           0       16.309471    1.378196   -0.970491
    120          1           0       15.102671    1.937929   -1.958501
    121          1           0       15.262741    4.113170   -0.892566
    122          1           0       16.054492    3.609585    0.575261
    123          1           0       18.227093    3.227713   -1.217085
    124          1           0       16.441429    4.659603   -3.102039
    125          1           0       18.228268    4.276951   -3.292557
    126          1           0       17.167387    3.139258   -3.382369
    127          1           0       17.834263    5.101297    0.359075
    128          1           0       19.008054    5.620916   -1.165019
    129          1           0       17.204400    6.036788   -0.873028
    130          1           0       -4.775392   -7.927024    0.051107
    131          1           0       -6.520362   -6.975663    0.234926
    132          1           0       -5.077997   -6.837505    1.478104
    133          8           0       -7.807773    6.787534   -0.319465
    134          1           0       -9.223796    6.223206   -1.735136
 ---------------------------------------------------------------------

 SCF Done:  E(RCAM-B3LYP) =  -3043.34804165     A.U. after   16 cycles

 Excitation energies and oscillator strengths:

 Excited State   1:      Singlet-A      1.9777 eV  626.91 nm  f=0.2593  <S**2>=0.000
     243 -> 246       -0.19776
     244 -> 245        0.67221
 This state for optimization and/or second-order correction.
 Total Energy, E(TD-HF/TD-KS) =  -3043.27536297
 Copying the excited state density for this state as the 1-particle RhoCI density.

 The electronic state is 1-A.
 Alpha  occ. eigenvalues --  -46.81086 -19.22984 -19.22495 -19.20742 -19.19076
 Alpha  occ. eigenvalues --  -19.18327 -19.16616 -19.15814 -14.38946 -14.37786
 Alpha  occ. eigenvalues --  -14.36806 -14.36221 -10.36720 -10.36118 -10.31877
 Alpha  occ. eigenvalues --  -10.31105 -10.29546 -10.28905 -10.27743 -10.27426
 Alpha  occ. eigenvalues --  -10.27386 -10.26937 -10.26695 -10.26355 -10.25963
 Alpha  occ. eigenvalues --  -10.25866 -10.25438 -10.25307 -10.24562 -10.24385
 Alpha  occ. eigenvalues --  -10.24360 -10.24328 -10.24213 -10.24049 -10.24044
 Alpha  occ. eigenvalues --  -10.23881 -10.23711 -10.23637 -10.23631 -10.23543
 Alpha  occ. eigenvalues --  -10.23436 -10.23383 -10.23038 -10.22999 -10.22661
 Alpha  occ. eigenvalues --  -10.22426 -10.22413 -10.22357 -10.22244 -10.22182
 Alpha  occ. eigenvalues --  -10.22125 -10.22078 -10.22049 -10.22000 -10.21949
 Alpha  occ. eigenvalues --  -10.21897 -10.21681 -10.21452 -10.21384 -10.21336
 Alpha  occ. eigenvalues --  -10.21199 -10.20417 -10.20245 -10.19968 -10.19572
 Alpha  occ. eigenvalues --  -10.18783  -3.09821  -1.84759  -1.84299  -1.84229
 Alpha  occ. eigenvalues --   -1.18175  -1.11137  -1.09932  -1.08167  -1.04953
 Alpha  occ. eigenvalues --   -1.03965  -1.02652  -1.01922  -1.01593  -0.99250
 Alpha  occ. eigenvalues --   -0.98327  -0.88189  -0.87149  -0.86568  -0.86313
 Alpha  occ. eigenvalues --   -0.86116  -0.85721  -0.84742  -0.84416  -0.83466
 Alpha  occ. eigenvalues --   -0.83189  -0.82230  -0.82121  -0.80692  -0.80148
 Alpha  occ. eigenvalues --   -0.79315  -0.79177  -0.77991  -0.76447  -0.75773
 Alpha  occ. eigenvalues --   -0.75512  -0.75222  -0.74318  -0.72399  -0.72091
 Alpha  occ. eigenvalues --   -0.71659  -0.71536  -0.69971  -0.69867  -0.69437
 Alpha  occ. eigenvalues --   -0.69069  -0.68487  -0.67233  -0.66402  -0.66219
 Alpha  occ. eigenvalues --   -0.65460  -0.64633  -0.64510  -0.62802  -0.62354
 Alpha  occ. eigenvalues --   -0.61538  -0.60327  -0.60135  -0.59707  -0.59375
 Alpha  occ. eigenvalues --   -0.58959  -0.58838  -0.58152  -0.57437  -0.57317
 Alpha  occ. eigenvalues --   -0.56537  -0.56037  -0.55996  -0.55700  -0.55538
 Alpha  occ. eigenvalues --   -0.54165  -0.53836  -0.53656  -0.52690  -0.52591
 Alpha  occ. eigenvalues --   -0.52457  -0.52150  -0.51918  -0.51784  -0.51263
 Alpha  occ. eigenvalues --   -0.50723  -0.50241  -0.50078  -0.49727  -0.49521
 Alpha  occ. eigenvalues --   -0.49236  -0.48915  -0.48722  -0.48470  -0.48225
 Alpha  occ. eigenvalues --   -0.48037  -0.47872  -0.47726  -0.47449  -0.47256
 Alpha  occ. eigenvalues --   -0.46682  -0.46572  -0.46494  -0.46318  -0.46072
 Alpha  occ. eigenvalues --   -0.45713  -0.45401  -0.45124  -0.44819  -0.44779
 Alpha  occ. eigenvalues --   -0.44511  -0.44323  -0.44078  -0.43937  -0.43827
 Alpha  occ. eigenvalues --   -0.43793  -0.43528  -0.43290  -0.43199  -0.42918
 Alpha  occ. eigenvalues --   -0.42690  -0.42408  -0.42144  -0.42024  -0.41657
 Alpha  occ. eigenvalues --   -0.41531  -0.41487  -0.41160  -0.40953  -0.40763
 Alpha  occ. eigenvalues --   -0.40550  -0.40522  -0.40402  -0.40326  -0.40070
 Alpha  occ. eigenvalues --   -0.39951  -0.39827  -0.39481  -0.39161  -0.39112
 Alpha  occ. eigenvalues --   -0.38990  -0.38785  -0.38689  -0.38500  -0.38364
 Alpha  occ. eigenvalues --   -0.38110  -0.37777  -0.37571  -0.37164  -0.36766
 Alpha  occ. eigenvalues --   -0.36591  -0.36458  -0.36084  -0.35955  -0.35480
 Alpha  occ. eigenvalues --   -0.35424  -0.35247  -0.34808  -0.34692  -0.34466
 Alpha  occ. eigenvalues --   -0.34378  -0.34279  -0.34219  -0.33480  -0.33326
 Alpha  occ. eigenvalues --   -0.33005  -0.32791  -0.32702  -0.32243  -0.31788
 Alpha  occ. eigenvalues --   -0.31675  -0.31029  -0.30913  -0.30549  -0.30438
 Alpha  occ. eigenvalues --   -0.30306  -0.29420  -0.29063  -0.28477  -0.27502
 Alpha  occ. eigenvalues --   -0.27156  -0.25473  -0.23168  -0.21321
 Alpha virt. eigenvalues --   -0.08888  -0.05674  -0.01244  -0.00928   0.00439
 Alpha virt. eigenvalues --    0.00723   0.03112   0.03438   0.04104   0.04369
 Alpha virt. eigenvalues --    0.04817   0.05788   0.06556   0.08098   0.09026

 Mulliken charges:
               1
     1  Mg   0.814150
     2  C    0.051565
     3  C   -0.198491
     4  C   -0.140261
     5  C   -0.192112
     6  N   -0.635148
     7  C    0.313553
     8  C   -0.176159
     9  C   -0.116235
    10  C    0.345344
    11  C   -0.304260
    12  C   -0.189379
    13  C   -0.230089
    14  C    0.611029
    15  O   -0.493315
    16  O   -0.476731
    17  N   -0.715317
    18  C    0.294024
    19  C    0.032989
    20  C   -0.028851
    21  C    0.335737
    22  C   -0.377042
    23  C    0.214073
    24  O   -0.433220
    25  N   -0.699674
    26  C    0.272659
    27  C    0.001133
    28  C   -0.002003
    29  C    0.309590
    30  C    0.261947
    31  C   -0.248797
    32  C   -0.288831
    33  N   -0.731761
    34  C    0.271901
    35  C    0.028684
    36  C    0.070208
    37  C    0.318341
    38  C   -0.370328
    39  C    0.337489
    40  O   -0.482058
    41  C   -0.283423
    42  C    0.589824
    43  O   -0.361863
    44  O   -0.451565
    45  C   -0.096360
    46  C    0.010280
    47  C   -0.136994
    48  C    0.174812
    49  C   -0.401308
    50  C   -0.242780
    51  C   -0.169978
    52  C   -0.162680
    53  C   -0.057101
    54  C   -0.311793
    55  C   -0.157575
    56  C   -0.168875
    57  C   -0.159229
    58  C   -0.071120
    59  C   -0.295445
    60  C   -0.165985
    61  C   -0.163562
    62  C   -0.177002
    63  C   -0.060044
    64  C   -0.314303
    65  C   -0.305210
    66  H    0.073501
    67  H    0.128661
    68  H    0.087020
    69  H    0.111384
    70  H    0.113921
    71  H    0.104688
    72  H    0.086780
    73  H    0.133259
    74  H    0.112464
    75  H    0.107543
    76  H    0.121068
    77  H    0.153756
    78  H    0.125927
    79  H    0.151155
    80  H    0.131468
    81  H    0.050144
    82  H    0.106040
    83  H    0.105715
    84  H    0.090516
    85  H    0.107442
    86  H    0.129551
    87  H    0.136297
    88  H    0.148455
    89  H    0.090001
    90  H    0.152658
    91  H    0.118301
    92  H    0.132141
    93  H    0.069573
    94  H    0.149660
    95  H    0.107233
    96  H    0.124893
    97  H    0.095655
    98  H    0.092203
    99  H    0.111856
   100  H    0.061997
   101  H    0.094084
   102  H    0.107911
   103  H    0.100248
   104  H    0.115905
   105  H    0.110595
   106  H    0.059120
   107  H    0.075036
   108  H    0.091333
   109  H    0.070820
   110  H    0.059117
   111  H    0.099594
   112  H    0.089983
   113  H    0.087910
   114  H    0.070923
   115  H    0.097695
   116  H    0.083843
   117  H    0.080366
   118  H    0.050902
   119  H    0.111112
   120  H    0.097790
   121  H    0.087962
   122  H    0.082079
   123  H    0.072695
   124  H    0.113850
   125  H    0.100672
   126  H    0.106696
   127  H    0.103893
   128  H    0.097618
   129  H    0.080155
   130  H    0.093168
   131  H    0.137595
   132  H    0.136673
   133  O   -0.381999
   134  H    0.076656
 Sum of Mulliken charges =   0.00000

 Dipole moment (field-independent basis, Debye):
    X=              0.2284    Y=             -4.9075    Z=             -1.8738  Tot=              5.2580
 Quadrupole moment (field-independent basis, Debye-Ang):
   XX=           -374.6969   YY=           -440.4694   ZZ=           -400.1656
   XY=              0.8644   XZ=             17.9864   YZ=            -48.1723

 Normal termination of Gaussian 09 at Sat Oct  5 11:21:30 2019.
