 Gaussian 09, Revision D.01,
 Gaussian 09:  ES64L-G09RevD.01 24-Apr-2013

 ----------------------------------------------------------------------
 # td=(NStates=1) iop(3/107=0140000000,3/108=0140000000) iop(3/107=0140
 000000,3/108=0140000000) CAM-B3LYP/6-31G(d,p)
 ----------------------------------------------------------------------

 --
 TD
 --
 Symbolic Z-matrix:
 Charge =  0 Multiplicity = 1

                         Standard orientation:
 ---------------------------------------------------------------------
 Center     Atomic      Atomic             Coordinates (Angstroms)
 Number     Number       Type             X           Y           Z
 ---------------------------------------------------------------------
      1         12           0       -5.599908    1.229096    0.305944
      2          6           0       -5.091534   -2.161798   -0.382449
      3          6           0       -3.148010    1.244959    2.593779
      4          6           0       -6.196334    4.605787    0.573680
      5          6           0       -8.054870    1.176420   -2.257559
      6          7           0       -4.393426   -0.359654    0.918193
      7          6           0       -4.328960   -1.673238    0.641778
      8          6           0       -3.195863   -2.359359    1.405514
      9          6           0       -2.778719   -1.248148    2.558229
     10          6           0       -3.410421   -0.034464    2.012190
     11          6           0       -3.429270   -1.722209    3.864397
     12          6           0       -1.999968   -2.844161    0.578523
     13          6           0       -0.950507   -3.631292    1.458842
     14          6           0        0.188277   -3.887987    0.594846
     15          8           0        0.402335   -3.521923   -0.553008
     16          8           0        1.027200   -4.837065    1.201384
     17          7           0       -4.848954    2.685665    1.357401
     18          6           0       -3.855681    2.485659    2.457210
     19          6           0       -3.528990    3.736312    3.020022
     20          6           0       -4.385429    4.687146    2.430904
     21          6           0       -5.248938    3.928987    1.427649
     22          6           0       -2.504174    3.895030    4.226873
     23          6           0       -4.566412    6.089260    2.866981
     24          8           0       -3.929631    6.591520    3.781393
     25          7           0       -6.791922    2.598719   -0.775981
     26          6           0       -7.002771    3.910244   -0.335974
     27          6           0       -7.971736    4.567881   -1.091473
     28          6           0       -8.536046    3.652405   -1.996370
     29          6           0       -7.916724    2.384626   -1.658653
     30          6           0       -8.344790    5.986974   -1.062685
     31          6           0       -9.544122    3.808516   -2.964233
     32          6           0       -9.087720    3.774304   -4.415652
     33          7           0       -6.337489   -0.094778   -1.103796
     34          6           0       -7.382382   -0.069265   -2.021518
     35          6           0       -7.643011   -1.336939   -2.645773
     36          6           0       -6.753886   -2.191469   -2.037340
     37          6           0       -5.994362   -1.342025   -1.095214
     38          6           0       -8.580006   -1.507971   -3.700245
     39          6           0       -6.282285   -3.631228   -1.947235
     40          8           0       -6.595195   -4.562291   -2.587765
     41          6           0       -5.078096   -3.484763   -0.888280
     42          6           0       -5.303871   -4.689719    0.172433
     43          8           0       -5.663367   -4.453466    1.366424
     44          8           0       -5.093821   -5.897427   -0.339919
     45          6           0       -5.532787   -6.885094    0.565205
     46          6           0        2.265231   -5.047494    0.588957
     47          6           0        3.449367   -4.126592    0.921852
     48          6           0        4.037724   -3.221695    0.160077
     49          6           0        3.693733   -3.127367   -1.356169
     50          6           0        5.138519   -2.357463    0.689235
     51          6           0        6.562101   -2.722876    0.073790
     52          6           0        7.572956   -1.713851    0.593666
     53          6           0        9.076459   -1.886384    0.059572
     54          6           0        9.686464   -3.246416    0.339370
     55          6           0       10.049019   -0.838920    0.532730
     56          6           0       11.359913   -0.878687   -0.219316
     57          6           0       12.297650    0.245464    0.215889
     58          6           0       13.544136    0.383929   -0.503511
     59          6           0       14.466387   -0.838603   -0.073283
     60          6           0       14.249825    1.754013   -0.266200
     61          6           0       15.467704    2.171484   -1.181430
     62          6           0       15.959656    3.532946   -0.841056
     63          6           0       17.421062    3.857014   -1.496546
     64          6           0       17.183805    3.868638   -2.998648
     65          6           0       17.875599    5.140667   -0.851922
     66          1           0       -2.387834    1.223347    3.393389
     67          1           0       -6.184696    5.577131    0.680797
     68          1           0       -8.749759    1.119633   -3.172479
     69          1           0       -3.875913   -3.022775    1.831650
     70          1           0       -1.723504   -1.150075    2.521678
     71          1           0       -2.825094   -2.582816    4.319030
     72          1           0       -3.210053   -0.951019    4.524041
     73          1           0       -4.384432   -1.884138    3.495016
     74          1           0       -2.473424   -3.591657   -0.121604
     75          1           0       -1.633038   -1.931502    0.112089
     76          1           0       -0.541144   -2.926834    2.328092
     77          1           0       -1.291031   -4.524067    1.837756
     78          1           0       -1.617820    3.622391    3.786352
     79          1           0       -2.638558    4.830726    4.456006
     80          1           0       -2.921855    3.370010    5.074487
     81          1           0       -5.196374    6.847351    2.153115
     82          1           0      -10.181319    3.051242   -2.759485
     83          1           0      -10.041231    4.738427   -2.638429
     84          1           0      -10.038099    4.123560   -5.051351
     85          1           0       -8.386030    4.744911   -4.931908
     86          1           0       -8.340584    3.073592   -4.755278
     87          1           0       -8.419091   -0.860528   -4.519980
     88          1           0       -8.639489   -2.473825   -4.145573
     89          1           0       -9.648124   -1.255853   -3.551426
     90          1           0       -4.233067   -3.846993   -1.526052
     91          1           0        2.762195   -5.923647    1.050408
     92          1           0        1.842954   -5.191501   -0.443654
     93          1           0        3.824824   -4.192498    1.858224
     94          1           0        2.473025   -3.274603   -1.679536
     95          1           0        3.880695   -2.141350   -1.686086
     96          1           0        4.348065   -3.654150   -1.961694
     97          1           0        4.921482   -1.320155    0.331373
     98          1           0        4.953244   -2.158320    1.801140
     99          1           0        7.042801   -3.624091    0.711456
    100          1           0        6.459574   -3.085255   -0.997015
    101          1           0        7.132468   -0.687244    0.244555
    102          1           0        7.751217   -1.503123    1.858635
    103          1           0        8.896306   -1.796696   -1.193731
    104          1           0        8.794909   -3.874960    0.187674
    105          1           0       10.552797   -3.338599   -0.247894
    106          1           0        9.923671   -3.300537    1.316142
    107          1           0        9.676342    0.183116    0.551370
    108          1           0       10.413139   -0.857325    1.659026
    109          1           0       11.996769   -1.622420   -0.266229
    110          1           0       11.162310   -0.647058   -1.330617
    111          1           0       11.544088    1.181320    0.170677
    112          1           0       12.480432    0.088693    1.193465
    113          1           0       13.433447    0.245192   -1.435355
    114          1           0       14.792388   -0.733966    0.940642
    115          1           0       13.844618   -1.664111   -0.560971
    116          1           0       15.435388   -0.706739   -0.486095
    117          1           0       13.502279    2.616022   -0.223919
    118          1           0       14.573844    1.839752    0.838878
    119          1           0       16.252557    1.417991   -1.101584
    120          1           0       15.091799    2.165920   -2.117714
    121          1           0       15.254871    4.303481   -0.922992
    122          1           0       16.004441    3.659846    0.229671
    123          1           0       17.999992    3.196197   -1.251943
    124          1           0       16.427110    4.611199   -3.448641
    125          1           0       18.058957    4.061403   -3.556840
    126          1           0       16.892121    2.917359   -3.281137
    127          1           0       18.137425    4.895803    0.182307
    128          1           0       18.905091    5.527735   -1.166909
    129          1           0       17.249974    6.031396   -0.776162
    130          1           0       -5.077362   -7.861880    0.167743
    131          1           0       -6.591628   -7.012558    0.760536
    132          1           0       -5.047483   -6.702009    1.475537
    133          8           0       -8.008852    6.788927   -0.313163
    134          1           0       -9.200976    6.099992   -1.630230
 ---------------------------------------------------------------------

 SCF Done:  E(RCAM-B3LYP) =  -3043.35011848     A.U. after   16 cycles

 Excitation energies and oscillator strengths:

 Excited State   1:      Singlet-A      1.8968 eV  653.67 nm  f=0.2209  <S**2>=0.000
     243 -> 246        0.22440
     244 -> 245        0.65867
 This state for optimization and/or second-order correction.
 Total Energy, E(TD-HF/TD-KS) =  -3043.28041410
 Copying the excited state density for this state as the 1-particle RhoCI density.

 The electronic state is 1-A.
 Alpha  occ. eigenvalues --  -46.80979 -19.25079 -19.21082 -19.18458 -19.18096
 Alpha  occ. eigenvalues --  -19.17894 -19.17250 -19.16772 -14.39140 -14.36981
 Alpha  occ. eigenvalues --  -14.36587 -14.36461 -10.36639 -10.35325 -10.32293
 Alpha  occ. eigenvalues --  -10.30747 -10.28988 -10.28149 -10.27519 -10.26957
 Alpha  occ. eigenvalues --  -10.26914 -10.26720 -10.26592 -10.26226 -10.25697
 Alpha  occ. eigenvalues --  -10.25581 -10.25577 -10.25444 -10.25028 -10.25018
 Alpha  occ. eigenvalues --  -10.24694 -10.24496 -10.24391 -10.24385 -10.24294
 Alpha  occ. eigenvalues --  -10.24116 -10.23963 -10.23939 -10.23751 -10.23432
 Alpha  occ. eigenvalues --  -10.23192 -10.22931 -10.22922 -10.22850 -10.22731
 Alpha  occ. eigenvalues --  -10.22614 -10.22480 -10.22322 -10.21791 -10.21772
 Alpha  occ. eigenvalues --  -10.21695 -10.21375 -10.21207 -10.20665 -10.20264
 Alpha  occ. eigenvalues --  -10.20244 -10.20241 -10.19904 -10.19851 -10.19656
 Alpha  occ. eigenvalues --  -10.19618 -10.19555 -10.19350 -10.19273 -10.19016
 Alpha  occ. eigenvalues --  -10.18603  -3.09656  -1.84580  -1.84107  -1.84099
 Alpha  occ. eigenvalues --   -1.15798  -1.12678  -1.11003  -1.10389  -1.06107
 Alpha  occ. eigenvalues --   -1.04723  -1.03802  -1.01354  -0.98547  -0.97817
 Alpha  occ. eigenvalues --   -0.97143  -0.88849  -0.86772  -0.86439  -0.86018
 Alpha  occ. eigenvalues --   -0.85357  -0.85085  -0.84440  -0.84329  -0.83844
 Alpha  occ. eigenvalues --   -0.83455  -0.82776  -0.81420  -0.79982  -0.79396
 Alpha  occ. eigenvalues --   -0.78871  -0.78408  -0.77854  -0.77407  -0.76562
 Alpha  occ. eigenvalues --   -0.75958  -0.75113  -0.74231  -0.73151  -0.73082
 Alpha  occ. eigenvalues --   -0.71769  -0.71053  -0.70640  -0.70375  -0.70039
 Alpha  occ. eigenvalues --   -0.69631  -0.69002  -0.67592  -0.67495  -0.66352
 Alpha  occ. eigenvalues --   -0.65469  -0.65122  -0.63555  -0.62596  -0.62132
 Alpha  occ. eigenvalues --   -0.61939  -0.61684  -0.61374  -0.61193  -0.60561
 Alpha  occ. eigenvalues --   -0.59567  -0.58292  -0.57925  -0.56963  -0.56869
 Alpha  occ. eigenvalues --   -0.55941  -0.55711  -0.55629  -0.54929  -0.54614
 Alpha  occ. eigenvalues --   -0.54501  -0.54088  -0.53095  -0.52866  -0.52658
 Alpha  occ. eigenvalues --   -0.52250  -0.51821  -0.51640  -0.51263  -0.51103
 Alpha  occ. eigenvalues --   -0.50638  -0.50405  -0.49945  -0.49443  -0.49176
 Alpha  occ. eigenvalues --   -0.48994  -0.48833  -0.48706  -0.48652  -0.48240
 Alpha  occ. eigenvalues --   -0.48031  -0.47971  -0.47551  -0.47371  -0.46988
 Alpha  occ. eigenvalues --   -0.46876  -0.46746  -0.46545  -0.46439  -0.46213
 Alpha  occ. eigenvalues --   -0.45730  -0.45528  -0.45394  -0.45212  -0.45097
 Alpha  occ. eigenvalues --   -0.44717  -0.44613  -0.44482  -0.44323  -0.44005
 Alpha  occ. eigenvalues --   -0.43829  -0.43753  -0.43506  -0.43447  -0.43066
 Alpha  occ. eigenvalues --   -0.42908  -0.42838  -0.42715  -0.42428  -0.42394
 Alpha  occ. eigenvalues --   -0.42161  -0.41906  -0.41797  -0.41662  -0.41516
 Alpha  occ. eigenvalues --   -0.41415  -0.41124  -0.40879  -0.40560  -0.40504
 Alpha  occ. eigenvalues --   -0.40331  -0.40098  -0.40047  -0.39971  -0.39768
 Alpha  occ. eigenvalues --   -0.39298  -0.38805  -0.38484  -0.38307  -0.38274
 Alpha  occ. eigenvalues --   -0.38026  -0.37882  -0.37673  -0.37364  -0.37277
 Alpha  occ. eigenvalues --   -0.36415  -0.36163  -0.35781  -0.35549  -0.35369
 Alpha  occ. eigenvalues --   -0.35028  -0.35012  -0.34725  -0.34484  -0.34295
 Alpha  occ. eigenvalues --   -0.34248  -0.33711  -0.33650  -0.33464  -0.32924
 Alpha  occ. eigenvalues --   -0.32577  -0.32077  -0.31993  -0.31810  -0.31401
 Alpha  occ. eigenvalues --   -0.31211  -0.31013  -0.30675  -0.30047  -0.29468
 Alpha  occ. eigenvalues --   -0.28858  -0.28094  -0.27974  -0.27624  -0.27338
 Alpha  occ. eigenvalues --   -0.27251  -0.26996  -0.22672  -0.21385
 Alpha virt. eigenvalues --   -0.09155  -0.05985  -0.01441   0.00071   0.00650
 Alpha virt. eigenvalues --    0.02140   0.02229   0.03184   0.04175   0.04718
 Alpha virt. eigenvalues --    0.05059   0.05923   0.07606   0.08814   0.09274

 Mulliken charges:
               1
     1  Mg   0.827920
     2  C    0.140934
     3  C   -0.191696
     4  C   -0.111502
     5  C   -0.219335
     6  N   -0.626916
     7  C    0.289594
     8  C   -0.159975
     9  C   -0.177523
    10  C    0.283825
    11  C   -0.272129
    12  C   -0.163892
    13  C   -0.258927
    14  C    0.619511
    15  O   -0.465071
    16  O   -0.483901
    17  N   -0.713082
    18  C    0.254500
    19  C    0.001229
    20  C   -0.065848
    21  C    0.329834
    22  C   -0.338848
    23  C    0.227532
    24  O   -0.410650
    25  N   -0.646356
    26  C    0.307805
    27  C   -0.054858
    28  C    0.064411
    29  C    0.262496
    30  C    0.277599
    31  C   -0.242056
    32  C   -0.308667
    33  N   -0.700811
    34  C    0.231611
    35  C    0.083245
    36  C   -0.033770
    37  C    0.341801
    38  C   -0.423240
    39  C    0.380942
    40  O   -0.407151
    41  C   -0.384428
    42  C    0.600548
    43  O   -0.500636
    44  O   -0.403693
    45  C   -0.100029
    46  C    0.037701
    47  C   -0.142348
    48  C    0.129472
    49  C   -0.382621
    50  C   -0.241765
    51  C   -0.167934
    52  C   -0.166161
    53  C   -0.042773
    54  C   -0.299894
    55  C   -0.163849
    56  C   -0.173333
    57  C   -0.155616
    58  C   -0.052880
    59  C   -0.325430
    60  C   -0.197038
    61  C   -0.171249
    62  C   -0.187573
    63  C   -0.008686
    64  C   -0.315930
    65  C   -0.330118
    66  H    0.092629
    67  H    0.095465
    68  H    0.080377
    69  H    0.137938
    70  H    0.099901
    71  H    0.103501
    72  H    0.113536
    73  H    0.134037
    74  H    0.110920
    75  H    0.135004
    76  H    0.133149
    77  H    0.157528
    78  H    0.131060
    79  H    0.158993
    80  H    0.126956
    81  H    0.067686
    82  H    0.136451
    83  H    0.113596
    84  H    0.110210
    85  H    0.064151
    86  H    0.138964
    87  H    0.136871
    88  H    0.144260
    89  H    0.127209
    90  H    0.161834
    91  H    0.103635
    92  H    0.111750
    93  H    0.073616
    94  H    0.127343
    95  H    0.105174
    96  H    0.122553
    97  H    0.101936
    98  H    0.100080
    99  H    0.092095
   100  H    0.115683
   101  H    0.077568
   102  H    0.061191
   103  H    0.044036
   104  H    0.089788
   105  H    0.117238
   106  H    0.112586
   107  H    0.094367
   108  H    0.070503
   109  H    0.096648
   110  H    0.073474
   111  H    0.054543
   112  H    0.096154
   113  H    0.087025
   114  H    0.109483
   115  H    0.102585
   116  H    0.100077
   117  H    0.077450
   118  H    0.068263
   119  H    0.088244
   120  H    0.112081
   121  H    0.095337
   122  H    0.077806
   123  H    0.087974
   124  H    0.090881
   125  H    0.096937
   126  H    0.109584
   127  H    0.099031
   128  H    0.079750
   129  H    0.106580
   130  H    0.112790
   131  H    0.142507
   132  H    0.140503
   133  O   -0.382370
   134  H    0.040976
 Sum of Mulliken charges =   0.00000

 Dipole moment (field-independent basis, Debye):
    X=              0.6499    Y=             -4.8000    Z=             -0.9572  Tot=              4.9375
 Quadrupole moment (field-independent basis, Debye-Ang):
   XX=           -358.5417   YY=           -440.9628   ZZ=           -393.4917
   XY=             11.0004   XZ=             25.7489   YZ=            -33.1456

 Normal termination of Gaussian 09 at Sat Oct  5 07:32:10 2019.
