 Gaussian 09, Revision D.01,
 Gaussian 09:  ES64L-G09RevD.01 24-Apr-2013

 ----------------------------------------------------------------------
 # td=(NStates=1) iop(3/107=0140000000,3/108=0140000000) iop(3/107=0140
 000000,3/108=0140000000) CAM-B3LYP/6-31G(d,p)
 ----------------------------------------------------------------------

 --
 TD
 --
 Symbolic Z-matrix:
 Charge =  0 Multiplicity = 1

                         Standard orientation:
 ---------------------------------------------------------------------
 Center     Atomic      Atomic             Coordinates (Angstroms)
 Number     Number       Type             X           Y           Z
 ---------------------------------------------------------------------
      1         12           0       -5.550212    1.184898    0.153181
      2          6           0       -5.035125   -2.153690   -0.371208
      3          6           0       -3.418318    1.148953    2.740882
      4          6           0       -6.252226    4.508299    0.665993
      5          6           0       -8.015578    1.235466   -2.363406
      6          7           0       -4.239754   -0.267478    0.962713
      7          6           0       -4.216872   -1.655374    0.645664
      8          6           0       -3.134624   -2.344890    1.494273
      9          6           0       -2.848190   -1.326917    2.553106
     10          6           0       -3.519057   -0.036410    2.009256
     11          6           0       -3.406268   -1.782546    3.919838
     12          6           0       -1.891018   -2.630082    0.578104
     13          6           0       -1.012405   -3.582348    1.294565
     14          6           0        0.210485   -3.833352    0.578531
     15          8           0        0.509724   -3.349337   -0.544521
     16          8           0        0.954752   -4.761409    1.302229
     17          7           0       -4.908876    2.692003    1.441440
     18          6           0       -3.962964    2.432554    2.505790
     19          6           0       -3.667698    3.611537    3.229947
     20          6           0       -4.411948    4.570608    2.648341
     21          6           0       -5.203488    4.020955    1.527398
     22          6           0       -2.735915    3.734636    4.338023
     23          6           0       -4.566135    5.993105    2.928790
     24          8           0       -3.964889    6.500891    3.923531
     25          7           0       -6.899743    2.571840   -0.691390
     26          6           0       -6.967079    3.918344   -0.343969
     27          6           0       -7.849706    4.673748   -1.209082
     28          6           0       -8.440602    3.685203   -2.079668
     29          6           0       -7.748943    2.447628   -1.752830
     30          6           0       -8.290424    6.059192   -1.094964
     31          6           0       -9.457250    3.808878   -3.133895
     32          6           0       -8.895438    3.947708   -4.549992
     33          7           0       -6.337106   -0.129692   -1.113052
     34          6           0       -7.443333    0.020741   -2.050203
     35          6           0       -7.472172   -1.329267   -2.696837
     36          6           0       -6.602190   -2.139924   -2.073834
     37          6           0       -5.898913   -1.315774   -1.181688
     38          6           0       -8.485212   -1.636906   -3.771746
     39          6           0       -6.196875   -3.565106   -2.008662
     40          8           0       -6.605929   -4.567058   -2.520514
     41          6           0       -5.032495   -3.580045   -0.956648
     42          6           0       -5.172386   -4.636075    0.106871
     43          8           0       -5.632090   -4.431679    1.303238
     44          8           0       -4.965924   -5.877939   -0.489443
     45          6           0       -5.168270   -6.958030    0.480761
     46          6           0        2.197837   -5.101283    0.674977
     47          6           0        3.389059   -4.169458    1.063383
     48          6           0        4.081076   -3.348782    0.260750
     49          6           0        3.811522   -3.185285   -1.210892
     50          6           0        5.075011   -2.448963    0.680485
     51          6           0        6.480022   -2.832297    0.188286
     52          6           0        7.649431   -1.921646    0.599221
     53          6           0        9.003624   -1.960222   -0.018322
     54          6           0        9.504346   -3.450011    0.098409
     55          6           0       10.050739   -0.972081    0.412149
     56          6           0       11.348128   -0.881179   -0.336914
     57          6           0       12.185065    0.268924    0.117765
     58          6           0       13.525225    0.413470   -0.517535
     59          6           0       14.524229   -0.746012   -0.353602
     60          6           0       14.071904    1.824255   -0.188077
     61          6           0       15.197865    2.362787   -1.090018
     62          6           0       15.819095    3.720537   -0.617078
     63          6           0       17.158343    3.963653   -1.338956
     64          6           0       16.794617    4.028485   -2.928886
     65          6           0       17.851948    5.283308   -0.902521
     66          1           0       -2.587793    1.193423    3.636794
     67          1           0       -6.235540    5.658624    0.771446
     68          1           0       -8.750218    1.414262   -3.291319
     69          1           0       -3.669146   -3.153799    1.854987
     70          1           0       -1.816453   -1.084442    2.512782
     71          1           0       -3.029889   -2.803853    4.236341
     72          1           0       -3.148654   -1.034915    4.736544
     73          1           0       -4.492868   -1.929629    3.788083
     74          1           0       -2.286694   -2.996601   -0.342167
     75          1           0       -1.289961   -1.572669    0.470194
     76          1           0       -0.738144   -3.001388    2.135701
     77          1           0       -1.514709   -4.485845    1.783067
     78          1           0       -1.785441    3.542533    3.905875
     79          1           0       -2.765239    4.685310    4.867709
     80          1           0       -2.966751    3.050309    5.267900
     81          1           0       -5.204954    6.650468    2.265066
     82          1           0       -9.956013    2.822694   -3.169097
     83          1           0      -10.116934    4.676980   -2.784331
     84          1           0       -9.513072    3.904702   -5.405420
     85          1           0       -8.405416    4.894773   -4.712942
     86          1           0       -8.228243    3.046075   -4.890782
     87          1           0       -8.055285   -1.337967   -4.593941
     88          1           0       -8.775683   -2.776399   -3.818670
     89          1           0       -9.456245   -1.035959   -3.754896
     90          1           0       -4.113962   -3.786450   -1.214818
     91          1           0        2.322560   -6.083786    1.126380
     92          1           0        2.127609   -4.864609   -0.354424
     93          1           0        3.675180   -4.321922    2.279408
     94          1           0        2.842963   -3.544665   -1.720190
     95          1           0        3.645446   -1.985807   -1.316583
     96          1           0        4.477876   -3.514176   -1.861209
     97          1           0        4.966253   -1.413500    0.576027
     98          1           0        5.102233   -2.511258    1.947713
     99          1           0        6.669658   -3.860758    0.454506
    100          1           0        6.492516   -2.794922   -1.028779
    101          1           0        7.380080   -0.764811    0.424663
    102          1           0        7.832514   -2.088410    1.809307
    103          1           0        8.744163   -1.715635   -1.106689
    104          1           0        8.575675   -4.040994   -0.209874
    105          1           0       10.451939   -3.837638   -0.551808
    106          1           0        9.586683   -3.588521    1.213413
    107          1           0        9.638003   -0.004916    0.734651
    108          1           0       10.233013   -1.272389    1.340615
    109          1           0       11.866601   -1.770831   -0.266025
    110          1           0       11.125031   -0.616291   -1.373103
    111          1           0       11.620652    1.214450    0.014547
    112          1           0       12.366136    0.107160    1.083484
    113          1           0       13.626795    0.474788   -1.676148
    114          1           0       14.576378   -0.912028    0.647874
    115          1           0       14.298882   -1.733154   -0.818831
    116          1           0       15.546119   -0.558488   -0.698456
    117          1           0       13.263242    2.636557   -0.000165
    118          1           0       14.382929    1.888144    1.009393
    119          1           0       16.065570    1.653641   -1.072772
    120          1           0       14.899938    2.386233   -2.174187
    121          1           0       15.078626    4.365174   -0.913857
    122          1           0       16.114593    3.618935    0.305348
    123          1           0       17.798103    3.243762   -1.266691
    124          1           0       16.140155    4.734265   -2.882744
    125          1           0       17.671492    4.424061   -3.533925
    126          1           0       16.411248    3.088429   -3.282491
    127          1           0       18.291874    5.537167    0.113687
    128          1           0       18.692820    5.435820   -1.300894
    129          1           0       17.132642    5.954589   -0.913927
    130          1           0       -4.878942   -7.981037   -0.038417
    131          1           0       -6.204209   -7.056636    0.827467
    132          1           0       -4.453258   -6.871221    1.342670
    133          8           0       -7.775994    6.849407   -0.318208
    134          1           0       -9.213517    6.262388   -1.630456
 ---------------------------------------------------------------------

 SCF Done:  E(RCAM-B3LYP) =  -3043.42711948     A.U. after   16 cycles

 Excitation energies and oscillator strengths:

 Excited State   1:      Singlet-A      1.9679 eV  630.04 nm  f=0.2004  <S**2>=0.000
     243 -> 246       -0.21996
     244 -> 245        0.66542
 This state for optimization and/or second-order correction.
 Total Energy, E(TD-HF/TD-KS) =  -3043.35480090
 Copying the excited state density for this state as the 1-particle RhoCI density.

 The electronic state is 1-A.
 Alpha  occ. eigenvalues --  -46.81634 -19.24586 -19.22700 -19.18429 -19.18363
 Alpha  occ. eigenvalues --  -19.18180 -19.17009 -19.16172 -14.38976 -14.36915
 Alpha  occ. eigenvalues --  -14.36742 -14.36295 -10.36768 -10.35626 -10.32758
 Alpha  occ. eigenvalues --  -10.30239 -10.30014 -10.28971 -10.27650 -10.27317
 Alpha  occ. eigenvalues --  -10.27109 -10.27046 -10.26488 -10.26206 -10.26159
 Alpha  occ. eigenvalues --  -10.25881 -10.25610 -10.25494 -10.25427 -10.24863
 Alpha  occ. eigenvalues --  -10.24704 -10.24567 -10.24544 -10.24406 -10.23882
 Alpha  occ. eigenvalues --  -10.23844 -10.23740 -10.23594 -10.23391 -10.23342
 Alpha  occ. eigenvalues --  -10.23308 -10.23291 -10.23123 -10.23121 -10.23081
 Alpha  occ. eigenvalues --  -10.23043 -10.23001 -10.22546 -10.22480 -10.22466
 Alpha  occ. eigenvalues --  -10.22355 -10.22155 -10.21981 -10.21959 -10.21924
 Alpha  occ. eigenvalues --  -10.21764 -10.21469 -10.21017 -10.20344 -10.19523
 Alpha  occ. eigenvalues --  -10.19462 -10.19292 -10.19118 -10.18720 -10.18681
 Alpha  occ. eigenvalues --  -10.17525  -3.10149  -1.85097  -1.84607  -1.84563
 Alpha  occ. eigenvalues --   -1.12247  -1.12077  -1.09061  -1.06576  -1.04027
 Alpha  occ. eigenvalues --   -1.03327  -1.02555  -1.01535  -1.00512  -0.98948
 Alpha  occ. eigenvalues --   -0.97764  -0.88802  -0.87637  -0.87216  -0.86275
 Alpha  occ. eigenvalues --   -0.85796  -0.84723  -0.84687  -0.84388  -0.83697
 Alpha  occ. eigenvalues --   -0.83643  -0.83116  -0.82562  -0.80340  -0.80145
 Alpha  occ. eigenvalues --   -0.79078  -0.78376  -0.77891  -0.77083  -0.76841
 Alpha  occ. eigenvalues --   -0.75576  -0.75187  -0.74081  -0.73059  -0.72630
 Alpha  occ. eigenvalues --   -0.72307  -0.71904  -0.70969  -0.70387  -0.70152
 Alpha  occ. eigenvalues --   -0.69825  -0.69219  -0.67621  -0.67282  -0.66725
 Alpha  occ. eigenvalues --   -0.66096  -0.65553  -0.64446  -0.63434  -0.62778
 Alpha  occ. eigenvalues --   -0.62147  -0.61620  -0.60616  -0.60227  -0.59572
 Alpha  occ. eigenvalues --   -0.58757  -0.58480  -0.57864  -0.57504  -0.57082
 Alpha  occ. eigenvalues --   -0.56475  -0.55815  -0.55616  -0.55350  -0.55001
 Alpha  occ. eigenvalues --   -0.54225  -0.53846  -0.52914  -0.52619  -0.52312
 Alpha  occ. eigenvalues --   -0.52099  -0.51935  -0.51603  -0.51197  -0.51165
 Alpha  occ. eigenvalues --   -0.50756  -0.50592  -0.50297  -0.49568  -0.49496
 Alpha  occ. eigenvalues --   -0.49333  -0.48995  -0.48486  -0.48328  -0.48129
 Alpha  occ. eigenvalues --   -0.47932  -0.47720  -0.47678  -0.47317  -0.47022
 Alpha  occ. eigenvalues --   -0.46974  -0.46661  -0.46441  -0.46153  -0.46036
 Alpha  occ. eigenvalues --   -0.45637  -0.45558  -0.45175  -0.44934  -0.44870
 Alpha  occ. eigenvalues --   -0.44649  -0.44554  -0.44250  -0.44116  -0.43907
 Alpha  occ. eigenvalues --   -0.43617  -0.43454  -0.43258  -0.43083  -0.42879
 Alpha  occ. eigenvalues --   -0.42525  -0.42497  -0.42170  -0.42060  -0.41968
 Alpha  occ. eigenvalues --   -0.41747  -0.41599  -0.41497  -0.41222  -0.41054
 Alpha  occ. eigenvalues --   -0.40883  -0.40696  -0.40436  -0.40284  -0.40071
 Alpha  occ. eigenvalues --   -0.39995  -0.39761  -0.39388  -0.39268  -0.39246
 Alpha  occ. eigenvalues --   -0.38997  -0.38818  -0.38706  -0.38521  -0.38285
 Alpha  occ. eigenvalues --   -0.38110  -0.37747  -0.37601  -0.37460  -0.37030
 Alpha  occ. eigenvalues --   -0.36874  -0.36857  -0.36581  -0.36432  -0.36359
 Alpha  occ. eigenvalues --   -0.36016  -0.35386  -0.35256  -0.34567  -0.34455
 Alpha  occ. eigenvalues --   -0.34417  -0.34035  -0.33633  -0.33288  -0.33003
 Alpha  occ. eigenvalues --   -0.32757  -0.32268  -0.31995  -0.31981  -0.31381
 Alpha  occ. eigenvalues --   -0.31325  -0.31247  -0.31049  -0.30167  -0.30100
 Alpha  occ. eigenvalues --   -0.29402  -0.28912  -0.28119  -0.27945  -0.27876
 Alpha  occ. eigenvalues --   -0.27445  -0.26963  -0.23427  -0.21084
 Alpha virt. eigenvalues --   -0.08528  -0.06511  -0.01580  -0.00640  -0.00092
 Alpha virt. eigenvalues --    0.00772   0.01707   0.03202   0.03608   0.04177
 Alpha virt. eigenvalues --    0.04899   0.05839   0.07697   0.08119   0.08979

 Mulliken charges:
               1
     1  Mg   0.815052
     2  C    0.041683
     3  C   -0.199152
     4  C   -0.187703
     5  C   -0.172816
     6  N   -0.617061
     7  C    0.239848
     8  C   -0.147759
     9  C   -0.134574
    10  C    0.358602
    11  C   -0.309545
    12  C   -0.170999
    13  C   -0.259390
    14  C    0.625487
    15  O   -0.488853
    16  O   -0.477468
    17  N   -0.691437
    18  C    0.272734
    19  C    0.110553
    20  C   -0.026668
    21  C    0.291426
    22  C   -0.396291
    23  C    0.216842
    24  O   -0.444030
    25  N   -0.682435
    26  C    0.310027
    27  C   -0.019396
    28  C    0.037198
    29  C    0.324364
    30  C    0.248017
    31  C   -0.256705
    32  C   -0.315130
    33  N   -0.737403
    34  C    0.244813
    35  C   -0.042091
    36  C    0.047184
    37  C    0.349710
    38  C   -0.374668
    39  C    0.401747
    40  O   -0.430014
    41  C   -0.283577
    42  C    0.598814
    43  O   -0.494015
    44  O   -0.439778
    45  C   -0.089487
    46  C    0.024134
    47  C   -0.156675
    48  C    0.183132
    49  C   -0.374866
    50  C   -0.226413
    51  C   -0.166793
    52  C   -0.153904
    53  C   -0.055172
    54  C   -0.308045
    55  C   -0.165469
    56  C   -0.167384
    57  C   -0.176064
    58  C   -0.044677
    59  C   -0.328679
    60  C   -0.163587
    61  C   -0.207990
    62  C   -0.146661
    63  C   -0.083346
    64  C   -0.322179
    65  C   -0.307420
    66  H    0.074615
    67  H    0.124754
    68  H    0.088516
    69  H    0.131589
    70  H    0.103623
    71  H    0.107163
    72  H    0.108641
    73  H    0.131617
    74  H    0.117751
    75  H    0.106860
    76  H    0.153814
    77  H    0.141400
    78  H    0.134394
    79  H    0.165812
    80  H    0.109418
    81  H    0.102118
    82  H    0.115833
    83  H    0.110866
    84  H    0.120689
    85  H    0.121287
    86  H    0.096383
    87  H    0.148764
    88  H    0.132710
    89  H    0.111760
    90  H    0.159656
    91  H    0.113055
    92  H    0.129113
    93  H    0.058570
    94  H    0.130673
    95  H    0.093335
    96  H    0.136996
    97  H    0.120687
    98  H    0.059488
    99  H    0.114172
   100  H    0.074124
   101  H    0.070150
   102  H    0.050313
   103  H    0.067636
   104  H    0.096780
   105  H    0.088847
   106  H    0.097112
   107  H    0.075842
   108  H    0.096175
   109  H    0.100663
   110  H    0.091783
   111  H    0.092761
   112  H    0.101896
   113  H    0.068181
   114  H    0.108290
   115  H    0.100922
   116  H    0.105114
   117  H    0.080500
   118  H    0.043937
   119  H    0.088922
   120  H    0.092786
   121  H    0.101345
   122  H    0.103570
   123  H    0.092612
   124  H    0.116994
   125  H    0.083634
   126  H    0.107785
   127  H    0.072769
   128  H    0.108304
   129  H    0.109833
   130  H    0.115021
   131  H    0.148667
   132  H    0.127086
   133  O   -0.423548
   134  H    0.069470
 Sum of Mulliken charges =   0.00000

 Dipole moment (field-independent basis, Debye):
    X=              1.5971    Y=             -5.2025    Z=             -2.0132  Tot=              5.8025
 Quadrupole moment (field-independent basis, Debye-Ang):
   XX=           -377.6811   YY=           -434.7757   ZZ=           -394.9423
   XY=              9.9426   XZ=             31.8775   YZ=            -36.6728

 Normal termination of Gaussian 09 at Wed Oct  9 03:01:08 2019.
