 Gaussian 09, Revision D.01,
 Gaussian 09:  ES64L-G09RevD.01 24-Apr-2013

 ----------------------------------------------------------------------
 # td=(NStates=1) iop(3/107=0140000000,3/108=0140000000) iop(3/107=0140
 000000,3/108=0140000000) CAM-B3LYP/6-31G(d,p)
 ----------------------------------------------------------------------

 --
 TD
 --
 Symbolic Z-matrix:
 Charge =  0 Multiplicity = 1

                         Standard orientation:
 ---------------------------------------------------------------------
 Center     Atomic      Atomic             Coordinates (Angstroms)
 Number     Number       Type             X           Y           Z
 ---------------------------------------------------------------------
      1         12           0       -5.672962    1.250236    0.185915
      2          6           0       -5.137738   -2.171780   -0.363810
      3          6           0       -3.592237    1.186500    2.817861
      4          6           0       -6.147997    4.643216    0.608551
      5          6           0       -8.050742    1.107779   -2.394677
      6          7           0       -4.613616   -0.274708    1.166820
      7          6           0       -4.376340   -1.597362    0.695715
      8          6           0       -3.318773   -2.300234    1.455758
      9          6           0       -2.988972   -1.327046    2.699371
     10          6           0       -3.675659   -0.038901    2.175630
     11          6           0       -3.495902   -1.810351    4.086573
     12          6           0       -2.055369   -2.751621    0.670948
     13          6           0       -0.937432   -3.501298    1.484031
     14          6           0        0.247835   -3.862548    0.560068
     15          8           0        0.567979   -3.419723   -0.513426
     16          8           0        1.052885   -4.626617    1.321103
     17          7           0       -5.057797    2.671750    1.500200
     18          6           0       -4.079276    2.453946    2.413654
     19          6           0       -3.671702    3.746856    3.158759
     20          6           0       -4.502833    4.746710    2.456057
     21          6           0       -5.301217    4.060900    1.442286
     22          6           0       -2.788010    3.888040    4.249837
     23          6           0       -4.537135    6.166876    2.736445
     24          8           0       -3.924466    6.739162    3.678844
     25          7           0       -7.032901    2.582859   -0.637383
     26          6           0       -6.934627    3.957317   -0.387863
     27          6           0       -7.948991    4.502118   -1.120456
     28          6           0       -8.484308    3.591557   -2.093426
     29          6           0       -7.900484    2.331057   -1.651947
     30          6           0       -8.342708    5.976058   -1.277361
     31          6           0       -9.522234    3.780203   -3.242522
     32          6           0       -8.772073    3.973497   -4.556290
     33          7           0       -6.422543   -0.123569   -1.046481
     34          6           0       -7.457657   -0.092558   -1.989059
     35          6           0       -7.598474   -1.432126   -2.697752
     36          6           0       -6.708931   -2.228182   -2.088709
     37          6           0       -6.024066   -1.426219   -1.046527
     38          6           0       -8.508642   -1.736062   -3.774630
     39          6           0       -6.294158   -3.680678   -1.965905
     40          8           0       -6.649936   -4.636097   -2.609629
     41          6           0       -5.053470   -3.601795   -0.918943
     42          6           0       -5.265984   -4.645527    0.117918
     43          8           0       -5.635181   -4.383317    1.232148
     44          8           0       -5.035907   -5.906325   -0.294319
     45          6           0       -5.334858   -6.945681    0.630649
     46          6           0        2.398789   -4.936338    0.735727
     47          6           0        3.376029   -3.883243    1.006783
     48          6           0        4.068826   -3.093281    0.111527
     49          6           0        3.733238   -3.186325   -1.307127
     50          6           0        5.238544   -2.345274    0.712327
     51          6           0        6.640545   -2.638467   -0.017813
     52          6           0        7.641304   -1.747584    0.595187
     53          6           0        9.059130   -1.940465   -0.099509
     54          6           0        9.545962   -3.389719    0.122661
     55          6           0       10.051547   -0.966025    0.470140
     56          6           0       11.384848   -0.865611   -0.257118
     57          6           0       12.236778    0.265620    0.152956
     58          6           0       13.502131    0.530559   -0.681683
     59          6           0       14.334782   -0.715720   -0.455145
     60          6           0       14.337537    1.667668   -0.082202
     61          6           0       15.539154    2.126825   -1.089411
     62          6           0       16.197947    3.475403   -0.655608
     63          6           0       17.496497    3.779135   -1.346733
     64          6           0       17.362639    4.020329   -2.793719
     65          6           0       18.174089    5.002520   -0.735979
     66          1           0       -2.881803    1.337507    3.664414
     67          1           0       -6.431461    5.682685    0.630120
     68          1           0       -8.762554    1.300575   -3.155699
     69          1           0       -3.864509   -3.433082    1.740775
     70          1           0       -2.030762   -1.112743    2.800202
     71          1           0       -2.938054   -2.763717    4.333221
     72          1           0       -3.456199   -0.889802    4.702053
     73          1           0       -4.643974   -1.981378    3.933183
     74          1           0       -2.309787   -3.471385   -0.088886
     75          1           0       -1.602006   -1.792562    0.344385
     76          1           0       -0.645460   -2.870247    2.247996
     77          1           0       -1.270917   -4.547669    1.776229
     78          1           0       -1.700608    3.139811    4.199866
     79          1           0       -2.690652    4.865603    4.535373
     80          1           0       -3.353971    3.526907    4.976999
     81          1           0       -5.244874    6.696583    2.095920
     82          1           0      -10.187377    3.144537   -3.177484
     83          1           0      -10.068007    4.588055   -3.072791
     84          1           0       -9.389388    3.837485   -5.469150
     85          1           0       -8.169635    4.898289   -4.255876
     86          1           0       -8.225344    2.982390   -4.710066
     87          1           0       -8.492156   -1.160295   -4.617550
     88          1           0       -8.114603   -2.781910   -4.243401
     89          1           0       -9.503213   -1.536599   -3.496739
     90          1           0       -4.155982   -3.803056   -1.534337
     91          1           0        2.694126   -5.857820    1.444442
     92          1           0        1.981964   -5.420309   -0.333929
     93          1           0        3.609465   -3.934640    2.130864
     94          1           0        2.581832   -3.415979   -1.367656
     95          1           0        3.817176   -2.293990   -1.888735
     96          1           0        4.547840   -3.597841   -1.983107
     97          1           0        5.023439   -1.256060    0.561809
     98          1           0        5.147961   -2.432978    1.641862
     99          1           0        6.751617   -3.741353    0.121862
    100          1           0        6.515812   -2.664756   -1.083029
    101          1           0        7.505356   -0.798832    0.248398
    102          1           0        7.645001   -1.887374    1.730909
    103          1           0        8.940337   -1.749484   -1.133280
    104          1           0        8.946504   -4.104890   -0.334366
    105          1           0       10.318379   -3.469876   -0.356526
    106          1           0        9.774028   -3.625315    1.207929
    107          1           0        9.454939   -0.033052    0.385405
    108          1           0       10.226762   -1.126226    1.557406
    109          1           0       11.807815   -1.800106   -0.150845
    110          1           0       11.087732   -0.934737   -1.259254
    111          1           0       11.585708    1.293461    0.312148
    112          1           0       12.626446    0.134096    1.232469
    113          1           0       13.248253    0.717324   -1.817296
    114          1           0       14.387139   -1.011330    0.603237
    115          1           0       14.345106   -1.803128   -0.763510
    116          1           0       15.426171   -0.509932   -0.928976
    117          1           0       13.817553    2.731411   -0.222223
    118          1           0       14.823562    1.499682    0.749629
    119          1           0       16.382837    1.152998   -0.933665
    120          1           0       15.250082    2.095762   -2.190842
    121          1           0       15.664499    4.295952   -1.009318
    122          1           0       16.321944    3.718502    0.413937
    123          1           0       18.236610    3.018235   -1.181748
    124          1           0       16.608709    4.767810   -2.818492
    125          1           0       18.446277    4.275469   -3.237642
    126          1           0       16.911959    3.060834   -3.293424
    127          1           0       18.281401    4.730655    0.543410
    128          1           0       19.267973    5.102201   -0.888171
    129          1           0       17.613796    5.905060   -0.816715
    130          1           0       -5.072965   -7.805049    0.076884
    131          1           0       -6.371515   -7.077643    0.789926
    132          1           0       -4.752723   -6.806959    1.389727
    133          8           0       -7.752493    6.845133   -0.567985
    134          1           0       -8.868030    6.173343   -2.048178
 ---------------------------------------------------------------------

 SCF Done:  E(RCAM-B3LYP) =  -3043.32747466     A.U. after   16 cycles

 Excitation energies and oscillator strengths:

 Excited State   1:      Singlet-A      2.0609 eV  601.60 nm  f=0.1396  <S**2>=0.000
     243 -> 246       -0.27766
     244 -> 245        0.64089
 This state for optimization and/or second-order correction.
 Total Energy, E(TD-HF/TD-KS) =  -3043.25173803
 Copying the excited state density for this state as the 1-particle RhoCI density.

 The electronic state is 1-A.
 Alpha  occ. eigenvalues --  -46.80504 -19.22710 -19.21274 -19.18941 -19.17540
 Alpha  occ. eigenvalues --  -19.17409 -19.16584 -19.16290 -14.39115 -14.37160
 Alpha  occ. eigenvalues --  -14.36966 -14.35404 -10.35286 -10.34751 -10.33146
 Alpha  occ. eigenvalues --  -10.29467 -10.29420 -10.29135 -10.28384 -10.27785
 Alpha  occ. eigenvalues --  -10.27460 -10.26755 -10.25979 -10.25975 -10.25837
 Alpha  occ. eigenvalues --  -10.25733 -10.25599 -10.25268 -10.25164 -10.24875
 Alpha  occ. eigenvalues --  -10.24736 -10.23922 -10.23911 -10.23886 -10.23625
 Alpha  occ. eigenvalues --  -10.23623 -10.23558 -10.23483 -10.23464 -10.23413
 Alpha  occ. eigenvalues --  -10.23376 -10.23082 -10.22791 -10.22744 -10.22738
 Alpha  occ. eigenvalues --  -10.22703 -10.22407 -10.22150 -10.22109 -10.22101
 Alpha  occ. eigenvalues --  -10.21680 -10.21567 -10.21559 -10.21378 -10.21223
 Alpha  occ. eigenvalues --  -10.21092 -10.21066 -10.20995 -10.20717 -10.20695
 Alpha  occ. eigenvalues --  -10.20489 -10.20379 -10.20286 -10.20231 -10.19352
 Alpha  occ. eigenvalues --  -10.17738  -3.09199  -1.84125  -1.83659  -1.83629
 Alpha  occ. eigenvalues --   -1.14672  -1.12892  -1.08851  -1.05936  -1.04477
 Alpha  occ. eigenvalues --   -1.03666  -1.03486  -0.99594  -0.98506  -0.97941
 Alpha  occ. eigenvalues --   -0.97146  -0.88489  -0.86690  -0.85891  -0.85427
 Alpha  occ. eigenvalues --   -0.85175  -0.84845  -0.84605  -0.84211  -0.84061
 Alpha  occ. eigenvalues --   -0.83672  -0.82564  -0.81641  -0.80978  -0.80276
 Alpha  occ. eigenvalues --   -0.79029  -0.78191  -0.77781  -0.77086  -0.76515
 Alpha  occ. eigenvalues --   -0.76026  -0.75571  -0.74494  -0.74231  -0.73072
 Alpha  occ. eigenvalues --   -0.72047  -0.71119  -0.70217  -0.69971  -0.69370
 Alpha  occ. eigenvalues --   -0.68997  -0.68341  -0.67610  -0.67179  -0.66875
 Alpha  occ. eigenvalues --   -0.66257  -0.64860  -0.64225  -0.62963  -0.62123
 Alpha  occ. eigenvalues --   -0.61087  -0.60950  -0.60690  -0.59718  -0.59468
 Alpha  occ. eigenvalues --   -0.58971  -0.58505  -0.58235  -0.57800  -0.56492
 Alpha  occ. eigenvalues --   -0.55955  -0.55750  -0.55539  -0.55294  -0.55159
 Alpha  occ. eigenvalues --   -0.54147  -0.53506  -0.53222  -0.52955  -0.52792
 Alpha  occ. eigenvalues --   -0.52038  -0.51904  -0.51602  -0.51049  -0.50537
 Alpha  occ. eigenvalues --   -0.50414  -0.50173  -0.49876  -0.49700  -0.49399
 Alpha  occ. eigenvalues --   -0.49234  -0.48970  -0.48446  -0.48081  -0.47858
 Alpha  occ. eigenvalues --   -0.47711  -0.47672  -0.47278  -0.47209  -0.46915
 Alpha  occ. eigenvalues --   -0.46866  -0.46680  -0.46176  -0.45998  -0.45917
 Alpha  occ. eigenvalues --   -0.45830  -0.45589  -0.45455  -0.45066  -0.44911
 Alpha  occ. eigenvalues --   -0.44578  -0.44329  -0.43978  -0.43841  -0.43737
 Alpha  occ. eigenvalues --   -0.43568  -0.43350  -0.43123  -0.42938  -0.42827
 Alpha  occ. eigenvalues --   -0.42672  -0.42632  -0.42422  -0.42302  -0.42227
 Alpha  occ. eigenvalues --   -0.41833  -0.41365  -0.41244  -0.41100  -0.40869
 Alpha  occ. eigenvalues --   -0.40827  -0.40663  -0.40347  -0.40220  -0.40020
 Alpha  occ. eigenvalues --   -0.39582  -0.39551  -0.39514  -0.39238  -0.39128
 Alpha  occ. eigenvalues --   -0.38988  -0.38718  -0.38685  -0.38415  -0.38373
 Alpha  occ. eigenvalues --   -0.38110  -0.37945  -0.37476  -0.36838  -0.36511
 Alpha  occ. eigenvalues --   -0.36446  -0.36313  -0.35917  -0.35849  -0.35641
 Alpha  occ. eigenvalues --   -0.35305  -0.35281  -0.34930  -0.34704  -0.34602
 Alpha  occ. eigenvalues --   -0.34147  -0.33928  -0.33871  -0.33278  -0.33229
 Alpha  occ. eigenvalues --   -0.33147  -0.33067  -0.32921  -0.31459  -0.31283
 Alpha  occ. eigenvalues --   -0.31208  -0.31124  -0.30642  -0.29715  -0.29635
 Alpha  occ. eigenvalues --   -0.28782  -0.28499  -0.27534  -0.27197  -0.26924
 Alpha  occ. eigenvalues --   -0.26260  -0.25995  -0.23032  -0.21005
 Alpha virt. eigenvalues --   -0.07554  -0.06440  -0.02181  -0.01132   0.00188
 Alpha virt. eigenvalues --    0.02273   0.02710   0.03244   0.03778   0.04046
 Alpha virt. eigenvalues --    0.05124   0.05957   0.08119   0.08245   0.09443

 Mulliken charges:
               1
     1  Mg   0.823402
     2  C    0.063485
     3  C   -0.190465
     4  C   -0.174578
     5  C   -0.140884
     6  N   -0.630874
     7  C    0.349194
     8  C   -0.191293
     9  C   -0.120934
    10  C    0.298036
    11  C   -0.295119
    12  C   -0.164507
    13  C   -0.257913
    14  C    0.590503
    15  O   -0.460404
    16  O   -0.471065
    17  N   -0.693846
    18  C    0.295676
    19  C    0.061066
    20  C   -0.029472
    21  C    0.341992
    22  C   -0.384332
    23  C    0.239930
    24  O   -0.453636
    25  N   -0.702217
    26  C    0.286206
    27  C   -0.086079
    28  C   -0.043079
    29  C    0.285590
    30  C    0.282368
    31  C   -0.217060
    32  C   -0.297253
    33  N   -0.717544
    34  C    0.252799
    35  C    0.029995
    36  C    0.007212
    37  C    0.329178
    38  C   -0.397307
    39  C    0.390126
    40  O   -0.427215
    41  C   -0.335300
    42  C    0.624548
    43  O   -0.465639
    44  O   -0.459374
    45  C   -0.073556
    46  C   -0.008009
    47  C   -0.132988
    48  C    0.155637
    49  C   -0.408446
    50  C   -0.206405
    51  C   -0.190463
    52  C   -0.144901
    53  C   -0.099735
    54  C   -0.291056
    55  C   -0.168108
    56  C   -0.162933
    57  C   -0.157475
    58  C   -0.042296
    59  C   -0.318849
    60  C   -0.147935
    61  C   -0.186063
    62  C   -0.159961
    63  C   -0.056775
    64  C   -0.279563
    65  C   -0.300844
    66  H    0.069815
    67  H    0.148934
    68  H    0.083155
    69  H    0.110343
    70  H    0.108735
    71  H    0.117831
    72  H    0.115794
    73  H    0.121242
    74  H    0.106387
    75  H    0.114846
    76  H    0.143623
    77  H    0.126089
    78  H    0.090326
    79  H    0.162161
    80  H    0.158279
    81  H    0.089612
    82  H    0.107882
    83  H    0.110348
    84  H    0.108287
    85  H    0.116244
    86  H    0.099785
    87  H    0.139795
    88  H    0.131931
    89  H    0.140400
    90  H    0.169816
    91  H    0.102798
    92  H    0.112869
    93  H    0.086686
    94  H    0.158308
    95  H    0.115319
    96  H    0.108066
    97  H    0.090424
    98  H    0.096573
    99  H    0.100668
   100  H    0.094962
   101  H    0.104573
   102  H    0.090851
   103  H    0.083811
   104  H    0.094020
   105  H    0.104861
   106  H    0.088402
   107  H    0.074309
   108  H    0.080979
   109  H    0.107405
   110  H    0.091135
   111  H    0.057992
   112  H    0.079395
   113  H    0.078408
   114  H    0.103035
   115  H    0.100225
   116  H    0.074915
   117  H    0.083612
   118  H    0.113075
   119  H    0.047660
   120  H    0.094960
   121  H    0.091676
   122  H    0.093839
   123  H    0.088163
   124  H    0.100520
   125  H    0.088574
   126  H    0.086373
   127  H    0.036044
   128  H    0.110027
   129  H    0.108014
   130  H    0.127160
   131  H    0.135410
   132  H    0.130428
   133  O   -0.450620
   134  H    0.079242
 Sum of Mulliken charges =   0.00000

 Dipole moment (field-independent basis, Debye):
    X=              2.8341    Y=             -6.7257    Z=             -1.7831  Tot=              7.5131
 Quadrupole moment (field-independent basis, Debye-Ang):
   XX=           -371.9014   YY=           -441.1678   ZZ=           -391.1681
   XY=             15.5154   XZ=             26.5883   YZ=            -32.5182

 Normal termination of Gaussian 09 at Thu Oct  3 11:53:13 2019.
