 Gaussian 09, Revision D.01,
 Gaussian 09:  ES64L-G09RevD.01 24-Apr-2013

 ----------------------------------------------------------------------
 # td=(NStates=1) iop(3/107=0140000000,3/108=0140000000) iop(3/107=0140
 000000,3/108=0140000000) CAM-B3LYP/6-31G(d,p)
 ----------------------------------------------------------------------

 --
 TD
 --
 Symbolic Z-matrix:
 Charge =  0 Multiplicity = 1

                         Standard orientation:
 ---------------------------------------------------------------------
 Center     Atomic      Atomic             Coordinates (Angstroms)
 Number     Number       Type             X           Y           Z
 ---------------------------------------------------------------------
      1         12           0       -5.582796    1.311333    0.245803
      2          6           0       -4.946319   -2.131711   -0.440599
      3          6           0       -3.329309    1.224816    2.762754
      4          6           0       -6.203104    4.600038    0.699696
      5          6           0       -7.959988    1.253517   -2.348288
      6          7           0       -4.418686   -0.289366    1.147661
      7          6           0       -4.243787   -1.560249    0.606146
      8          6           0       -3.256887   -2.459257    1.540945
      9          6           0       -2.985178   -1.418541    2.566723
     10          6           0       -3.597491   -0.108732    2.200306
     11          6           0       -3.423866   -1.870010    3.984551
     12          6           0       -2.016125   -2.816056    0.694608
     13          6           0       -1.016593   -3.678009    1.474890
     14          6           0        0.147577   -3.939565    0.599911
     15          8           0        0.342065   -3.483206   -0.530604
     16          8           0        1.037689   -4.849039    1.319563
     17          7           0       -4.987316    2.563730    1.540858
     18          6           0       -4.015723    2.396760    2.562468
     19          6           0       -3.695103    3.622888    3.186541
     20          6           0       -4.343099    4.650741    2.491976
     21          6           0       -5.230927    3.997655    1.553185
     22          6           0       -2.839590    3.865425    4.370265
     23          6           0       -4.376117    6.090901    2.729070
     24          8           0       -3.860226    6.668511    3.783038
     25          7           0       -6.865431    2.678587   -0.658439
     26          6           0       -6.912744    3.969340   -0.307910
     27          6           0       -7.786625    4.683574   -1.191454
     28          6           0       -8.344120    3.737775   -2.066100
     29          6           0       -7.758724    2.424274   -1.772871
     30          6           0       -8.283147    6.050412   -1.135768
     31          6           0       -9.393041    3.873533   -3.056812
     32          6           0       -8.973111    3.918092   -4.516872
     33          7           0       -6.324193   -0.142092   -1.175789
     34          6           0       -7.299380   -0.024449   -2.038170
     35          6           0       -7.657557   -1.322528   -2.720842
     36          6           0       -6.653175   -2.126125   -2.199356
     37          6           0       -5.937905   -1.453670   -1.135131
     38          6           0       -8.456423   -1.476903   -3.879314
     39          6           0       -6.215953   -3.564473   -1.971139
     40          8           0       -6.509965   -4.511099   -2.607548
     41          6           0       -4.974207   -3.557464   -0.897472
     42          6           0       -5.231747   -4.686837    0.178117
     43          8           0       -5.720653   -4.530728    1.227225
     44          8           0       -4.889017   -5.878147   -0.436317
     45          6           0       -5.103879   -7.039868    0.393771
     46          6           0        2.238637   -5.053763    0.659238
     47          6           0        3.384230   -4.164152    1.083544
     48          6           0        3.981477   -3.263760    0.233916
     49          6           0        3.820922   -3.211495   -1.245369
     50          6           0        5.120557   -2.438512    0.755801
     51          6           0        6.499056   -2.820366    0.012896
     52          6           0        7.655650   -1.840723    0.534271
     53          6           0        9.058889   -2.138382   -0.071127
     54          6           0        9.574403   -3.513556    0.210063
     55          6           0        9.887581   -0.938612    0.531974
     56          6           0       11.196948   -0.996186   -0.234123
     57          6           0       12.086087    0.254736    0.200609
     58          6           0       13.425849    0.564990   -0.719162
     59          6           0       14.441729   -0.702444   -0.618904
     60          6           0       14.083096    1.788696   -0.326585
     61          6           0       15.408307    2.322490   -1.047321
     62          6           0       15.975947    3.615538   -0.540428
     63          6           0       17.302223    4.058695   -1.250281
     64          6           0       17.171600    4.007381   -2.830651
     65          6           0       17.687107    5.453787   -0.758903
     66          1           0       -2.535954    1.387795    3.557711
     67          1           0       -6.383479    5.628970    0.685724
     68          1           0       -8.784603    1.446399   -3.071879
     69          1           0       -3.692358   -3.373012    1.843809
     70          1           0       -1.875596   -1.161650    2.638868
     71          1           0       -2.802694   -2.728973    4.354864
     72          1           0       -3.083577   -1.143114    4.597931
     73          1           0       -4.575004   -1.947683    3.896843
     74          1           0       -2.347240   -3.167749   -0.269976
     75          1           0       -1.430112   -1.935953    0.452977
     76          1           0       -0.751312   -3.020745    2.409633
     77          1           0       -1.217311   -4.685860    1.849476
     78          1           0       -1.706446    3.623761    4.235304
     79          1           0       -2.918003    4.861750    4.865107
     80          1           0       -3.232107    2.920014    5.199693
     81          1           0       -5.147088    6.671471    2.104027
     82          1           0      -10.104109    2.931050   -2.766857
     83          1           0      -10.010670    4.730779   -2.856170
     84          1           0       -9.926007    3.742123   -5.169884
     85          1           0       -8.642031    5.072796   -4.911039
     86          1           0       -8.052390    3.116937   -4.796201
     87          1           0       -8.165658   -0.809944   -4.866414
     88          1           0       -8.338201   -2.524096   -4.185697
     89          1           0       -9.405567   -1.092880   -3.570831
     90          1           0       -4.251856   -4.012236   -1.650321
     91          1           0        2.882818   -6.127118    0.890935
     92          1           0        2.148105   -5.049917   -0.445868
     93          1           0        3.623532   -4.431200    2.015160
     94          1           0        2.738356   -3.385259   -1.632246
     95          1           0        3.946772   -2.126015   -1.713167
     96          1           0        4.281425   -3.893104   -1.970608
     97          1           0        4.938566   -1.456612    0.574519
     98          1           0        5.227639   -2.620729    1.890950
     99          1           0        6.908131   -3.817217    0.250723
    100          1           0        6.597252   -2.851647   -1.160825
    101          1           0        7.135204   -0.815941    0.356153
    102          1           0        7.714471   -1.705406    1.665147
    103          1           0        8.834812   -1.874719   -1.084344
    104          1           0        9.002615   -4.258907   -0.338258
    105          1           0       10.541268   -3.642553   -0.212972
    106          1           0        9.684867   -3.761128    1.184820
    107          1           0        9.320712   -0.096554    0.357757
    108          1           0       10.048977   -1.038862    1.656324
    109          1           0       11.625662   -1.960583   -0.300487
    110          1           0       11.141700   -0.768323   -1.396563
    111          1           0       11.739742    1.383111    0.179680
    112          1           0       12.487541    0.075608    1.213566
    113          1           0       13.083104    0.618144   -1.761414
    114          1           0       14.739819   -1.064101    0.412696
    115          1           0       13.894333   -1.635020   -1.022072
    116          1           0       15.349747   -0.584298   -1.122384
    117          1           0       13.278337    2.791362   -0.332209
    118          1           0       14.334830    1.593336    0.780474
    119          1           0       16.224131    1.667860   -1.195719
    120          1           0       14.933936    2.449435   -2.108838
    121          1           0       15.283610    4.539169   -0.892342
    122          1           0       16.268223    3.549358    0.605565
    123          1           0       18.168166    3.290542   -1.127415
    124          1           0       16.110090    4.548750   -3.063141
    125          1           0       18.073484    4.604239   -3.162978
    126          1           0       16.988073    2.919399   -3.055200
    127          1           0       17.561078    5.436165    0.423134
    128          1           0       18.707573    5.598642   -1.220691
    129          1           0       16.906421    6.185274   -0.896620
    130          1           0       -4.921046   -7.878921   -0.343538
    131          1           0       -6.109854   -6.948823    0.577247
    132          1           0       -4.523676   -7.042912    1.281035
    133          8           0       -7.800182    6.906290   -0.445118
    134          1           0       -9.297482    6.404937   -1.727966
 ---------------------------------------------------------------------

 SCF Done:  E(RCAM-B3LYP) =  -3043.43740817     A.U. after   16 cycles

 Excitation energies and oscillator strengths:

 Excited State   1:      Singlet-A      1.9104 eV  648.98 nm  f=0.2139  <S**2>=0.000
     243 -> 246        0.24547
     244 -> 245        0.65754
 This state for optimization and/or second-order correction.
 Total Energy, E(TD-HF/TD-KS) =  -3043.36720091
 Copying the excited state density for this state as the 1-particle RhoCI density.

 The electronic state is 1-A.
 Alpha  occ. eigenvalues --  -46.81479 -19.22520 -19.22341 -19.19468 -19.18869
 Alpha  occ. eigenvalues --  -19.17472 -19.17444 -19.17328 -14.40111 -14.37006
 Alpha  occ. eigenvalues --  -14.36950 -14.36426 -10.36478 -10.35753 -10.31651
 Alpha  occ. eigenvalues --  -10.31409 -10.31387 -10.29070 -10.27813 -10.27691
 Alpha  occ. eigenvalues --  -10.27487 -10.26908 -10.26888 -10.26810 -10.26332
 Alpha  occ. eigenvalues --  -10.26197 -10.25845 -10.25656 -10.25352 -10.25286
 Alpha  occ. eigenvalues --  -10.25172 -10.25096 -10.24706 -10.24700 -10.24665
 Alpha  occ. eigenvalues --  -10.24647 -10.24515 -10.24482 -10.24425 -10.23987
 Alpha  occ. eigenvalues --  -10.23831 -10.23288 -10.23041 -10.23034 -10.22932
 Alpha  occ. eigenvalues --  -10.22721 -10.22617 -10.22558 -10.22526 -10.22323
 Alpha  occ. eigenvalues --  -10.22069 -10.22004 -10.21968 -10.21955 -10.21929
 Alpha  occ. eigenvalues --  -10.21816 -10.21663 -10.21619 -10.21492 -10.21345
 Alpha  occ. eigenvalues --  -10.21259 -10.21145 -10.20570 -10.20538 -10.20375
 Alpha  occ. eigenvalues --  -10.19509  -3.10107  -1.85032  -1.84575  -1.84531
 Alpha  occ. eigenvalues --   -1.14416  -1.11815  -1.09368  -1.08278  -1.07039
 Alpha  occ. eigenvalues --   -1.05559  -1.02121  -1.01020  -1.00092  -0.98791
 Alpha  occ. eigenvalues --   -0.97464  -0.88583  -0.86774  -0.86400  -0.85262
 Alpha  occ. eigenvalues --   -0.84467  -0.84341  -0.84082  -0.83953  -0.83562
 Alpha  occ. eigenvalues --   -0.83408  -0.82597  -0.82100  -0.79911  -0.78911
 Alpha  occ. eigenvalues --   -0.78551  -0.77924  -0.77674  -0.77177  -0.75761
 Alpha  occ. eigenvalues --   -0.75262  -0.74898  -0.73900  -0.73222  -0.71805
 Alpha  occ. eigenvalues --   -0.71542  -0.69957  -0.69932  -0.69555  -0.69511
 Alpha  occ. eigenvalues --   -0.69082  -0.68774  -0.67107  -0.66084  -0.65667
 Alpha  occ. eigenvalues --   -0.65592  -0.64169  -0.63810  -0.62406  -0.61926
 Alpha  occ. eigenvalues --   -0.61709  -0.61040  -0.60455  -0.59239  -0.59139
 Alpha  occ. eigenvalues --   -0.58748  -0.57609  -0.57276  -0.57160  -0.56945
 Alpha  occ. eigenvalues --   -0.56254  -0.55713  -0.55303  -0.54898  -0.54649
 Alpha  occ. eigenvalues --   -0.54037  -0.53418  -0.53066  -0.52670  -0.52635
 Alpha  occ. eigenvalues --   -0.52111  -0.51721  -0.51186  -0.50815  -0.50492
 Alpha  occ. eigenvalues --   -0.50111  -0.49896  -0.49577  -0.49341  -0.49196
 Alpha  occ. eigenvalues --   -0.49118  -0.48962  -0.48213  -0.47795  -0.47764
 Alpha  occ. eigenvalues --   -0.47681  -0.47284  -0.47116  -0.46777  -0.46720
 Alpha  occ. eigenvalues --   -0.46485  -0.46231  -0.46076  -0.45680  -0.45613
 Alpha  occ. eigenvalues --   -0.45494  -0.45335  -0.45189  -0.45009  -0.44815
 Alpha  occ. eigenvalues --   -0.44545  -0.44339  -0.44158  -0.43743  -0.43695
 Alpha  occ. eigenvalues --   -0.43582  -0.43475  -0.43218  -0.43192  -0.43008
 Alpha  occ. eigenvalues --   -0.42807  -0.42660  -0.42561  -0.42384  -0.42301
 Alpha  occ. eigenvalues --   -0.41854  -0.41727  -0.41490  -0.41286  -0.41079
 Alpha  occ. eigenvalues --   -0.40999  -0.40767  -0.40645  -0.40018  -0.39814
 Alpha  occ. eigenvalues --   -0.39758  -0.39610  -0.39393  -0.39372  -0.39150
 Alpha  occ. eigenvalues --   -0.39043  -0.38838  -0.38602  -0.38397  -0.38180
 Alpha  occ. eigenvalues --   -0.37802  -0.37774  -0.37437  -0.37384  -0.36856
 Alpha  occ. eigenvalues --   -0.36493  -0.36361  -0.36199  -0.36049  -0.35715
 Alpha  occ. eigenvalues --   -0.35384  -0.35208  -0.35128  -0.35050  -0.34293
 Alpha  occ. eigenvalues --   -0.34061  -0.33963  -0.33535  -0.33328  -0.33143
 Alpha  occ. eigenvalues --   -0.32486  -0.32395  -0.32207  -0.31907  -0.31678
 Alpha  occ. eigenvalues --   -0.31503  -0.31437  -0.31057  -0.30178  -0.28654
 Alpha  occ. eigenvalues --   -0.28593  -0.28185  -0.27976  -0.27933  -0.27534
 Alpha  occ. eigenvalues --   -0.27293  -0.25566  -0.23228  -0.21397
 Alpha virt. eigenvalues --   -0.09090  -0.06744  -0.02731  -0.01272   0.00589
 Alpha virt. eigenvalues --    0.01052   0.02977   0.03406   0.03644   0.03806
 Alpha virt. eigenvalues --    0.04301   0.05252   0.07293   0.08008   0.09133

 Mulliken charges:
               1
     1  Mg   0.844449
     2  C    0.135827
     3  C   -0.205002
     4  C   -0.165793
     5  C   -0.171132
     6  N   -0.610974
     7  C    0.228169
     8  C   -0.110659
     9  C   -0.184176
    10  C    0.352983
    11  C   -0.294530
    12  C   -0.182067
    13  C   -0.271833
    14  C    0.625312
    15  O   -0.447336
    16  O   -0.479495
    17  N   -0.749203
    18  C    0.345021
    19  C    0.069207
    20  C    0.021831
    21  C    0.266495
    22  C   -0.381140
    23  C    0.212647
    24  O   -0.445953
    25  N   -0.743644
    26  C    0.360491
    27  C   -0.025840
    28  C    0.059311
    29  C    0.306546
    30  C    0.232144
    31  C   -0.258714
    32  C   -0.287437
    33  N   -0.673220
    34  C    0.280880
    35  C    0.026175
    36  C   -0.036070
    37  C    0.252825
    38  C   -0.363542
    39  C    0.359849
    40  O   -0.415738
    41  C   -0.339149
    42  C    0.611319
    43  O   -0.435130
    44  O   -0.465883
    45  C   -0.088503
    46  C    0.012662
    47  C   -0.125054
    48  C    0.147204
    49  C   -0.394517
    50  C   -0.220088
    51  C   -0.189488
    52  C   -0.188559
    53  C   -0.061050
    54  C   -0.317344
    55  C   -0.157471
    56  C   -0.184745
    57  C   -0.175303
    58  C   -0.060986
    59  C   -0.325244
    60  C   -0.145421
    61  C   -0.180913
    62  C   -0.140885
    63  C   -0.071051
    64  C   -0.286026
    65  C   -0.293506
    66  H    0.087509
    67  H    0.116843
    68  H    0.084800
    69  H    0.127765
    70  H    0.097354
    71  H    0.106584
    72  H    0.119226
    73  H    0.123473
    74  H    0.123951
    75  H    0.124271
    76  H    0.136891
    77  H    0.144916
    78  H    0.122173
    79  H    0.174675
    80  H    0.073890
    81  H    0.107599
    82  H    0.099481
    83  H    0.120546
    84  H    0.111117
    85  H    0.095010
    86  H    0.098930
    87  H    0.108725
    88  H    0.146263
    89  H    0.130219
    90  H    0.167175
    91  H    0.066403
    92  H    0.113622
    93  H    0.088206
    94  H    0.126145
    95  H    0.090704
    96  H    0.130701
    97  H    0.113686
    98  H    0.092511
    99  H    0.098243
   100  H    0.083528
   101  H    0.070881
   102  H    0.073663
   103  H    0.098260
   104  H    0.106112
   105  H    0.104482
   106  H    0.119731
   107  H    0.109660
   108  H    0.087481
   109  H    0.108261
   110  H    0.074030
   111  H    0.081486
   112  H    0.090315
   113  H    0.079999
   114  H    0.093258
   115  H    0.085793
   116  H    0.110237
   117  H    0.045195
   118  H    0.077236
   119  H    0.102140
   120  H    0.082598
   121  H    0.072018
   122  H    0.082607
   123  H    0.071276
   124  H    0.072453
   125  H    0.098768
   126  H    0.107499
   127  H    0.081010
   128  H    0.099131
   129  H    0.111796
   130  H    0.129055
   131  H    0.142716
   132  H    0.129547
   133  O   -0.403293
   134  H    0.049930
 Sum of Mulliken charges =   0.00000

 Dipole moment (field-independent basis, Debye):
    X=              0.8218    Y=             -5.0515    Z=             -1.1093  Tot=              5.2368
 Quadrupole moment (field-independent basis, Debye-Ang):
   XX=           -379.3933   YY=           -440.5292   ZZ=           -398.1373
   XY=             -0.5872   XZ=             23.9622   YZ=            -35.5840

 Normal termination of Gaussian 09 at Tue Oct  8 21:21:59 2019.
