 Gaussian 09, Revision D.01,
 Gaussian 09:  ES64L-G09RevD.01 24-Apr-2013

 ----------------------------------------------------------------------
 # td=(NStates=1) iop(3/107=0140000000,3/108=0140000000) iop(3/107=0140
 000000,3/108=0140000000) CAM-B3LYP/6-31G(d,p)
 ----------------------------------------------------------------------

 --
 TD
 --
 Symbolic Z-matrix:
 Charge =  0 Multiplicity = 1

                         Standard orientation:
 ---------------------------------------------------------------------
 Center     Atomic      Atomic             Coordinates (Angstroms)
 Number     Number       Type             X           Y           Z
 ---------------------------------------------------------------------
      1         12           0       -5.643488    1.184590    0.142728
      2          6           0       -5.116888   -2.148958   -0.320434
      3          6           0       -3.402143    1.036451    2.752938
      4          6           0       -6.211172    4.639227    0.590191
      5          6           0       -8.162779    1.153864   -2.369725
      6          7           0       -4.362251   -0.239051    1.029142
      7          6           0       -4.270168   -1.613684    0.678734
      8          6           0       -3.271464   -2.351407    1.348896
      9          6           0       -2.870035   -1.390775    2.603907
     10          6           0       -3.533794   -0.102804    2.147317
     11          6           0       -3.397631   -1.776149    4.010247
     12          6           0       -2.025390   -2.686778    0.550270
     13          6           0       -0.962814   -3.562181    1.338090
     14          6           0        0.259411   -3.817172    0.588431
     15          8           0        0.482857   -3.402869   -0.605905
     16          8           0        1.103355   -4.664441    1.292749
     17          7           0       -4.867759    2.633519    1.308089
     18          6           0       -4.013888    2.409013    2.410736
     19          6           0       -3.805064    3.606550    3.207608
     20          6           0       -4.526655    4.561353    2.608475
     21          6           0       -5.229622    3.937666    1.448329
     22          6           0       -2.825266    3.832055    4.356089
     23          6           0       -4.617761    6.010944    2.851105
     24          8           0       -4.032698    6.642304    3.709707
     25          7           0       -6.891700    2.577039   -0.794834
     26          6           0       -7.018215    3.932946   -0.371787
     27          6           0       -8.063972    4.550907   -1.208362
     28          6           0       -8.596581    3.600280   -1.960334
     29          6           0       -7.869270    2.419709   -1.713354
     30          6           0       -8.467561    5.951283   -1.081998
     31          6           0       -9.713784    3.731732   -3.011974
     32          6           0       -9.016214    3.915873   -4.470888
     33          7           0       -6.350301   -0.086819   -1.118797
     34          6           0       -7.439230   -0.024119   -2.078469
     35          6           0       -7.664437   -1.321260   -2.714130
     36          6           0       -6.808405   -2.147247   -2.071002
     37          6           0       -6.055047   -1.340384   -1.111616
     38          6           0       -8.672570   -1.639299   -3.759993
     39          6           0       -6.261231   -3.557789   -2.001790
     40          8           0       -6.608524   -4.486769   -2.620248
     41          6           0       -5.106134   -3.550670   -0.910173
     42          6           0       -5.502111   -4.612745    0.192004
     43          8           0       -6.083137   -4.422311    1.235541
     44          8           0       -5.136283   -5.867503   -0.285605
     45          6           0       -5.388260   -7.019233    0.591429
     46          6           0        2.438262   -5.073016    0.733359
     47          6           0        3.485049   -4.052439    0.980334
     48          6           0        4.181249   -3.235289    0.199889
     49          6           0        3.766119   -3.091018   -1.233209
     50          6           0        5.242205   -2.202136    0.743096
     51          6           0        6.680365   -2.565030    0.102391
     52          6           0        7.801111   -1.585825    0.596667
     53          6           0        9.121848   -1.937011   -0.114549
     54          6           0        9.605695   -3.363296    0.102574
     55          6           0       10.104156   -0.873224    0.345397
     56          6           0       11.556657   -0.994698   -0.193372
     57          6           0       12.363380    0.315391    0.120649
     58          6           0       13.702159    0.361562   -0.565625
     59          6           0       14.603204   -0.770506   -0.271461
     60          6           0       14.392507    1.755761   -0.281955
     61          6           0       15.570713    2.089289   -0.997766
     62          6           0       16.182477    3.489987   -0.640479
     63          6           0       17.430235    3.954634   -1.399319
     64          6           0       17.318798    3.967477   -2.896409
     65          6           0       17.991954    5.214882   -0.734007
     66          1           0       -2.803478    0.988182    3.605961
     67          1           0       -6.457928    5.761046    0.679269
     68          1           0       -8.968731    1.318128   -3.152808
     69          1           0       -3.418408   -3.475773    1.619828
     70          1           0       -1.742349   -1.333769    2.675036
     71          1           0       -3.153541   -2.780706    4.301075
     72          1           0       -3.060396   -1.160445    4.636840
     73          1           0       -4.474947   -1.809678    4.081067
     74          1           0       -2.307947   -3.366585   -0.287162
     75          1           0       -1.451426   -1.782083    0.137201
     76          1           0       -0.785286   -3.044851    2.468292
     77          1           0       -1.473826   -4.517841    1.816239
     78          1           0       -1.737845    3.779764    3.966881
     79          1           0       -2.978159    4.896421    4.641798
     80          1           0       -3.080396    3.133556    5.291515
     81          1           0       -5.316484    6.513847    2.209890
     82          1           0      -10.378315    3.039706   -2.983119
     83          1           0      -10.157483    4.696417   -2.720114
     84          1           0      -10.023212    3.800891   -5.103710
     85          1           0       -8.318372    4.821667   -4.506738
     86          1           0       -8.518615    3.029189   -4.943268
     87          1           0       -8.422964   -1.141009   -4.757850
     88          1           0       -8.686943   -2.501232   -4.051615
     89          1           0       -9.615378   -1.408318   -3.517757
     90          1           0       -4.109604   -3.695261   -1.346089
     91          1           0        2.768373   -6.235229    1.057699
     92          1           0        2.452919   -5.264736   -0.474097
     93          1           0        3.997325   -4.100072    2.089017
     94          1           0        2.810848   -3.198606   -1.155883
     95          1           0        4.062248   -2.176465   -1.667165
     96          1           0        4.335064   -3.762866   -2.025918
     97          1           0        4.949041   -1.104558    0.457336
     98          1           0        5.223448   -2.223359    1.835679
     99          1           0        6.821481   -3.579254    0.408648
    100          1           0        6.563700   -2.625234   -1.041887
    101          1           0        7.584168   -0.546255    0.388547
    102          1           0        7.698677   -1.753865    1.781774
    103          1           0        9.013223   -1.793178   -1.245376
    104          1           0        8.772378   -4.131800   -0.171720
    105          1           0       10.173345   -3.780278   -0.925725
    106          1           0       10.098129   -3.579081    1.116853
    107          1           0        9.631031    0.043048    0.329320
    108          1           0       10.429624   -1.026349    1.440060
    109          1           0       12.133267   -1.859946    0.048247
    110          1           0       11.576416   -1.116489   -1.364829
    111          1           0       11.787384    1.287926   -0.213280
    112          1           0       12.448336    0.185867    1.220716
    113          1           0       13.302502    0.633271   -1.733324
    114          1           0       14.749261   -0.362803    0.863374
    115          1           0       14.401726   -1.734135   -0.497545
    116          1           0       15.565411   -0.656404   -0.705791
    117          1           0       13.646738    2.317293   -0.429044
    118          1           0       14.519166    2.030906    0.844966
    119          1           0       16.395172    1.402494   -0.742045
    120          1           0       15.483577    1.987552   -2.003747
    121          1           0       15.464520    4.394437   -0.714466
    122          1           0       16.489102    3.322617    0.404363
    123          1           0       18.328765    3.301011   -1.178238
    124          1           0       16.530831    4.700101   -3.218681
    125          1           0       18.191618    4.194823   -3.348035
    126          1           0       17.087492    3.092535   -3.378119
    127          1           0       18.313495    4.695950    0.254541
    128          1           0       18.777657    5.478995   -1.329942
    129          1           0       17.145295    6.016667   -0.877201
    130          1           0       -4.784039   -7.970938    0.187907
    131          1           0       -6.482375   -7.071121    0.933439
    132          1           0       -4.773037   -6.634197    1.494206
    133          8           0       -7.937016    6.751955   -0.278596
    134          1           0       -8.995754    6.433461   -2.024212
 ---------------------------------------------------------------------

 SCF Done:  E(RCAM-B3LYP) =  -3043.38099403     A.U. after   17 cycles

 Excitation energies and oscillator strengths:

 Excited State   1:      Singlet-A      1.9739 eV  628.13 nm  f=0.1850  <S**2>=0.000
     243 -> 246       -0.24667
     244 -> 245        0.65413
 This state for optimization and/or second-order correction.
 Total Energy, E(TD-HF/TD-KS) =  -3043.30845594
 Copying the excited state density for this state as the 1-particle RhoCI density.

 The electronic state is 1-A.
 Alpha  occ. eigenvalues --  -46.80750 -19.23250 -19.22134 -19.18348 -19.18141
 Alpha  occ. eigenvalues --  -19.17871 -19.17716 -19.16545 -14.38239 -14.37598
 Alpha  occ. eigenvalues --  -14.37289 -14.37112 -10.36677 -10.35884 -10.32141
 Alpha  occ. eigenvalues --  -10.31534 -10.30984 -10.29526 -10.29286 -10.27552
 Alpha  occ. eigenvalues --  -10.27471 -10.27358 -10.26887 -10.26648 -10.26452
 Alpha  occ. eigenvalues --  -10.26357 -10.25657 -10.25619 -10.25537 -10.25470
 Alpha  occ. eigenvalues --  -10.25404 -10.25161 -10.25101 -10.24854 -10.24579
 Alpha  occ. eigenvalues --  -10.24543 -10.23704 -10.23483 -10.23407 -10.23338
 Alpha  occ. eigenvalues --  -10.23255 -10.22983 -10.22871 -10.22794 -10.22639
 Alpha  occ. eigenvalues --  -10.22636 -10.22579 -10.22415 -10.22284 -10.22220
 Alpha  occ. eigenvalues --  -10.22174 -10.22005 -10.21610 -10.21298 -10.21012
 Alpha  occ. eigenvalues --  -10.20980 -10.20941 -10.20752 -10.20560 -10.20529
 Alpha  occ. eigenvalues --  -10.20363 -10.20137 -10.19187 -10.19102 -10.18703
 Alpha  occ. eigenvalues --  -10.18339  -3.09553  -1.84466  -1.84052  -1.83969
 Alpha  occ. eigenvalues --   -1.12233  -1.10641  -1.10466  -1.06237  -1.05631
 Alpha  occ. eigenvalues --   -1.04741  -1.02296  -1.00908  -0.99139  -0.98653
 Alpha  occ. eigenvalues --   -0.97825  -0.87462  -0.86116  -0.85820  -0.85460
 Alpha  occ. eigenvalues --   -0.85329  -0.85003  -0.84557  -0.83624  -0.83428
 Alpha  occ. eigenvalues --   -0.83241  -0.82521  -0.81103  -0.80060  -0.79250
 Alpha  occ. eigenvalues --   -0.78392  -0.78240  -0.77340  -0.77062  -0.75807
 Alpha  occ. eigenvalues --   -0.75496  -0.74903  -0.74319  -0.72416  -0.72102
 Alpha  occ. eigenvalues --   -0.71724  -0.71442  -0.70903  -0.70137  -0.69615
 Alpha  occ. eigenvalues --   -0.69191  -0.68797  -0.67302  -0.67176  -0.65936
 Alpha  occ. eigenvalues --   -0.65517  -0.64907  -0.63614  -0.62510  -0.61955
 Alpha  occ. eigenvalues --   -0.60700  -0.60432  -0.59716  -0.58794  -0.58285
 Alpha  occ. eigenvalues --   -0.58227  -0.57589  -0.57490  -0.57194  -0.56394
 Alpha  occ. eigenvalues --   -0.56084  -0.55998  -0.54794  -0.54645  -0.54027
 Alpha  occ. eigenvalues --   -0.53793  -0.53422  -0.52379  -0.52202  -0.52044
 Alpha  occ. eigenvalues --   -0.51795  -0.51220  -0.50921  -0.50815  -0.50546
 Alpha  occ. eigenvalues --   -0.50250  -0.49921  -0.49814  -0.49570  -0.49190
 Alpha  occ. eigenvalues --   -0.48930  -0.48658  -0.48440  -0.48037  -0.47593
 Alpha  occ. eigenvalues --   -0.47484  -0.47386  -0.47112  -0.46947  -0.46706
 Alpha  occ. eigenvalues --   -0.46526  -0.46415  -0.46115  -0.45927  -0.45775
 Alpha  occ. eigenvalues --   -0.45582  -0.45355  -0.45145  -0.44971  -0.44915
 Alpha  occ. eigenvalues --   -0.44527  -0.44218  -0.44049  -0.43855  -0.43776
 Alpha  occ. eigenvalues --   -0.43590  -0.43481  -0.43304  -0.42862  -0.42747
 Alpha  occ. eigenvalues --   -0.42598  -0.42491  -0.42439  -0.42299  -0.42213
 Alpha  occ. eigenvalues --   -0.41987  -0.41689  -0.41507  -0.41229  -0.41010
 Alpha  occ. eigenvalues --   -0.40807  -0.40664  -0.40482  -0.40434  -0.40387
 Alpha  occ. eigenvalues --   -0.39995  -0.39774  -0.39569  -0.39276  -0.39059
 Alpha  occ. eigenvalues --   -0.38588  -0.38543  -0.38316  -0.38225  -0.38101
 Alpha  occ. eigenvalues --   -0.37868  -0.37685  -0.37141  -0.36931  -0.36614
 Alpha  occ. eigenvalues --   -0.36318  -0.36085  -0.35907  -0.35757  -0.35679
 Alpha  occ. eigenvalues --   -0.35245  -0.35195  -0.34669  -0.34649  -0.34290
 Alpha  occ. eigenvalues --   -0.34162  -0.33965  -0.33780  -0.33101  -0.32794
 Alpha  occ. eigenvalues --   -0.32749  -0.32575  -0.32201  -0.32039  -0.31637
 Alpha  occ. eigenvalues --   -0.31281  -0.30962  -0.30221  -0.30154  -0.29984
 Alpha  occ. eigenvalues --   -0.29353  -0.28481  -0.28362  -0.28345  -0.28037
 Alpha  occ. eigenvalues --   -0.27481  -0.27166  -0.22435  -0.21362
 Alpha virt. eigenvalues --   -0.08530  -0.06142  -0.01220  -0.00615   0.00038
 Alpha virt. eigenvalues --    0.00903   0.03033   0.03217   0.03469   0.04531
 Alpha virt. eigenvalues --    0.05031   0.05828   0.07778   0.08134   0.09185

 Mulliken charges:
               1
     1  Mg   0.825275
     2  C    0.033473
     3  C   -0.208101
     4  C   -0.175460
     5  C   -0.165223
     6  N   -0.660221
     7  C    0.379297
     8  C   -0.163357
     9  C   -0.157849
    10  C    0.384071
    11  C   -0.305372
    12  C   -0.180677
    13  C   -0.271940
    14  C    0.638291
    15  O   -0.483504
    16  O   -0.474758
    17  N   -0.667852
    18  C    0.244747
    19  C    0.054261
    20  C   -0.017233
    21  C    0.273322
    22  C   -0.386195
    23  C    0.260061
    24  O   -0.423334
    25  N   -0.673862
    26  C    0.255004
    27  C   -0.011762
    28  C    0.024687
    29  C    0.294873
    30  C    0.221907
    31  C   -0.224294
    32  C   -0.314702
    33  N   -0.736204
    34  C    0.220274
    35  C    0.021379
    36  C    0.004249
    37  C    0.342458
    38  C   -0.343590
    39  C    0.384865
    40  O   -0.404806
    41  C   -0.330685
    42  C    0.611295
    43  O   -0.449861
    44  O   -0.464783
    45  C   -0.084293
    46  C   -0.009217
    47  C   -0.117071
    48  C    0.131651
    49  C   -0.365480
    50  C   -0.229154
    51  C   -0.186478
    52  C   -0.160077
    53  C   -0.032849
    54  C   -0.307772
    55  C   -0.157862
    56  C   -0.195640
    57  C   -0.151983
    58  C   -0.059298
    59  C   -0.293700
    60  C   -0.142817
    61  C   -0.169221
    62  C   -0.154708
    63  C   -0.083170
    64  C   -0.308760
    65  C   -0.281601
    66  H    0.067950
    67  H    0.168938
    68  H    0.097729
    69  H    0.103511
    70  H    0.107526
    71  H    0.105792
    72  H    0.125255
    73  H    0.128030
    74  H    0.120985
    75  H    0.126125
    76  H    0.120015
    77  H    0.134543
    78  H    0.122788
    79  H    0.161135
    80  H    0.103865
    81  H    0.077616
    82  H    0.118648
    83  H    0.112171
    84  H    0.095112
    85  H    0.125884
    86  H    0.118442
    87  H    0.111955
    88  H    0.140932
    89  H    0.135293
    90  H    0.160224
    91  H    0.113332
    92  H    0.115618
    93  H    0.054189
    94  H    0.156121
    95  H    0.110650
    96  H    0.091182
    97  H    0.093883
    98  H    0.096866
    99  H    0.115344
   100  H    0.083186
   101  H    0.098885
   102  H    0.079363
   103  H    0.086399
   104  H    0.093609
   105  H    0.075399
   106  H    0.108536
   107  H    0.095194
   108  H    0.078266
   109  H    0.109720
   110  H    0.056216
   111  H    0.077744
   112  H    0.082281
   113  H    0.037199
   114  H    0.087489
   115  H    0.110289
   116  H    0.107444
   117  H    0.092828
   118  H    0.054848
   119  H    0.087196
   120  H    0.097118
   121  H    0.071309
   122  H    0.086425
   123  H    0.065744
   124  H    0.084104
   125  H    0.104230
   126  H    0.111157
   127  H    0.101057
   128  H    0.109208
   129  H    0.084641
   130  H    0.129634
   131  H    0.144320
   132  H    0.111851
   133  O   -0.427861
   134  H    0.068661
 Sum of Mulliken charges =   0.00000

 Dipole moment (field-independent basis, Debye):
    X=              1.1472    Y=             -5.9878    Z=             -2.0427  Tot=              6.4298
 Quadrupole moment (field-independent basis, Debye-Ang):
   XX=           -356.4412   YY=           -436.6323   ZZ=           -393.5460
   XY=              3.3482   XZ=             23.3375   YZ=            -37.5692

 Normal termination of Gaussian 09 at Thu Oct  3 13:52:28 2019.
