 Gaussian 09, Revision D.01,
 Gaussian 09:  ES64L-G09RevD.01 24-Apr-2013

 ----------------------------------------------------------------------
 # td=(NStates=1) iop(3/107=0140000000,3/108=0140000000) iop(3/107=0140
 000000,3/108=0140000000) CAM-B3LYP/6-31G(d,p)
 ----------------------------------------------------------------------

 --
 TD
 --
 Symbolic Z-matrix:
 Charge =  0 Multiplicity = 1

                         Standard orientation:
 ---------------------------------------------------------------------
 Center     Atomic      Atomic             Coordinates (Angstroms)
 Number     Number       Type             X           Y           Z
 ---------------------------------------------------------------------
      1         12           0       -5.622701    1.239571    0.243703
      2          6           0       -4.951840   -2.037054   -0.327628
      3          6           0       -3.342429    1.244806    2.672068
      4          6           0       -6.250553    4.482355    0.723802
      5          6           0       -7.986405    1.172910   -2.380642
      6          7           0       -4.361607   -0.273072    1.053414
      7          6           0       -4.169000   -1.559029    0.695562
      8          6           0       -3.150627   -2.207708    1.516709
      9          6           0       -2.903871   -1.215192    2.611486
     10          6           0       -3.585755    0.044377    2.115705
     11          6           0       -3.383120   -1.672280    3.965313
     12          6           0       -1.827063   -2.677698    0.698330
     13          6           0       -0.980390   -3.676939    1.347823
     14          6           0        0.256722   -3.963333    0.704648
     15          8           0        0.538424   -3.542416   -0.408203
     16          8           0        1.122091   -4.759742    1.409651
     17          7           0       -4.925068    2.642027    1.445894
     18          6           0       -3.985127    2.505761    2.460375
     19          6           0       -3.735723    3.688274    3.111756
     20          6           0       -4.559656    4.750893    2.515992
     21          6           0       -5.319655    3.936153    1.524306
     22          6           0       -2.761284    4.006508    4.207231
     23          6           0       -4.697362    6.063740    2.855037
     24          8           0       -3.988278    6.772780    3.567029
     25          7           0       -6.914152    2.505082   -0.583347
     26          6           0       -6.905505    3.936204   -0.292923
     27          6           0       -7.832289    4.501084   -1.209089
     28          6           0       -8.290473    3.594136   -2.176134
     29          6           0       -7.711745    2.389858   -1.775028
     30          6           0       -8.368436    5.943011   -1.247325
     31          6           0       -9.319112    3.674472   -3.217674
     32          6           0       -8.694158    3.891450   -4.622470
     33          7           0       -6.360279   -0.172203   -1.075225
     34          6           0       -7.353360   -0.088245   -2.007477
     35          6           0       -7.545265   -1.344889   -2.790590
     36          6           0       -6.700906   -2.267904   -2.029954
     37          6           0       -5.972357   -1.438290   -1.112988
     38          6           0       -8.518183   -1.661081   -3.814218
     39          6           0       -6.176278   -3.568928   -1.929595
     40          8           0       -6.504713   -4.622981   -2.543848
     41          6           0       -5.000505   -3.541822   -0.809927
     42          6           0       -5.191040   -4.670641    0.139826
     43          8           0       -5.739389   -4.481520    1.312272
     44          8           0       -4.985889   -5.851036   -0.348830
     45          6           0       -5.121581   -7.016787    0.487106
     46          6           0        2.348408   -5.026399    0.606613
     47          6           0        3.438764   -4.145850    1.061053
     48          6           0        3.984961   -3.219869    0.195731
     49          6           0        3.631093   -3.035470   -1.229944
     50          6           0        5.130612   -2.334407    0.693229
     51          6           0        6.496216   -2.828110    0.106324
     52          6           0        7.614948   -1.770462    0.562833
     53          6           0        8.994237   -2.035575   -0.092215
     54          6           0        9.538085   -3.385513    0.347446
     55          6           0        9.937064   -0.910078    0.328208
     56          6           0       11.245748   -0.951140   -0.320290
     57          6           0       12.223913    0.185155    0.159991
     58          6           0       13.405644    0.498657   -0.652285
     59          6           0       14.344839   -0.807124   -0.616661
     60          6           0       14.056679    1.833724   -0.248377
     61          6           0       15.282566    2.180538   -1.025412
     62          6           0       15.936524    3.547276   -0.694199
     63          6           0       17.255133    3.896082   -1.329388
     64          6           0       17.158851    4.156148   -2.836646
     65          6           0       17.851765    5.226736   -0.603125
     66          1           0       -2.612416    1.334334    3.283460
     67          1           0       -6.610632    5.540282    0.963521
     68          1           0       -8.768953    1.114962   -3.290914
     69          1           0       -3.729748   -3.058452    1.669254
     70          1           0       -1.853655   -1.043791    2.528496
     71          1           0       -2.750083   -2.415581    4.283471
     72          1           0       -3.393707   -0.773217    4.759234
     73          1           0       -4.342511   -2.150449    4.005338
     74          1           0       -2.415740   -3.391776   -0.238788
     75          1           0       -1.172591   -1.917999    0.472218
     76          1           0       -0.811066   -3.426042    2.414765
     77          1           0       -1.586922   -4.741139    1.346414
     78          1           0       -1.616849    4.008715    4.093954
     79          1           0       -2.907526    5.021120    4.727471
     80          1           0       -2.827690    3.170441    4.988969
     81          1           0       -5.431390    6.713660    2.143934
     82          1           0       -9.853961    2.666507   -3.031489
     83          1           0       -9.973888    4.577159   -3.110533
     84          1           0       -9.404182    3.840350   -5.443572
     85          1           0       -8.148548    4.705216   -4.556013
     86          1           0       -8.165032    3.044670   -4.888386
     87          1           0       -8.191442   -1.245966   -4.788175
     88          1           0       -8.617129   -2.850302   -3.958047
     89          1           0       -9.702916   -1.290258   -3.472600
     90          1           0       -4.254209   -3.735614   -1.480988
     91          1           0        2.627484   -6.022102    1.110228
     92          1           0        2.146761   -4.728545   -0.413080
     93          1           0        3.809244   -4.245072    2.157653
     94          1           0        2.675703   -3.084361   -1.572400
     95          1           0        3.611517   -1.763238   -1.347850
     96          1           0        4.218988   -3.598011   -1.796323
     97          1           0        5.073872   -1.250285    0.387727
     98          1           0        5.202959   -2.402139    1.933555
     99          1           0        6.646749   -3.780966    0.341414
    100          1           0        6.493679   -2.711106   -1.011674
    101          1           0        7.283411   -0.629866    0.071106
    102          1           0        7.849553   -1.995389    1.625040
    103          1           0        9.080685   -2.155339   -1.261409
    104          1           0        8.847236   -4.287453    0.004763
    105          1           0       10.520306   -3.163999   -0.264282
    106          1           0        9.928177   -3.615015    1.429888
    107          1           0        9.289897   -0.004274    0.394800
    108          1           0       10.323595   -1.029188    1.492719
    109          1           0       11.600004   -1.935267   -0.052904
    110          1           0       11.117944   -0.997935   -1.594347
    111          1           0       11.569101    1.085869    0.378519
    112          1           0       12.473220    0.174620    1.329242
    113          1           0       13.147459    0.478005   -1.724583
    114          1           0       14.987014   -0.572658    0.287607
    115          1           0       13.771376   -1.876212   -0.774897
    116          1           0       15.231315   -0.635309   -1.448928
    117          1           0       13.387105    2.724083   -0.404231
    118          1           0       14.144591    1.744041    0.802761
    119          1           0       15.975805    1.289147   -0.865562
    120          1           0       15.058148    2.232746   -2.094352
    121          1           0       15.096793    4.550280   -0.712780
    122          1           0       16.237591    3.477357    0.309823
    123          1           0       17.656338    2.865200   -1.211772
    124          1           0       16.682755    5.138975   -3.019954
    125          1           0       18.181349    4.370707   -3.095418
    126          1           0       16.815131    3.336120   -3.561221
    127          1           0       18.234172    4.970446    0.442758
    128          1           0       18.699371    5.647871   -1.145673
    129          1           0       16.986568    6.092824   -0.556083
    130          1           0       -5.325113   -7.906743   -0.281260
    131          1           0       -6.124468   -6.810085    1.142889
    132          1           0       -4.107589   -6.883863    1.278565
    133          8           0       -8.009740    6.787229   -0.357147
    134          1           0       -9.093197    6.248164   -2.121807
 ---------------------------------------------------------------------

 SCF Done:  E(RCAM-B3LYP) =  -3043.31880648     A.U. after   16 cycles

 Excitation energies and oscillator strengths:

 Excited State   1:      Singlet-A      1.9510 eV  635.47 nm  f=0.2245  <S**2>=0.000
     243 -> 246       -0.26811
     244 -> 245        0.63913
 This state for optimization and/or second-order correction.
 Total Energy, E(TD-HF/TD-KS) =  -3043.24710675
 Copying the excited state density for this state as the 1-particle RhoCI density.

 The electronic state is 1-A.
 Alpha  occ. eigenvalues --  -46.80945 -19.24074 -19.21763 -19.17895 -19.17130
 Alpha  occ. eigenvalues --  -19.16853 -19.15897 -19.15845 -14.38849 -14.37235
 Alpha  occ. eigenvalues --  -14.37097 -14.36952 -10.35574 -10.34728 -10.32284
 Alpha  occ. eigenvalues --  -10.31720 -10.31618 -10.29296 -10.27637 -10.27544
 Alpha  occ. eigenvalues --  -10.27049 -10.26948 -10.26869 -10.26582 -10.26422
 Alpha  occ. eigenvalues --  -10.26392 -10.26325 -10.26274 -10.26108 -10.25956
 Alpha  occ. eigenvalues --  -10.25194 -10.25149 -10.24845 -10.24791 -10.24742
 Alpha  occ. eigenvalues --  -10.24544 -10.24345 -10.24203 -10.23799 -10.23607
 Alpha  occ. eigenvalues --  -10.23446 -10.23430 -10.23347 -10.23255 -10.23162
 Alpha  occ. eigenvalues --  -10.23141 -10.22953 -10.22878 -10.22826 -10.22633
 Alpha  occ. eigenvalues --  -10.22535 -10.22416 -10.22255 -10.22210 -10.21968
 Alpha  occ. eigenvalues --  -10.21809 -10.21800 -10.21723 -10.21651 -10.21396
 Alpha  occ. eigenvalues --  -10.21172 -10.21053 -10.20897 -10.20880 -10.20657
 Alpha  occ. eigenvalues --  -10.20082  -3.09738  -1.84657  -1.84199  -1.84181
 Alpha  occ. eigenvalues --   -1.15053  -1.12659  -1.05023  -1.04399  -1.04045
 Alpha  occ. eigenvalues --   -1.03961  -1.01983  -1.00837  -1.00475  -1.00170
 Alpha  occ. eigenvalues --   -0.97281  -0.88558  -0.87191  -0.86856  -0.86304
 Alpha  occ. eigenvalues --   -0.85469  -0.85353  -0.84823  -0.84230  -0.83849
 Alpha  occ. eigenvalues --   -0.83337  -0.83226  -0.82971  -0.81074  -0.80133
 Alpha  occ. eigenvalues --   -0.79381  -0.78810  -0.78252  -0.78044  -0.76681
 Alpha  occ. eigenvalues --   -0.75724  -0.75294  -0.74832  -0.73541  -0.72629
 Alpha  occ. eigenvalues --   -0.71027  -0.70474  -0.70272  -0.69895  -0.69607
 Alpha  occ. eigenvalues --   -0.69308  -0.69015  -0.67805  -0.67554  -0.67001
 Alpha  occ. eigenvalues --   -0.66586  -0.64501  -0.64140  -0.63775  -0.62463
 Alpha  occ. eigenvalues --   -0.62272  -0.60718  -0.60053  -0.58666  -0.58425
 Alpha  occ. eigenvalues --   -0.58083  -0.57941  -0.57289  -0.57217  -0.56716
 Alpha  occ. eigenvalues --   -0.56412  -0.55845  -0.55744  -0.55200  -0.54884
 Alpha  occ. eigenvalues --   -0.54469  -0.53834  -0.53194  -0.52949  -0.52659
 Alpha  occ. eigenvalues --   -0.52074  -0.51934  -0.51421  -0.50782  -0.50692
 Alpha  occ. eigenvalues --   -0.50474  -0.50003  -0.49755  -0.49372  -0.49229
 Alpha  occ. eigenvalues --   -0.49145  -0.48715  -0.48482  -0.48260  -0.48178
 Alpha  occ. eigenvalues --   -0.47635  -0.47398  -0.47284  -0.47141  -0.46904
 Alpha  occ. eigenvalues --   -0.46868  -0.46650  -0.46292  -0.45895  -0.45676
 Alpha  occ. eigenvalues --   -0.45574  -0.45506  -0.45231  -0.45135  -0.44814
 Alpha  occ. eigenvalues --   -0.44459  -0.44154  -0.44078  -0.43833  -0.43695
 Alpha  occ. eigenvalues --   -0.43109  -0.42943  -0.42823  -0.42702  -0.42481
 Alpha  occ. eigenvalues --   -0.42228  -0.42070  -0.42065  -0.41986  -0.41974
 Alpha  occ. eigenvalues --   -0.41605  -0.41380  -0.41035  -0.40539  -0.40493
 Alpha  occ. eigenvalues --   -0.40357  -0.40132  -0.40019  -0.39895  -0.39727
 Alpha  occ. eigenvalues --   -0.39594  -0.39386  -0.39283  -0.39226  -0.39074
 Alpha  occ. eigenvalues --   -0.38898  -0.38838  -0.38734  -0.38489  -0.38452
 Alpha  occ. eigenvalues --   -0.38040  -0.37871  -0.37621  -0.37402  -0.37176
 Alpha  occ. eigenvalues --   -0.37160  -0.36943  -0.36132  -0.36069  -0.35575
 Alpha  occ. eigenvalues --   -0.35404  -0.35211  -0.35049  -0.34711  -0.34409
 Alpha  occ. eigenvalues --   -0.34148  -0.33852  -0.33352  -0.33207  -0.32909
 Alpha  occ. eigenvalues --   -0.32860  -0.32414  -0.32267  -0.31603  -0.31403
 Alpha  occ. eigenvalues --   -0.30933  -0.30812  -0.30460  -0.30445  -0.29370
 Alpha  occ. eigenvalues --   -0.28616  -0.28261  -0.27958  -0.27658  -0.27483
 Alpha  occ. eigenvalues --   -0.26642  -0.26364  -0.23071  -0.22534
 Alpha virt. eigenvalues --   -0.10050  -0.07120  -0.02293  -0.01730   0.00535
 Alpha virt. eigenvalues --    0.00951   0.02560   0.03369   0.03756   0.04001
 Alpha virt. eigenvalues --    0.04830   0.05618   0.06526   0.07705   0.08040

 Mulliken charges:
               1
     1  Mg   0.822358
     2  C    0.057876
     3  C   -0.146268
     4  C   -0.203581
     5  C   -0.195404
     6  N   -0.633765
     7  C    0.327912
     8  C   -0.151991
     9  C   -0.147812
    10  C    0.351223
    11  C   -0.304154
    12  C   -0.146979
    13  C   -0.260957
    14  C    0.637841
    15  O   -0.487811
    16  O   -0.488326
    17  N   -0.732008
    18  C    0.320807
    19  C    0.039676
    20  C    0.084621
    21  C    0.324416
    22  C   -0.403720
    23  C    0.163414
    24  O   -0.432630
    25  N   -0.706305
    26  C    0.326548
    27  C   -0.068877
    28  C    0.094003
    29  C    0.304288
    30  C    0.241646
    31  C   -0.268976
    32  C   -0.307048
    33  N   -0.681479
    34  C    0.261375
    35  C    0.056014
    36  C    0.085466
    37  C    0.279173
    38  C   -0.393524
    39  C    0.297534
    40  O   -0.488177
    41  C   -0.307412
    42  C    0.608238
    43  O   -0.539217
    44  O   -0.394592
    45  C   -0.081957
    46  C   -0.011486
    47  C   -0.118300
    48  C    0.115513
    49  C   -0.367164
    50  C   -0.207285
    51  C   -0.176876
    52  C   -0.155917
    53  C   -0.066075
    54  C   -0.293684
    55  C   -0.148988
    56  C   -0.164321
    57  C   -0.168559
    58  C   -0.044957
    59  C   -0.313655
    60  C   -0.173112
    61  C   -0.188655
    62  C   -0.139255
    63  C   -0.048826
    64  C   -0.311951
    65  C   -0.317384
    66  H    0.055554
    67  H    0.147998
    68  H    0.099717
    69  H    0.130071
    70  H    0.110011
    71  H    0.121511
    72  H    0.092082
    73  H    0.138230
    74  H    0.074196
    75  H    0.122848
    76  H    0.134390
    77  H    0.122237
    78  H    0.125353
    79  H    0.160054
    80  H    0.102197
    81  H    0.053958
    82  H    0.109312
    83  H    0.110712
    84  H    0.110402
    85  H    0.128051
    86  H    0.117989
    87  H    0.140384
    88  H    0.148577
    89  H    0.105455
    90  H    0.163173
    91  H    0.108974
    92  H    0.150746
    93  H    0.079662
    94  H    0.161058
    95  H    0.072167
    96  H    0.138140
    97  H    0.095292
    98  H    0.066842
    99  H    0.108006
   100  H    0.095160
   101  H    0.060111
   102  H    0.105026
   103  H    0.079454
   104  H    0.089657
   105  H    0.083834
   106  H    0.091327
   107  H    0.088887
   108  H    0.062173
   109  H    0.117141
   110  H    0.049532
   111  H    0.085595
   112  H    0.068051
   113  H    0.089706
   114  H    0.101607
   115  H    0.105460
   116  H    0.074526
   117  H    0.094073
   118  H    0.093369
   119  H    0.079532
   120  H    0.101035
   121  H    0.029544
   122  H    0.097200
   123  H    0.087798
   124  H    0.099208
   125  H    0.102168
   126  H    0.096143
   127  H    0.104772
   128  H    0.109321
   129  H    0.093513
   130  H    0.143553
   131  H    0.145913
   132  H    0.108848
   133  O   -0.432392
   134  H    0.083291
 Sum of Mulliken charges =   0.00000

 Dipole moment (field-independent basis, Debye):
    X=              1.9912    Y=             -5.1394    Z=             -2.5087  Tot=              6.0557
 Quadrupole moment (field-independent basis, Debye-Ang):
   XX=           -372.1830   YY=           -448.4638   ZZ=           -391.6924
   XY=             13.6447   XZ=             36.4920   YZ=            -35.3864

 Normal termination of Gaussian 09 at Wed Oct  9 08:57:33 2019.
