 Gaussian 09, Revision D.01,
 Gaussian 09:  ES64L-G09RevD.01 24-Apr-2013

 ----------------------------------------------------------------------
 # td=(NStates=1) iop(3/107=0140000000,3/108=0140000000) iop(3/107=0140
 000000,3/108=0140000000) CAM-B3LYP/6-31G(d,p)
 ----------------------------------------------------------------------

 --
 TD
 --
 Symbolic Z-matrix:
 Charge =  0 Multiplicity = 1

                         Standard orientation:
 ---------------------------------------------------------------------
 Center     Atomic      Atomic             Coordinates (Angstroms)
 Number     Number       Type             X           Y           Z
 ---------------------------------------------------------------------
      1         12           0       -5.573152    1.275470    0.161847
      2          6           0       -5.056758   -2.067910   -0.392971
      3          6           0       -3.334062    1.137663    2.792761
      4          6           0       -6.181001    4.599844    0.624445
      5          6           0       -8.037896    1.157386   -2.328269
      6          7           0       -4.451287   -0.359119    1.161586
      7          6           0       -4.242390   -1.622202    0.655781
      8          6           0       -3.221404   -2.329246    1.450855
      9          6           0       -2.876391   -1.270687    2.675068
     10          6           0       -3.679445   -0.046992    2.200949
     11          6           0       -3.364997   -1.798059    4.054705
     12          6           0       -2.000247   -2.805930    0.684216
     13          6           0       -1.036998   -3.698698    1.455013
     14          6           0        0.180319   -3.924793    0.596967
     15          8           0        0.440721   -3.428017   -0.504781
     16          8           0        1.086815   -4.633151    1.272629
     17          7           0       -4.883964    2.633678    1.451010
     18          6           0       -4.037508    2.354847    2.538073
     19          6           0       -3.730914    3.585136    3.142381
     20          6           0       -4.557512    4.561450    2.672281
     21          6           0       -5.289738    3.936526    1.552087
     22          6           0       -2.886916    3.767679    4.457812
     23          6           0       -4.669682    5.956733    3.021063
     24          8           0       -3.994388    6.482178    3.883694
     25          7           0       -6.846841    2.604786   -0.756829
     26          6           0       -6.880635    4.010100   -0.415712
     27          6           0       -7.887046    4.644956   -1.192206
     28          6           0       -8.444142    3.675937   -1.961321
     29          6           0       -7.746226    2.425409   -1.732384
     30          6           0       -8.228561    6.062844   -1.266304
     31          6           0       -9.400440    3.784652   -3.188879
     32          6           0       -8.675052    3.937136   -4.522008
     33          7           0       -6.361704   -0.065788   -1.151998
     34          6           0       -7.318180    0.001851   -2.129958
     35          6           0       -7.584612   -1.310905   -2.685233
     36          6           0       -6.696477   -2.153265   -2.073887
     37          6           0       -6.015534   -1.369183   -1.085903
     38          6           0       -8.571692   -1.565557   -3.741105
     39          6           0       -6.190772   -3.560822   -2.022791
     40          8           0       -6.681298   -4.435800   -2.639101
     41          6           0       -5.005683   -3.558164   -0.987080
     42          6           0       -5.333867   -4.666491   -0.016089
     43          8           0       -5.707711   -4.358931    1.096160
     44          8           0       -5.069431   -5.858625   -0.533111
     45          6           0       -5.427934   -7.035570    0.299681
     46          6           0        2.322256   -4.948852    0.677216
     47          6           0        3.485221   -4.095738    1.023009
     48          6           0        4.058669   -3.227080    0.168558
     49          6           0        3.792663   -3.142117   -1.215533
     50          6           0        5.194464   -2.538072    0.679729
     51          6           0        6.600265   -2.750546    0.142217
     52          6           0        7.672557   -1.757902    0.621378
     53          6           0        9.140083   -1.892057   -0.027380
     54          6           0        9.565062   -3.352634    0.284570
     55          6           0        9.977962   -0.745151    0.450583
     56          6           0       11.404494   -0.876235   -0.188372
     57          6           0       12.193569    0.382694    0.281701
     58          6           0       13.558884    0.483556   -0.514195
     59          6           0       14.559360   -0.741176   -0.201256
     60          6           0       14.294118    1.791299   -0.138001
     61          6           0       15.424130    2.157362   -1.030514
     62          6           0       15.993993    3.466653   -0.598341
     63          6           0       17.164483    3.853894   -1.542555
     64          6           0       16.906802    3.962469   -3.021271
     65          6           0       17.827085    5.182030   -0.998684
     66          1           0       -2.516213    1.126394    3.417274
     67          1           0       -6.237092    5.633290    0.543295
     68          1           0       -8.812832    1.095181   -3.128152
     69          1           0       -3.795012   -3.213333    1.961264
     70          1           0       -1.788125   -1.036318    2.752450
     71          1           0       -2.973297   -2.735297    4.319442
     72          1           0       -3.153567   -1.220440    4.819516
     73          1           0       -4.507870   -2.085586    4.134219
     74          1           0       -2.283754   -3.539481    0.000378
     75          1           0       -1.603599   -1.936344    0.177625
     76          1           0       -0.650498   -3.409485    2.450409
     77          1           0       -1.468935   -4.654504    1.623863
     78          1           0       -1.916659    3.326798    4.137454
     79          1           0       -2.999520    4.885080    4.818329
     80          1           0       -3.060577    3.163318    5.193451
     81          1           0       -5.668458    6.496344    2.650071
     82          1           0      -10.106239    2.914281   -3.016113
     83          1           0      -10.070638    4.517645   -3.179939
     84          1           0       -9.457478    3.873442   -5.273042
     85          1           0       -8.045315    4.916246   -4.395297
     86          1           0       -8.030540    3.061155   -4.578271
     87          1           0       -8.339727   -1.006481   -4.753361
     88          1           0       -8.773285   -2.579193   -4.047623
     89          1           0       -9.416021   -1.229224   -3.468694
     90          1           0       -4.113906   -3.787922   -1.613270
     91          1           0        2.411734   -5.948581    1.028285
     92          1           0        2.240110   -4.778732   -0.458222
     93          1           0        3.843947   -4.238673    2.037646
     94          1           0        2.804762   -3.261159   -1.577086
     95          1           0        4.106907   -2.130933   -1.495166
     96          1           0        4.464591   -3.833927   -1.975686
     97          1           0        5.124670   -1.339992    0.170665
     98          1           0        5.314682   -2.410713    1.792452
     99          1           0        7.007970   -3.885893    0.484285
    100          1           0        6.676160   -2.723302   -0.937634
    101          1           0        7.338945   -0.775235    0.508867
    102          1           0        7.579144   -1.912068    1.651469
    103          1           0        8.828393   -1.898447   -1.049598
    104          1           0        8.878863   -4.189253   -0.122160
    105          1           0       10.484959   -3.514866   -0.334234
    106          1           0        9.818531   -3.429104    1.285071
    107          1           0        9.463022    0.272956    0.113941
    108          1           0       10.012962   -0.709987    1.632740
    109          1           0       11.889407   -1.751182   -0.158823
    110          1           0       11.187894   -0.755030   -1.337413
    111          1           0       11.400439    1.166722    0.418596
    112          1           0       12.629296    0.354247    1.400657
    113          1           0       13.466393    0.447206   -1.699205
    114          1           0       14.751227   -0.692884    0.764962
    115          1           0       13.981899   -1.735321   -0.612663
    116          1           0       15.477012   -0.561800   -0.836141
    117          1           0       13.478180    2.527989   -0.202365
    118          1           0       14.661533    1.892330    0.922362
    119          1           0       16.038615    1.416320   -1.111198
    120          1           0       14.928468    2.329270   -1.982155
    121          1           0       15.178540    4.266932   -0.729105
    122          1           0       16.240082    3.610988    0.445158
    123          1           0       17.864444    2.995662   -1.548025
    124          1           0       16.022025    4.587933   -3.296063
    125          1           0       17.803761    4.140200   -3.572501
    126          1           0       16.820580    3.027212   -3.330118
    127          1           0       18.132169    5.309566    0.001400
    128          1           0       18.824282    5.262073   -1.678574
    129          1           0       17.212738    6.010558   -1.192574
    130          1           0       -5.304045   -7.922754   -0.552047
    131          1           0       -6.408635   -6.918432    0.904113
    132          1           0       -4.703422   -7.311333    1.047365
    133          8           0       -7.677714    6.849309   -0.453083
    134          1           0       -8.909970    6.331227   -2.123752
 ---------------------------------------------------------------------

 SCF Done:  E(RCAM-B3LYP) =  -3043.50582465     A.U. after   16 cycles

 Excitation energies and oscillator strengths:

 Excited State   1:      Singlet-A      2.0224 eV  613.07 nm  f=0.1699  <S**2>=0.000
     243 -> 246       -0.26823
     244 -> 245        0.63495
 This state for optimization and/or second-order correction.
 Total Energy, E(TD-HF/TD-KS) =  -3043.43150458
 Copying the excited state density for this state as the 1-particle RhoCI density.

 The electronic state is 1-A.
 Alpha  occ. eigenvalues --  -46.81058 -19.24716 -19.22010 -19.17945 -19.17701
 Alpha  occ. eigenvalues --  -19.17586 -19.16874 -19.16165 -14.38484 -14.36544
 Alpha  occ. eigenvalues --  -14.36463 -14.36132 -10.35812 -10.34911 -10.31820
 Alpha  occ. eigenvalues --  -10.31286 -10.30496 -10.29658 -10.27613 -10.26570
 Alpha  occ. eigenvalues --  -10.26290 -10.26047 -10.25927 -10.25777 -10.25717
 Alpha  occ. eigenvalues --  -10.25625 -10.25510 -10.25442 -10.24742 -10.24414
 Alpha  occ. eigenvalues --  -10.24358 -10.24235 -10.23956 -10.23906 -10.23813
 Alpha  occ. eigenvalues --  -10.23225 -10.23086 -10.22798 -10.22754 -10.22719
 Alpha  occ. eigenvalues --  -10.22663 -10.22624 -10.22504 -10.22453 -10.22320
 Alpha  occ. eigenvalues --  -10.22309 -10.22260 -10.22118 -10.21954 -10.21775
 Alpha  occ. eigenvalues --  -10.21544 -10.21497 -10.21407 -10.21282 -10.21089
 Alpha  occ. eigenvalues --  -10.21047 -10.21026 -10.20988 -10.20441 -10.20361
 Alpha  occ. eigenvalues --  -10.20095 -10.19782 -10.19718 -10.19311 -10.18663
 Alpha  occ. eigenvalues --  -10.18340  -3.09615  -1.84558  -1.84087  -1.84016
 Alpha  occ. eigenvalues --   -1.14592  -1.13991  -1.09976  -1.06094  -1.06072
 Alpha  occ. eigenvalues --   -1.05207  -1.03920  -1.00647  -0.99575  -0.98732
 Alpha  occ. eigenvalues --   -0.97940  -0.88141  -0.87763  -0.85897  -0.85467
 Alpha  occ. eigenvalues --   -0.84698  -0.84628  -0.84272  -0.83779  -0.83457
 Alpha  occ. eigenvalues --   -0.82474  -0.81832  -0.81580  -0.80455  -0.80029
 Alpha  occ. eigenvalues --   -0.79412  -0.78648  -0.77687  -0.77556  -0.77082
 Alpha  occ. eigenvalues --   -0.75364  -0.75047  -0.74376  -0.73443  -0.72223
 Alpha  occ. eigenvalues --   -0.71830  -0.71786  -0.70375  -0.69892  -0.69681
 Alpha  occ. eigenvalues --   -0.69493  -0.69038  -0.67438  -0.66765  -0.66061
 Alpha  occ. eigenvalues --   -0.65432  -0.65083  -0.64036  -0.62391  -0.61821
 Alpha  occ. eigenvalues --   -0.61403  -0.61262  -0.60909  -0.59557  -0.59531
 Alpha  occ. eigenvalues --   -0.59062  -0.57992  -0.57906  -0.57167  -0.56434
 Alpha  occ. eigenvalues --   -0.56241  -0.56113  -0.55616  -0.54995  -0.54468
 Alpha  occ. eigenvalues --   -0.54223  -0.53993  -0.53191  -0.52549  -0.52214
 Alpha  occ. eigenvalues --   -0.52071  -0.51835  -0.51666  -0.51221  -0.51006
 Alpha  occ. eigenvalues --   -0.50674  -0.50448  -0.49781  -0.49437  -0.49048
 Alpha  occ. eigenvalues --   -0.48679  -0.48558  -0.48357  -0.48197  -0.47951
 Alpha  occ. eigenvalues --   -0.47499  -0.47258  -0.47238  -0.46740  -0.46586
 Alpha  occ. eigenvalues --   -0.46394  -0.46318  -0.46091  -0.45951  -0.45696
 Alpha  occ. eigenvalues --   -0.45627  -0.45264  -0.45126  -0.44935  -0.44866
 Alpha  occ. eigenvalues --   -0.44725  -0.44550  -0.44051  -0.43880  -0.43778
 Alpha  occ. eigenvalues --   -0.43530  -0.43354  -0.43302  -0.43030  -0.42518
 Alpha  occ. eigenvalues --   -0.42323  -0.42279  -0.42230  -0.41854  -0.41759
 Alpha  occ. eigenvalues --   -0.41718  -0.41616  -0.41320  -0.41216  -0.41089
 Alpha  occ. eigenvalues --   -0.40763  -0.40736  -0.40684  -0.40502  -0.40111
 Alpha  occ. eigenvalues --   -0.40069  -0.39777  -0.39709  -0.39352  -0.39183
 Alpha  occ. eigenvalues --   -0.39013  -0.38967  -0.38814  -0.38570  -0.38495
 Alpha  occ. eigenvalues --   -0.38193  -0.38042  -0.37777  -0.37474  -0.37068
 Alpha  occ. eigenvalues --   -0.37016  -0.36334  -0.36149  -0.36076  -0.35485
 Alpha  occ. eigenvalues --   -0.35336  -0.34833  -0.34824  -0.34622  -0.34453
 Alpha  occ. eigenvalues --   -0.34212  -0.34184  -0.33484  -0.33274  -0.33165
 Alpha  occ. eigenvalues --   -0.32803  -0.32490  -0.32172  -0.31510  -0.31291
 Alpha  occ. eigenvalues --   -0.31238  -0.30834  -0.30599  -0.30124  -0.29215
 Alpha  occ. eigenvalues --   -0.28528  -0.28449  -0.28261  -0.27871  -0.27287
 Alpha  occ. eigenvalues --   -0.26799  -0.26668  -0.22730  -0.21063
 Alpha virt. eigenvalues --   -0.08069  -0.06258  -0.01439  -0.00781   0.01111
 Alpha virt. eigenvalues --    0.01802   0.03205   0.03642   0.03749   0.04841
 Alpha virt. eigenvalues --    0.05712   0.05772   0.08645   0.08820   0.09716

 Mulliken charges:
               1
     1  Mg   0.827863
     2  C    0.050534
     3  C   -0.142784
     4  C   -0.148825
     5  C   -0.180109
     6  N   -0.637947
     7  C    0.316216
     8  C   -0.192135
     9  C   -0.160537
    10  C    0.350897
    11  C   -0.316848
    12  C   -0.153868
    13  C   -0.282461
    14  C    0.600444
    15  O   -0.488063
    16  O   -0.451214
    17  N   -0.705412
    18  C    0.282665
    19  C    0.008663
    20  C   -0.018096
    21  C    0.303086
    22  C   -0.372497
    23  C    0.223224
    24  O   -0.414843
    25  N   -0.689418
    26  C    0.253124
    27  C    0.018749
    28  C   -0.031051
    29  C    0.326094
    30  C    0.244853
    31  C   -0.243565
    32  C   -0.292716
    33  N   -0.720639
    34  C    0.293358
    35  C   -0.001046
    36  C    0.028000
    37  C    0.318613
    38  C   -0.378579
    39  C    0.363487
    40  O   -0.416947
    41  C   -0.326035
    42  C    0.638135
    43  O   -0.470806
    44  O   -0.434423
    45  C   -0.106396
    46  C    0.004566
    47  C   -0.128032
    48  C    0.215959
    49  C   -0.394516
    50  C   -0.228783
    51  C   -0.165363
    52  C   -0.178151
    53  C   -0.054794
    54  C   -0.310814
    55  C   -0.177730
    56  C   -0.165096
    57  C   -0.157522
    58  C   -0.073859
    59  C   -0.298790
    60  C   -0.178110
    61  C   -0.156067
    62  C   -0.166664
    63  C   -0.058709
    64  C   -0.304821
    65  C   -0.311332
    66  H    0.085986
    67  H    0.131717
    68  H    0.087374
    69  H    0.126588
    70  H    0.103183
    71  H    0.112455
    72  H    0.120653
    73  H    0.105854
    74  H    0.117750
    75  H    0.129618
    76  H    0.139665
    77  H    0.141465
    78  H    0.099580
    79  H    0.158372
    80  H    0.130263
    81  H    0.068710
    82  H    0.098435
    83  H    0.111200
    84  H    0.116951
    85  H    0.106397
    86  H    0.116527
    87  H    0.110428
    88  H    0.143417
    89  H    0.138727
    90  H    0.164998
    91  H    0.106241
    92  H    0.111939
    93  H    0.077336
    94  H    0.157759
    95  H    0.107800
    96  H    0.101219
    97  H    0.042288
    98  H    0.099770
    99  H    0.053386
   100  H    0.090496
   101  H    0.083688
   102  H    0.089058
   103  H    0.092347
   104  H    0.104171
   105  H    0.086436
   106  H    0.114396
   107  H    0.089322
   108  H    0.085155
   109  H    0.110465
   110  H    0.078712
   111  H    0.092254
   112  H    0.066782
   113  H    0.061774
   114  H    0.120576
   115  H    0.076929
   116  H    0.100955
   117  H    0.087040
   118  H    0.073973
   119  H    0.094076
   120  H    0.100235
   121  H    0.073491
   122  H    0.092630
   123  H    0.075733
   124  H    0.096443
   125  H    0.101308
   126  H    0.111209
   127  H    0.103039
   128  H    0.066150
   129  H    0.109026
   130  H    0.124937
   131  H    0.149067
   132  H    0.139929
   133  O   -0.436369
   134  H    0.088402
 Sum of Mulliken charges =   0.00000

 Dipole moment (field-independent basis, Debye):
    X=              1.2674    Y=             -7.4920    Z=             -2.0663  Tot=              7.8744
 Quadrupole moment (field-independent basis, Debye-Ang):
   XX=           -370.5884   YY=           -429.0118   ZZ=           -392.9069
   XY=             12.2062   XZ=             25.6358   YZ=            -37.9631

 Normal termination of Gaussian 09 at Mon Oct  7 08:40:46 2019.
