 Gaussian 09, Revision D.01,
 Gaussian 09:  ES64L-G09RevD.01 24-Apr-2013

 ----------------------------------------------------------------------
 # td=(NStates=1) iop(3/107=0140000000,3/108=0140000000) iop(3/107=0140
 000000,3/108=0140000000) CAM-B3LYP/6-31G(d,p)
 ----------------------------------------------------------------------

 --
 TD
 --
 Symbolic Z-matrix:
 Charge =  0 Multiplicity = 1

                         Standard orientation:
 ---------------------------------------------------------------------
 Center     Atomic      Atomic             Coordinates (Angstroms)
 Number     Number       Type             X           Y           Z
 ---------------------------------------------------------------------
      1         12           0       -5.656554    1.214558    0.271417
      2          6           0       -4.951584   -2.140538   -0.275146
      3          6           0       -3.299229    1.207055    2.657070
      4          6           0       -6.238978    4.557809    0.660512
      5          6           0       -7.875987    1.096645   -2.442273
      6          7           0       -4.451463   -0.305160    1.064619
      7          6           0       -4.266393   -1.578441    0.846166
      8          6           0       -3.145609   -2.281363    1.543833
      9          6           0       -2.830285   -1.288962    2.724512
     10          6           0       -3.513754   -0.009933    2.079249
     11          6           0       -3.390181   -1.741262    4.028906
     12          6           0       -1.871079   -2.578063    0.703901
     13          6           0       -0.829828   -3.449710    1.520757
     14          6           0        0.344198   -3.852013    0.750455
     15          8           0        0.478675   -3.552341   -0.473441
     16          8           0        1.139658   -4.720078    1.372153
     17          7           0       -4.964303    2.621952    1.422555
     18          6           0       -3.941341    2.439831    2.343893
     19          6           0       -3.703518    3.646971    3.068316
     20          6           0       -4.520460    4.669166    2.504935
     21          6           0       -5.248044    3.982510    1.497769
     22          6           0       -2.742269    3.927380    4.209431
     23          6           0       -4.650849    6.090986    2.854546
     24          8           0       -3.890720    6.752099    3.625359
     25          7           0       -6.902997    2.557603   -0.706142
     26          6           0       -6.984548    3.876601   -0.367492
     27          6           0       -8.012594    4.595793   -1.217255
     28          6           0       -8.520373    3.574924   -2.038652
     29          6           0       -7.707509    2.351190   -1.808633
     30          6           0       -8.509399    5.916785   -1.123773
     31          6           0       -9.489520    3.706055   -3.165664
     32          6           0       -8.867731    3.972509   -4.553640
     33          7           0       -6.266709   -0.158282   -1.065944
     34          6           0       -7.213409   -0.013866   -2.087362
     35          6           0       -7.504570   -1.268503   -2.688487
     36          6           0       -6.598998   -2.156104   -2.018409
     37          6           0       -5.856869   -1.369397   -1.070557
     38          6           0       -8.429320   -1.737803   -3.781999
     39          6           0       -6.192373   -3.620122   -1.948837
     40          8           0       -6.609796   -4.552998   -2.579682
     41          6           0       -4.983606   -3.604066   -0.744203
     42          6           0       -5.311802   -4.672329    0.192303
     43          8           0       -5.575316   -4.474320    1.411751
     44          8           0       -5.023234   -5.908775   -0.236724
     45          6           0       -5.229850   -7.055656    0.653836
     46          6           0        2.351397   -5.072878    0.700833
     47          6           0        3.490087   -4.111590    0.980340
     48          6           0        4.022636   -3.226422    0.063557
     49          6           0        3.670718   -3.087931   -1.359774
     50          6           0        5.068527   -2.318704    0.605701
     51          6           0        6.330427   -2.827542   -0.044390
     52          6           0        7.568708   -1.821757    0.350920
     53          6           0        8.919245   -2.077153   -0.355655
     54          6           0        9.557917   -3.472023   -0.023410
     55          6           0        9.945724   -0.889625    0.201940
     56          6           0       11.293529   -0.829283   -0.456114
     57          6           0       12.155861    0.269162    0.102552
     58          6           0       13.458166    0.508135   -0.659419
     59          6           0       14.324800   -0.804754   -0.411923
     60          6           0       14.169628    1.833637   -0.176692
     61          6           0       15.567163    2.094105   -0.781066
     62          6           0       15.861245    3.627404   -0.559837
     63          6           0       17.205601    4.009607   -1.175347
     64          6           0       17.100924    4.081800   -2.669544
     65          6           0       17.820725    5.219915   -0.633285
     66          1           0       -2.627060    1.220582    3.536323
     67          1           0       -6.587797    5.626405    0.979767
     68          1           0       -8.526482    0.899754   -3.282226
     69          1           0       -3.400038   -3.098569    1.915923
     70          1           0       -1.864247   -1.050128    2.831767
     71          1           0       -2.824878   -2.490237    4.339450
     72          1           0       -3.228851   -1.121651    4.800137
     73          1           0       -4.415462   -2.077891    3.885536
     74          1           0       -2.237334   -3.313600   -0.070752
     75          1           0       -1.486045   -1.634883    0.208094
     76          1           0       -0.503253   -2.792052    2.259786
     77          1           0       -1.245541   -4.315277    2.033038
     78          1           0       -1.728115    3.773988    3.780328
     79          1           0       -2.744874    4.849749    4.713057
     80          1           0       -2.951325    3.064237    4.823461
     81          1           0       -5.365231    6.451512    2.078783
     82          1           0      -10.031491    2.829519   -3.216679
     83          1           0      -10.210556    4.426838   -3.042863
     84          1           0       -9.394012    3.978373   -5.457836
     85          1           0       -8.156829    4.859999   -4.459337
     86          1           0       -8.086465    3.189289   -4.831786
     87          1           0       -8.047169   -1.377610   -4.768771
     88          1           0       -8.462200   -2.732903   -3.794909
     89          1           0       -9.445766   -1.279042   -3.677160
     90          1           0       -4.050929   -3.709207   -1.412431
     91          1           0        2.548390   -6.007847    1.022104
     92          1           0        2.279336   -5.165191   -0.403044
     93          1           0        3.864891   -4.085235    1.979988
     94          1           0        2.639610   -3.578579   -1.560413
     95          1           0        3.526524   -2.161273   -1.676333
     96          1           0        4.373694   -3.361186   -2.021693
     97          1           0        4.961305   -1.137268    0.529310
     98          1           0        5.355996   -2.514548    1.683029
     99          1           0        6.581879   -3.991684    0.063467
    100          1           0        6.321650   -2.884451   -1.101038
    101          1           0        7.181153   -0.766066    0.049835
    102          1           0        7.603585   -1.752294    1.523665
    103          1           0        8.662130   -1.994820   -1.452769
    104          1           0        8.963349   -4.174627   -0.391637
    105          1           0       10.521515   -3.400016   -0.474497
    106          1           0        9.782893   -3.480139    1.203263
    107          1           0        9.531384    0.058793    0.133054
    108          1           0       10.025100   -1.010089    1.322895
    109          1           0       11.972786   -1.744200   -0.518424
    110          1           0       11.181374   -0.664194   -1.612491
    111          1           0       11.632021    1.340087    0.072784
    112          1           0       12.333923    0.078947    1.067802
    113          1           0       13.145856    0.684397   -1.669503
    114          1           0       14.528882   -0.957327    0.704059
    115          1           0       13.900745   -1.710229   -0.877047
    116          1           0       15.282441   -0.882927   -1.146160
    117          1           0       13.304359    2.594348   -0.536242
    118          1           0       14.174910    1.625228    1.061090
    119          1           0       16.411059    1.333652   -0.443846
    120          1           0       15.531001    1.727513   -1.861516
    121          1           0       15.038095    4.330509   -0.911690
    122          1           0       15.851724    3.885963    0.498161
    123          1           0       17.980576    3.188088   -1.025103
    124          1           0       16.673119    5.252969   -2.773987
    125          1           0       18.065703    4.052973   -3.191082
    126          1           0       16.524825    3.261873   -3.257944
    127          1           0       17.782016    5.296724    0.599505
    128          1           0       18.817293    5.557997   -0.998779
    129          1           0       17.249598    6.255409   -0.631267
    130          1           0       -5.050692   -7.853379    0.065901
    131          1           0       -6.330894   -7.508138    0.737979
    132          1           0       -4.689645   -6.738378    1.598914
    133          8           0       -7.992474    6.894408   -0.548656
    134          1           0       -9.423102    5.940901   -1.624058
 ---------------------------------------------------------------------

 SCF Done:  E(RCAM-B3LYP) =  -3043.47572856     A.U. after   16 cycles

 Excitation energies and oscillator strengths:

 Excited State   1:      Singlet-A      2.0256 eV  612.10 nm  f=0.1682  <S**2>=0.000
     243 -> 245       -0.11037
     243 -> 246       -0.26775
     244 -> 245        0.63412
 This state for optimization and/or second-order correction.
 Total Energy, E(TD-HF/TD-KS) =  -3043.40129042
 Copying the excited state density for this state as the 1-particle RhoCI density.

 The electronic state is 1-A.
 Alpha  occ. eigenvalues --  -46.81015 -19.23248 -19.22783 -19.18863 -19.17323
 Alpha  occ. eigenvalues --  -19.16633 -19.16305 -19.16231 -14.39329 -14.37813
 Alpha  occ. eigenvalues --  -14.37328 -14.36281 -10.35261 -10.35086 -10.32928
 Alpha  occ. eigenvalues --  -10.30611 -10.29296 -10.28280 -10.27648 -10.27238
 Alpha  occ. eigenvalues --  -10.27189 -10.26938 -10.26848 -10.26538 -10.26415
 Alpha  occ. eigenvalues --  -10.26039 -10.25851 -10.25595 -10.25481 -10.25138
 Alpha  occ. eigenvalues --  -10.25002 -10.24338 -10.24319 -10.24299 -10.23865
 Alpha  occ. eigenvalues --  -10.23831 -10.23535 -10.23414 -10.23191 -10.23126
 Alpha  occ. eigenvalues --  -10.23069 -10.22931 -10.22857 -10.22822 -10.22689
 Alpha  occ. eigenvalues --  -10.22590 -10.22582 -10.22513 -10.22496 -10.22293
 Alpha  occ. eigenvalues --  -10.22196 -10.22112 -10.22002 -10.21926 -10.21724
 Alpha  occ. eigenvalues --  -10.21595 -10.21537 -10.21490 -10.21369 -10.21340
 Alpha  occ. eigenvalues --  -10.21252 -10.21008 -10.20508 -10.19988 -10.19899
 Alpha  occ. eigenvalues --  -10.19267  -3.09859  -1.84772  -1.84345  -1.84285
 Alpha  occ. eigenvalues --   -1.13872  -1.12658  -1.08812  -1.04678  -1.03676
 Alpha  occ. eigenvalues --   -1.02475  -1.02179  -1.01845  -1.00745  -0.99535
 Alpha  occ. eigenvalues --   -0.98641  -0.87460  -0.86902  -0.86364  -0.85483
 Alpha  occ. eigenvalues --   -0.85114  -0.84905  -0.84381  -0.84322  -0.83383
 Alpha  occ. eigenvalues --   -0.83041  -0.82710  -0.82076  -0.80523  -0.79638
 Alpha  occ. eigenvalues --   -0.79230  -0.78581  -0.77955  -0.77362  -0.76592
 Alpha  occ. eigenvalues --   -0.75880  -0.75192  -0.75111  -0.73294  -0.72935
 Alpha  occ. eigenvalues --   -0.72104  -0.70445  -0.70118  -0.69759  -0.69515
 Alpha  occ. eigenvalues --   -0.69380  -0.68944  -0.68190  -0.67478  -0.67260
 Alpha  occ. eigenvalues --   -0.66606  -0.64528  -0.64034  -0.63340  -0.62422
 Alpha  occ. eigenvalues --   -0.61644  -0.61418  -0.60167  -0.59523  -0.58682
 Alpha  occ. eigenvalues --   -0.58534  -0.58285  -0.57824  -0.57614  -0.57301
 Alpha  occ. eigenvalues --   -0.56603  -0.56368  -0.55496  -0.55117  -0.54794
 Alpha  occ. eigenvalues --   -0.54332  -0.53907  -0.53239  -0.52585  -0.52567
 Alpha  occ. eigenvalues --   -0.52254  -0.52070  -0.51554  -0.50461  -0.50451
 Alpha  occ. eigenvalues --   -0.50210  -0.49781  -0.49516  -0.49218  -0.49066
 Alpha  occ. eigenvalues --   -0.48809  -0.48705  -0.48337  -0.47920  -0.47757
 Alpha  occ. eigenvalues --   -0.47635  -0.47558  -0.47167  -0.47058  -0.46737
 Alpha  occ. eigenvalues --   -0.46559  -0.46433  -0.46323  -0.46149  -0.45742
 Alpha  occ. eigenvalues --   -0.45617  -0.45453  -0.45175  -0.45086  -0.44898
 Alpha  occ. eigenvalues --   -0.44747  -0.44691  -0.44534  -0.44299  -0.43984
 Alpha  occ. eigenvalues --   -0.43913  -0.43800  -0.43296  -0.43122  -0.42822
 Alpha  occ. eigenvalues --   -0.42690  -0.42529  -0.42460  -0.42276  -0.42049
 Alpha  occ. eigenvalues --   -0.41811  -0.41589  -0.41482  -0.41155  -0.40981
 Alpha  occ. eigenvalues --   -0.40832  -0.40536  -0.40245  -0.40191  -0.40080
 Alpha  occ. eigenvalues --   -0.39993  -0.39742  -0.39510  -0.39441  -0.39090
 Alpha  occ. eigenvalues --   -0.38970  -0.38835  -0.38457  -0.38381  -0.38074
 Alpha  occ. eigenvalues --   -0.37909  -0.37628  -0.37530  -0.37390  -0.37355
 Alpha  occ. eigenvalues --   -0.37050  -0.36703  -0.36351  -0.35624  -0.35605
 Alpha  occ. eigenvalues --   -0.35289  -0.35126  -0.35036  -0.34959  -0.34554
 Alpha  occ. eigenvalues --   -0.33988  -0.33579  -0.33450  -0.33433  -0.33309
 Alpha  occ. eigenvalues --   -0.32605  -0.32444  -0.32257  -0.31957  -0.31780
 Alpha  occ. eigenvalues --   -0.31732  -0.30485  -0.30124  -0.29919  -0.29593
 Alpha  occ. eigenvalues --   -0.28888  -0.28024  -0.27903  -0.27794  -0.27716
 Alpha  occ. eigenvalues --   -0.27467  -0.26523  -0.22729  -0.21971
 Alpha virt. eigenvalues --   -0.08911  -0.06477  -0.01668  -0.01314   0.00350
 Alpha virt. eigenvalues --    0.01920   0.02591   0.03218   0.03439   0.04268
 Alpha virt. eigenvalues --    0.04567   0.05857   0.07972   0.08578   0.09560

 Mulliken charges:
               1
     1  Mg   0.832871
     2  C    0.012045
     3  C   -0.203419
     4  C   -0.188717
     5  C   -0.149935
     6  N   -0.615866
     7  C    0.353961
     8  C   -0.097819
     9  C   -0.139025
    10  C    0.303730
    11  C   -0.300039
    12  C   -0.174422
    13  C   -0.277479
    14  C    0.610896
    15  O   -0.498796
    16  O   -0.447297
    17  N   -0.727687
    18  C    0.327480
    19  C   -0.009301
    20  C    0.005964
    21  C    0.296403
    22  C   -0.361049
    23  C    0.254647
    24  O   -0.444649
    25  N   -0.667504
    26  C    0.291730
    27  C    0.010647
    28  C   -0.010824
    29  C    0.276756
    30  C    0.239162
    31  C   -0.233742
    32  C   -0.322857
    33  N   -0.742352
    34  C    0.279391
    35  C    0.032817
    36  C   -0.044823
    37  C    0.365855
    38  C   -0.368579
    39  C    0.359017
    40  O   -0.425369
    41  C   -0.338366
    42  C    0.634933
    43  O   -0.511301
    44  O   -0.447920
    45  C   -0.068040
    46  C    0.010794
    47  C   -0.156158
    48  C    0.152472
    49  C   -0.386666
    50  C   -0.223450
    51  C   -0.192192
    52  C   -0.162591
    53  C   -0.073912
    54  C   -0.284006
    55  C   -0.168845
    56  C   -0.175744
    57  C   -0.153714
    58  C   -0.070114
    59  C   -0.312779
    60  C   -0.143307
    61  C   -0.173210
    62  C   -0.160779
    63  C   -0.027387
    64  C   -0.286804
    65  C   -0.314245
    66  H    0.083817
    67  H    0.142383
    68  H    0.095523
    69  H    0.095278
    70  H    0.098039
    71  H    0.118733
    72  H    0.112649
    73  H    0.129752
    74  H    0.112135
    75  H    0.121209
    76  H    0.144244
    77  H    0.143361
    78  H    0.124486
    79  H    0.161403
    80  H    0.115537
    81  H    0.082839
    82  H    0.114031
    83  H    0.121261
    84  H    0.123438
    85  H    0.110427
    86  H    0.096236
    87  H    0.132098
    88  H    0.157210
    89  H    0.117001
    90  H    0.171735
    91  H    0.110914
    92  H    0.123641
    93  H    0.081813
    94  H    0.138827
    95  H    0.129437
    96  H    0.125717
    97  H    0.095302
    98  H    0.102869
    99  H    0.082176
   100  H    0.099517
   101  H    0.076058
   102  H    0.071664
   103  H    0.080905
   104  H    0.110338
   105  H    0.112916
   106  H    0.073760
   107  H    0.101210
   108  H    0.082461
   109  H    0.088807
   110  H    0.069417
   111  H    0.055108
   112  H    0.098828
   113  H    0.087638
   114  H    0.104042
   115  H    0.108246
   116  H    0.069587
   117  H    0.078970
   118  H    0.059753
   119  H    0.094994
   120  H    0.091249
   121  H    0.091202
   122  H    0.098733
   123  H    0.085392
   124  H    0.067952
   125  H    0.100233
   126  H    0.093913
   127  H    0.070351
   128  H    0.108620
   129  H    0.082560
   130  H    0.137565
   131  H    0.103528
   132  H    0.142373
   133  O   -0.453813
   134  H    0.071915
 Sum of Mulliken charges =   0.00000

 Dipole moment (field-independent basis, Debye):
    X=              1.9180    Y=             -6.7531    Z=             -1.2729  Tot=              7.1347
 Quadrupole moment (field-independent basis, Debye-Ang):
   XX=           -371.4534   YY=           -450.8181   ZZ=           -388.6831
   XY=             15.7124   XZ=             21.1599   YZ=            -27.9701

 Normal termination of Gaussian 09 at Tue Oct  8 12:15:12 2019.
