 Gaussian 09, Revision D.01,
 Gaussian 09:  ES64L-G09RevD.01 24-Apr-2013

 ----------------------------------------------------------------------
 # td=(NStates=1) iop(3/107=0140000000,3/108=0140000000) iop(3/107=0140
 000000,3/108=0140000000) CAM-B3LYP/6-31G(d,p)
 ----------------------------------------------------------------------

 --
 TD
 --
 Symbolic Z-matrix:
 Charge =  0 Multiplicity = 1

                         Standard orientation:
 ---------------------------------------------------------------------
 Center     Atomic      Atomic             Coordinates (Angstroms)
 Number     Number       Type             X           Y           Z
 ---------------------------------------------------------------------
      1         12           0       -5.612377    1.253472    0.171344
      2          6           0       -5.032659   -2.177857   -0.358505
      3          6           0       -3.507794    1.176257    2.883332
      4          6           0       -6.232044    4.499194    0.731844
      5          6           0       -8.051638    1.121643   -2.362599
      6          7           0       -4.439484   -0.330424    1.135103
      7          6           0       -4.331235   -1.653187    0.753693
      8          6           0       -3.299771   -2.297729    1.508388
      9          6           0       -2.924834   -1.258336    2.602993
     10          6           0       -3.602612   -0.048956    2.130989
     11          6           0       -3.338471   -1.778156    3.965516
     12          6           0       -2.050835   -2.651457    0.609902
     13          6           0       -0.914719   -3.520731    1.392571
     14          6           0        0.198969   -3.811340    0.535864
     15          8           0        0.406637   -3.323380   -0.559557
     16          8           0        1.115309   -4.535864    1.227218
     17          7           0       -4.906051    2.683042    1.375852
     18          6           0       -4.047394    2.392770    2.392660
     19          6           0       -3.779183    3.697581    3.177307
     20          6           0       -4.672876    4.571216    2.551474
     21          6           0       -5.303979    3.888792    1.458226
     22          6           0       -2.760217    3.827562    4.189033
     23          6           0       -4.790511    6.015941    2.934110
     24          8           0       -4.103285    6.594652    3.812430
     25          7           0       -6.922969    2.587398   -0.693389
     26          6           0       -6.999762    3.924165   -0.293690
     27          6           0       -8.001733    4.547803   -1.190005
     28          6           0       -8.496839    3.591922   -2.053534
     29          6           0       -7.799872    2.354609   -1.757603
     30          6           0       -8.373694    5.908981   -1.140571
     31          6           0       -9.531715    3.851741   -3.207314
     32          6           0       -8.899759    3.976728   -4.610726
     33          7           0       -6.323974   -0.175498   -1.136604
     34          6           0       -7.349838   -0.073076   -2.095054
     35          6           0       -7.640677   -1.316215   -2.570858
     36          6           0       -6.663415   -2.196011   -2.026903
     37          6           0       -5.919102   -1.412136   -1.128179
     38          6           0       -8.508060   -1.662540   -3.737715
     39          6           0       -6.169493   -3.556012   -2.087444
     40          8           0       -6.579819   -4.503111   -2.672113
     41          6           0       -5.070205   -3.531419   -0.905333
     42          6           0       -5.226214   -4.706923    0.183688
     43          8           0       -5.689240   -4.557633    1.316911
     44          8           0       -4.970643   -6.000945   -0.407771
     45          6           0       -5.208534   -7.096598    0.539563
     46          6           0        2.316657   -4.989416    0.589517
     47          6           0        3.441445   -4.099463    0.921089
     48          6           0        4.079330   -3.263032    0.150534
     49          6           0        3.850072   -3.059384   -1.309403
     50          6           0        5.240103   -2.440350    0.716948
     51          6           0        6.527032   -2.661280    0.084321
     52          6           0        7.600376   -1.660180    0.459748
     53          6           0        8.989588   -2.005649    0.057265
     54          6           0        9.581696   -3.317445    0.301599
     55          6           0       10.062964   -0.863101    0.463735
     56          6           0       11.454709   -0.867429   -0.228721
     57          6           0       12.266871    0.280867    0.191925
     58          6           0       13.611057    0.463934   -0.538857
     59          6           0       14.682109   -0.706301   -0.202660
     60          6           0       14.342863    1.852217   -0.184586
     61          6           0       15.417347    2.160190   -1.004516
     62          6           0       16.035532    3.441054   -0.667168
     63          6           0       17.329996    3.843828   -1.453724
     64          6           0       17.242111    3.990335   -2.928024
     65          6           0       17.964606    5.209213   -0.912815
     66          1           0       -2.885169    1.271329    3.778651
     67          1           0       -6.732859    5.484289    1.006444
     68          1           0       -8.951593    1.283603   -3.029275
     69          1           0       -3.561597   -3.293067    1.748310
     70          1           0       -1.763807   -1.058483    2.559043
     71          1           0       -2.896734   -2.659410    4.270307
     72          1           0       -3.209561   -1.135582    4.886331
     73          1           0       -4.371109   -1.981506    3.894889
     74          1           0       -2.501899   -3.217099   -0.191923
     75          1           0       -1.644135   -1.900354    0.131318
     76          1           0       -0.549312   -2.846389    2.317249
     77          1           0       -1.412329   -4.471460    1.759805
     78          1           0       -1.915434    3.698220    3.635892
     79          1           0       -2.713121    4.878516    4.699780
     80          1           0       -2.778722    3.053174    5.075241
     81          1           0       -5.346229    6.638203    2.362733
     82          1           0      -10.164039    2.976817   -3.377830
     83          1           0      -10.179913    4.804979   -2.880518
     84          1           0       -9.700763    3.890725   -5.428566
     85          1           0       -8.424875    5.024794   -4.742111
     86          1           0       -8.179934    3.240925   -4.690482
     87          1           0       -8.355188   -1.046778   -4.726822
     88          1           0       -8.536937   -2.619770   -3.946776
     89          1           0       -9.557058   -1.433690   -3.442858
     90          1           0       -4.082173   -3.765187   -1.261995
     91          1           0        2.518605   -6.196702    0.772748
     92          1           0        2.206035   -5.093833   -0.591538
     93          1           0        3.748009   -4.061097    1.866474
     94          1           0        2.769833   -3.009548   -1.336919
     95          1           0        4.040599   -1.892331   -1.697114
     96          1           0        4.365998   -3.657639   -1.990469
     97          1           0        4.985954   -1.404377    0.671493
     98          1           0        5.226205   -2.615317    1.859526
     99          1           0        6.848278   -3.828889    0.078258
    100          1           0        6.245888   -2.602367   -1.039381
    101          1           0        7.329346   -0.643185    0.218115
    102          1           0        7.566842   -1.709318    1.547841
    103          1           0        8.775846   -2.104907   -1.062825
    104          1           0        8.950714   -4.114431   -0.051351
    105          1           0       10.662507   -3.512935    0.177673
    106          1           0        9.438049   -3.427671    1.281152
    107          1           0        9.516378    0.073353    0.240199
    108          1           0       10.245011   -0.955751    1.442425
    109          1           0       12.083431   -1.837845   -0.207563
    110          1           0       11.291532   -0.750244   -1.383126
    111          1           0       11.668733    1.204655    0.204208
    112          1           0       12.421546    0.155108    1.254240
    113          1           0       13.496810    0.662475   -1.519381
    114          1           0       14.841957   -0.639452    0.973082
    115          1           0       14.386948   -1.558057   -0.585929
    116          1           0       15.572247   -0.289862   -0.502717
    117          1           0       13.622593    2.454268   -0.014954
    118          1           0       14.558857    1.779174    0.832381
    119          1           0       16.282301    1.247880   -1.052565
    120          1           0       15.056293    2.092558   -1.958840
    121          1           0       15.309484    4.250669   -0.667140
    122          1           0       16.330130    3.488711    0.506334
    123          1           0       18.088998    3.161762   -1.215499
    124          1           0       16.569971    4.798467   -3.200156
    125          1           0       18.122754    4.165648   -3.413411
    126          1           0       16.841368    2.968814   -3.425529
    127          1           0       18.199257    5.111136    0.153487
    128          1           0       18.834795    5.534850   -1.391181
    129          1           0       17.385137    6.101506   -1.041269
    130          1           0       -5.196034   -8.054142   -0.102266
    131          1           0       -6.295744   -7.027054    0.788821
    132          1           0       -4.396852   -6.757056    1.368777
    133          8           0       -7.926353    6.773747   -0.391496
    134          1           0       -9.041597    6.262152   -1.748737
 ---------------------------------------------------------------------

 SCF Done:  E(RCAM-B3LYP) =  -3043.45773541     A.U. after   15 cycles

 Excitation energies and oscillator strengths:

 Excited State   1:      Singlet-A      2.1472 eV  577.42 nm  f=0.1399  <S**2>=0.000
     243 -> 246       -0.30795
     244 -> 245        0.62231
 This state for optimization and/or second-order correction.
 Total Energy, E(TD-HF/TD-KS) =  -3043.37882705
 Copying the excited state density for this state as the 1-particle RhoCI density.

 The electronic state is 1-A.
 Alpha  occ. eigenvalues --  -46.81821 -19.22691 -19.21870 -19.18820 -19.17761
 Alpha  occ. eigenvalues --  -19.17108 -19.16770 -19.15998 -14.39569 -14.37352
 Alpha  occ. eigenvalues --  -14.36879 -14.36138 -10.36337 -10.35487 -10.31208
 Alpha  occ. eigenvalues --  -10.29598 -10.29567 -10.28918 -10.28403 -10.28109
 Alpha  occ. eigenvalues --  -10.27996 -10.27430 -10.26880 -10.26162 -10.25891
 Alpha  occ. eigenvalues --  -10.25855 -10.25621 -10.25562 -10.25467 -10.25416
 Alpha  occ. eigenvalues --  -10.25309 -10.25171 -10.25089 -10.24718 -10.24245
 Alpha  occ. eigenvalues --  -10.23910 -10.23865 -10.23386 -10.23273 -10.22840
 Alpha  occ. eigenvalues --  -10.22805 -10.22724 -10.22660 -10.22584 -10.22538
 Alpha  occ. eigenvalues --  -10.22285 -10.21801 -10.21696 -10.21504 -10.21432
 Alpha  occ. eigenvalues --  -10.21286 -10.21257 -10.21240 -10.21138 -10.21070
 Alpha  occ. eigenvalues --  -10.20828 -10.20594 -10.20540 -10.20359 -10.19968
 Alpha  occ. eigenvalues --  -10.19888 -10.19798 -10.19145 -10.19078 -10.18212
 Alpha  occ. eigenvalues --  -10.17363  -3.10369  -1.85318  -1.84818  -1.84788
 Alpha  occ. eigenvalues --   -1.13694  -1.10667  -1.08436  -1.05762  -1.05308
 Alpha  occ. eigenvalues --   -1.04414  -1.03796  -1.02876  -1.01774  -1.00676
 Alpha  occ. eigenvalues --   -0.97997  -0.89174  -0.87209  -0.86580  -0.86208
 Alpha  occ. eigenvalues --   -0.85900  -0.85231  -0.84420  -0.84064  -0.83749
 Alpha  occ. eigenvalues --   -0.83606  -0.83172  -0.82370  -0.81276  -0.80710
 Alpha  occ. eigenvalues --   -0.79524  -0.78920  -0.78431  -0.76862  -0.76236
 Alpha  occ. eigenvalues --   -0.75941  -0.75793  -0.74701  -0.73356  -0.72315
 Alpha  occ. eigenvalues --   -0.71964  -0.71289  -0.71166  -0.70910  -0.70507
 Alpha  occ. eigenvalues --   -0.70004  -0.69599  -0.68421  -0.67473  -0.66800
 Alpha  occ. eigenvalues --   -0.65918  -0.65071  -0.64403  -0.63225  -0.62747
 Alpha  occ. eigenvalues --   -0.62546  -0.61492  -0.60947  -0.60149  -0.59187
 Alpha  occ. eigenvalues --   -0.59130  -0.59025  -0.58753  -0.58202  -0.57407
 Alpha  occ. eigenvalues --   -0.57236  -0.56473  -0.56122  -0.55668  -0.55371
 Alpha  occ. eigenvalues --   -0.53879  -0.53202  -0.53125  -0.52667  -0.52451
 Alpha  occ. eigenvalues --   -0.52312  -0.51713  -0.51026  -0.50803  -0.50672
 Alpha  occ. eigenvalues --   -0.50523  -0.50061  -0.49907  -0.49791  -0.49608
 Alpha  occ. eigenvalues --   -0.49265  -0.49161  -0.48818  -0.48633  -0.48328
 Alpha  occ. eigenvalues --   -0.48027  -0.47656  -0.47581  -0.47359  -0.47235
 Alpha  occ. eigenvalues --   -0.46815  -0.46701  -0.46590  -0.46352  -0.46084
 Alpha  occ. eigenvalues --   -0.45780  -0.45614  -0.45440  -0.45377  -0.45196
 Alpha  occ. eigenvalues --   -0.45127  -0.44725  -0.44598  -0.44562  -0.44305
 Alpha  occ. eigenvalues --   -0.44137  -0.43878  -0.43734  -0.43372  -0.42985
 Alpha  occ. eigenvalues --   -0.42903  -0.42674  -0.42553  -0.42370  -0.42199
 Alpha  occ. eigenvalues --   -0.41957  -0.41846  -0.41567  -0.41454  -0.41351
 Alpha  occ. eigenvalues --   -0.41137  -0.40681  -0.40608  -0.40539  -0.40395
 Alpha  occ. eigenvalues --   -0.40198  -0.40031  -0.39962  -0.39689  -0.39452
 Alpha  occ. eigenvalues --   -0.39427  -0.39206  -0.39138  -0.38936  -0.38856
 Alpha  occ. eigenvalues --   -0.38473  -0.38181  -0.37819  -0.37697  -0.37610
 Alpha  occ. eigenvalues --   -0.37548  -0.36375  -0.36335  -0.36081  -0.35947
 Alpha  occ. eigenvalues --   -0.35294  -0.34717  -0.34634  -0.34596  -0.34289
 Alpha  occ. eigenvalues --   -0.34227  -0.33731  -0.33444  -0.33150  -0.32909
 Alpha  occ. eigenvalues --   -0.32609  -0.32325  -0.32298  -0.31692  -0.31583
 Alpha  occ. eigenvalues --   -0.31411  -0.31216  -0.31082  -0.30340  -0.29614
 Alpha  occ. eigenvalues --   -0.28951  -0.28505  -0.28336  -0.27888  -0.27459
 Alpha  occ. eigenvalues --   -0.27277  -0.27268  -0.23055  -0.22021
 Alpha virt. eigenvalues --   -0.08338  -0.06666  -0.02286  -0.00868   0.00440
 Alpha virt. eigenvalues --    0.01784   0.01952   0.03176   0.03836   0.04538
 Alpha virt. eigenvalues --    0.04875   0.05412   0.07768   0.07984   0.08940

 Mulliken charges:
               1
     1  Mg   0.827650
     2  C    0.121478
     3  C   -0.163861
     4  C   -0.179944
     5  C   -0.140831
     6  N   -0.633291
     7  C    0.340803
     8  C   -0.173675
     9  C   -0.153790
    10  C    0.345956
    11  C   -0.311511
    12  C   -0.183531
    13  C   -0.272745
    14  C    0.622619
    15  O   -0.460197
    16  O   -0.456568
    17  N   -0.737647
    18  C    0.278452
    19  C    0.070794
    20  C   -0.073886
    21  C    0.416497
    22  C   -0.410639
    23  C    0.261671
    24  O   -0.439158
    25  N   -0.718859
    26  C    0.289361
    27  C   -0.018414
    28  C    0.021649
    29  C    0.278623
    30  C    0.250379
    31  C   -0.243346
    32  C   -0.302793
    33  N   -0.741804
    34  C    0.268653
    35  C    0.014881
    36  C   -0.015169
    37  C    0.324441
    38  C   -0.361800
    39  C    0.370447
    40  O   -0.427861
    41  C   -0.356134
    42  C    0.587307
    43  O   -0.452871
    44  O   -0.476763
    45  C   -0.072246
    46  C   -0.017523
    47  C   -0.084916
    48  C    0.134953
    49  C   -0.391562
    50  C   -0.216793
    51  C   -0.167329
    52  C   -0.171706
    53  C   -0.054523
    54  C   -0.315595
    55  C   -0.180534
    56  C   -0.175117
    57  C   -0.167019
    58  C   -0.077417
    59  C   -0.301062
    60  C   -0.174519
    61  C   -0.143232
    62  C   -0.166980
    63  C   -0.050134
    64  C   -0.298787
    65  C   -0.337910
    66  H    0.094253
    67  H    0.140638
    68  H    0.097886
    69  H    0.116439
    70  H    0.095763
    71  H    0.123531
    72  H    0.100048
    73  H    0.134052
    74  H    0.104248
    75  H    0.129485
    76  H    0.136774
    77  H    0.133740
    78  H    0.150389
    79  H    0.161379
    80  H    0.113892
    81  H    0.096910
    82  H    0.117558
    83  H    0.103776
    84  H    0.106180
    85  H    0.107531
    86  H    0.126473
    87  H    0.113604
    88  H    0.147797
    89  H    0.111402
    90  H    0.157768
    91  H    0.095249
    92  H    0.114364
    93  H    0.075684
    94  H    0.154669
    95  H    0.075598
    96  H    0.135808
    97  H    0.105461
    98  H    0.071505
    99  H    0.077779
   100  H    0.084714
   101  H    0.102094
   102  H    0.084421
   103  H    0.065928
   104  H    0.094625
   105  H    0.108604
   106  H    0.104804
   107  H    0.086495
   108  H    0.104473
   109  H    0.083914
   110  H    0.073330
   111  H    0.081452
   112  H    0.086268
   113  H    0.087493
   114  H    0.081059
   115  H    0.110369
   116  H    0.106412
   117  H    0.088490
   118  H    0.083285
   119  H    0.058309
   120  H    0.107216
   121  H    0.093581
   122  H    0.065285
   123  H    0.098017
   124  H    0.101517
   125  H    0.114636
   126  H    0.068002
   127  H    0.094551
   128  H    0.103268
   129  H    0.099819
   130  H    0.131165
   131  H    0.139569
   132  H    0.119158
   133  O   -0.448661
   134  H    0.054083
 Sum of Mulliken charges =   0.00000

 Dipole moment (field-independent basis, Debye):
    X=              1.7405    Y=             -3.7778    Z=             -0.1543  Tot=              4.1623
 Quadrupole moment (field-independent basis, Debye-Ang):
   XX=           -385.5020   YY=           -439.1460   ZZ=           -393.6259
   XY=             12.8276   XZ=             20.0810   YZ=            -34.8558

 Normal termination of Gaussian 09 at Mon Oct  7 16:48:12 2019.
