 Gaussian 09, Revision D.01,
 Gaussian 09:  ES64L-G09RevD.01 24-Apr-2013

 ----------------------------------------------------------------------
 # td=(NStates=1) iop(3/107=0140000000,3/108=0140000000) iop(3/107=0140
 000000,3/108=0140000000) CAM-B3LYP/6-31G(d,p)
 ----------------------------------------------------------------------

 --
 TD
 --
 Symbolic Z-matrix:
 Charge =  0 Multiplicity = 1

                         Standard orientation:
 ---------------------------------------------------------------------
 Center     Atomic      Atomic             Coordinates (Angstroms)
 Number     Number       Type             X           Y           Z
 ---------------------------------------------------------------------
      1         12           0       -5.715316    1.207319    0.229299
      2          6           0       -4.962740   -2.141225   -0.425241
      3          6           0       -3.429909    1.213030    2.760491
      4          6           0       -6.407063    4.535688    0.738954
      5          6           0       -7.988606    1.227703   -2.362670
      6          7           0       -4.330397   -0.233204    1.001263
      7          6           0       -4.274318   -1.539384    0.622991
      8          6           0       -3.201025   -2.255184    1.565006
      9          6           0       -2.970819   -1.271529    2.571518
     10          6           0       -3.648226    0.019569    2.160535
     11          6           0       -3.582555   -1.654759    3.919003
     12          6           0       -1.924504   -2.660529    0.758749
     13          6           0       -0.885710   -3.528982    1.562303
     14          6           0        0.272052   -3.917544    0.684047
     15          8           0        0.473738   -3.538976   -0.439051
     16          8           0        1.146260   -4.811051    1.301661
     17          7           0       -4.985277    2.594845    1.503221
     18          6           0       -3.996988    2.421605    2.539435
     19          6           0       -3.788227    3.692546    3.164209
     20          6           0       -4.545243    4.671785    2.638356
     21          6           0       -5.383527    4.004210    1.548271
     22          6           0       -2.753804    3.839788    4.263047
     23          6           0       -4.820930    6.008817    2.968752
     24          8           0       -4.238763    6.540574    3.884617
     25          7           0       -6.872453    2.628743   -0.677737
     26          6           0       -7.001189    3.841852   -0.375406
     27          6           0       -7.970656    4.527496   -1.222662
     28          6           0       -8.393766    3.618968   -2.068291
     29          6           0       -7.721282    2.411263   -1.698757
     30          6           0       -8.184796    6.039885   -1.214330
     31          6           0       -9.396822    3.737303   -3.257965
     32          6           0       -8.681215    4.014507   -4.545819
     33          7           0       -6.468301   -0.160875   -1.139249
     34          6           0       -7.410885   -0.087239   -2.096791
     35          6           0       -7.583619   -1.397965   -2.792298
     36          6           0       -6.665601   -2.225875   -2.139790
     37          6           0       -5.958313   -1.494815   -1.091851
     38          6           0       -8.494277   -1.713419   -3.915386
     39          6           0       -6.166091   -3.597487   -2.094555
     40          8           0       -6.567408   -4.610489   -2.578499
     41          6           0       -4.983834   -3.659123   -1.018811
     42          6           0       -5.229345   -4.638549    0.027725
     43          8           0       -5.641209   -4.569763    1.209261
     44          8           0       -5.003965   -5.864170   -0.421182
     45          6           0       -5.352347   -6.907510    0.350743
     46          6           0        2.402414   -5.069344    0.750012
     47          6           0        3.495958   -4.090609    1.072556
     48          6           0        4.054730   -3.172467    0.217454
     49          6           0        3.681253   -3.072603   -1.245101
     50          6           0        5.214767   -2.351917    0.669415
     51          6           0        6.594577   -2.635929    0.056576
     52          6           0        7.717112   -1.699899    0.550824
     53          6           0        8.975571   -2.019439    0.062120
     54          6           0        9.611976   -3.369020    0.402707
     55          6           0       10.061950   -0.801217    0.421454
     56          6           0       11.340530   -0.771631   -0.354155
     57          6           0       12.238748    0.321435    0.213282
     58          6           0       13.603828    0.420789   -0.468847
     59          6           0       14.581461   -0.760842   -0.213807
     60          6           0       14.296587    1.656467   -0.121229
     61          6           0       15.527391    2.070389   -1.008526
     62          6           0       15.944105    3.486001   -0.672427
     63          6           0       17.252082    4.003642   -1.505128
     64          6           0       16.955179    3.979508   -3.004332
     65          6           0       17.697468    5.371648   -1.065908
     66          1           0       -2.637003    1.284332    3.773873
     67          1           0       -6.602805    5.628985    0.802442
     68          1           0       -8.688172    1.368265   -3.061122
     69          1           0       -3.771617   -3.097435    2.020782
     70          1           0       -1.881867   -1.300608    2.683602
     71          1           0       -2.869422   -2.477289    4.319153
     72          1           0       -3.489783   -0.647810    4.601784
     73          1           0       -4.653159   -2.032545    3.876128
     74          1           0       -2.236444   -3.298510   -0.127743
     75          1           0       -1.594108   -1.777011    0.230062
     76          1           0       -0.558008   -3.067183    2.369782
     77          1           0       -1.372138   -4.322754    1.868265
     78          1           0       -1.710426    3.536870    3.845462
     79          1           0       -2.596810    4.815564    4.750457
     80          1           0       -2.816009    3.039800    5.038420
     81          1           0       -5.443734    6.727820    2.358318
     82          1           0      -10.033237    2.804812   -3.245804
     83          1           0      -10.009598    4.481530   -3.076330
     84          1           0       -9.352542    4.293746   -5.282327
     85          1           0       -7.955706    4.772049   -4.309456
     86          1           0       -7.815453    3.278394   -4.820340
     87          1           0       -8.213815   -1.107061   -4.773958
     88          1           0       -8.472787   -2.740985   -4.496606
     89          1           0       -9.607957   -1.552947   -3.660666
     90          1           0       -3.939785   -4.091871   -1.405600
     91          1           0        2.621635   -6.086852    1.065534
     92          1           0        2.349397   -5.223551   -0.425576
     93          1           0        3.752779   -4.039614    2.116360
     94          1           0        2.604736   -3.133802   -1.366328
     95          1           0        4.232984   -2.085853   -1.446610
     96          1           0        4.174312   -3.881515   -1.809013
     97          1           0        4.968748   -1.258617    0.280496
     98          1           0        5.225865   -2.223935    1.792560
     99          1           0        6.630887   -3.745765    0.361965
    100          1           0        6.447893   -2.512425   -0.974388
    101          1           0        7.309325   -0.697234    0.293819
    102          1           0        7.921405   -1.685768    1.704008
    103          1           0        8.949553   -2.146000   -1.136414
    104          1           0        9.039664   -4.260141    0.009446
    105          1           0       10.494131   -3.420150    0.032601
    106          1           0        9.612143   -3.455743    1.530199
    107          1           0        9.425071    0.117738    0.132990
    108          1           0       10.091833   -0.901474    1.520955
    109          1           0       11.856203   -1.805384   -0.210813
    110          1           0       11.121706   -0.913880   -1.467239
    111          1           0       11.815952    1.301601    0.102464
    112          1           0       12.328366    0.382877    1.377945
    113          1           0       13.539927    0.407162   -1.619381
    114          1           0       15.000351   -0.837841    0.833187
    115          1           0       13.945706   -1.656496   -0.386608
    116          1           0       15.514553   -0.644729   -0.842600
    117          1           0       13.499802    2.308885   -0.073744
    118          1           0       14.721160    1.655033    0.924524
    119          1           0       16.390435    1.324631   -0.773580
    120          1           0       15.299748    2.110135   -2.005993
    121          1           0       15.176984    4.192362   -0.841962
    122          1           0       16.278545    3.568227    0.425126
    123          1           0       18.190931    3.428299   -1.343018
    124          1           0       16.187176    4.745912   -3.480107
    125          1           0       17.914390    4.405070   -3.473538
    126          1           0       16.747186    3.001386   -3.377815
    127          1           0       17.804977    5.204852   -0.000708
    128          1           0       18.788285    5.483972   -1.369944
    129          1           0       17.036937    6.254947   -1.266587
    130          1           0       -5.500555   -7.972032   -0.343883
    131          1           0       -6.426605   -6.607858    0.979828
    132          1           0       -4.561382   -7.024616    1.149754
    133          8           0       -7.746082    6.802301   -0.464571
    134          1           0       -8.971591    6.149054   -2.061179
 ---------------------------------------------------------------------

 SCF Done:  E(RCAM-B3LYP) =  -3043.49992850     A.U. after   16 cycles

 Excitation energies and oscillator strengths:

 Excited State   1:      Singlet-A      2.0139 eV  615.65 nm  f=0.2449  <S**2>=0.000
     243 -> 246        0.23743
     244 -> 245        0.66178
 This state for optimization and/or second-order correction.
 Total Energy, E(TD-HF/TD-KS) =  -3043.42592029
 Copying the excited state density for this state as the 1-particle RhoCI density.

 The electronic state is 1-A.
 Alpha  occ. eigenvalues --  -46.81513 -19.22640 -19.21550 -19.19743 -19.17971
 Alpha  occ. eigenvalues --  -19.17501 -19.16520 -19.16148 -14.39391 -14.37025
 Alpha  occ. eigenvalues --  -14.36984 -14.36861 -10.35570 -10.35057 -10.32238
 Alpha  occ. eigenvalues --  -10.32014 -10.29557 -10.29192 -10.27759 -10.27687
 Alpha  occ. eigenvalues --  -10.27427 -10.27281 -10.27092 -10.26939 -10.26867
 Alpha  occ. eigenvalues --  -10.26047 -10.25940 -10.25850 -10.25629 -10.25175
 Alpha  occ. eigenvalues --  -10.24894 -10.24454 -10.23954 -10.23914 -10.23805
 Alpha  occ. eigenvalues --  -10.23788 -10.23710 -10.23500 -10.23437 -10.23356
 Alpha  occ. eigenvalues --  -10.23096 -10.23012 -10.22911 -10.22856 -10.22847
 Alpha  occ. eigenvalues --  -10.22752 -10.22359 -10.22305 -10.22124 -10.22058
 Alpha  occ. eigenvalues --  -10.21980 -10.21771 -10.21753 -10.21731 -10.21659
 Alpha  occ. eigenvalues --  -10.21596 -10.21092 -10.20925 -10.20916 -10.20732
 Alpha  occ. eigenvalues --  -10.20706 -10.20582 -10.20204 -10.20130 -10.19432
 Alpha  occ. eigenvalues --  -10.19317  -3.10064  -1.85008  -1.84551  -1.84455
 Alpha  occ. eigenvalues --   -1.16160  -1.13134  -1.12433  -1.08782  -1.06985
 Alpha  occ. eigenvalues --   -1.05435  -1.03931  -1.03063  -1.00399  -0.98481
 Alpha  occ. eigenvalues --   -0.96262  -0.88472  -0.86842  -0.86693  -0.86509
 Alpha  occ. eigenvalues --   -0.85628  -0.84792  -0.84477  -0.83794  -0.83114
 Alpha  occ. eigenvalues --   -0.83007  -0.82715  -0.82600  -0.81053  -0.80484
 Alpha  occ. eigenvalues --   -0.80267  -0.78942  -0.78239  -0.77443  -0.76505
 Alpha  occ. eigenvalues --   -0.75546  -0.75157  -0.73927  -0.72458  -0.71997
 Alpha  occ. eigenvalues --   -0.71623  -0.70540  -0.70376  -0.69885  -0.69374
 Alpha  occ. eigenvalues --   -0.69201  -0.68950  -0.67902  -0.67466  -0.66815
 Alpha  occ. eigenvalues --   -0.66283  -0.64616  -0.64528  -0.62835  -0.62642
 Alpha  occ. eigenvalues --   -0.61216  -0.60996  -0.60653  -0.58896  -0.58592
 Alpha  occ. eigenvalues --   -0.58279  -0.57922  -0.57863  -0.57656  -0.57192
 Alpha  occ. eigenvalues --   -0.56406  -0.55611  -0.55202  -0.55013  -0.54652
 Alpha  occ. eigenvalues --   -0.53982  -0.53713  -0.53455  -0.53221  -0.53130
 Alpha  occ. eigenvalues --   -0.52282  -0.51997  -0.51901  -0.51022  -0.50781
 Alpha  occ. eigenvalues --   -0.50379  -0.50092  -0.50026  -0.49662  -0.49346
 Alpha  occ. eigenvalues --   -0.49108  -0.49075  -0.48885  -0.48538  -0.48256
 Alpha  occ. eigenvalues --   -0.48118  -0.47698  -0.47612  -0.47557  -0.47030
 Alpha  occ. eigenvalues --   -0.46978  -0.46634  -0.46366  -0.46228  -0.46189
 Alpha  occ. eigenvalues --   -0.45963  -0.45727  -0.45343  -0.45155  -0.45074
 Alpha  occ. eigenvalues --   -0.44939  -0.44918  -0.44683  -0.44214  -0.43799
 Alpha  occ. eigenvalues --   -0.43583  -0.43503  -0.43356  -0.43213  -0.43134
 Alpha  occ. eigenvalues --   -0.43011  -0.42859  -0.42377  -0.42239  -0.41936
 Alpha  occ. eigenvalues --   -0.41844  -0.41774  -0.41512  -0.41371  -0.41284
 Alpha  occ. eigenvalues --   -0.40987  -0.40725  -0.40383  -0.40029  -0.39893
 Alpha  occ. eigenvalues --   -0.39767  -0.39710  -0.39578  -0.39424  -0.38982
 Alpha  occ. eigenvalues --   -0.38884  -0.38659  -0.38217  -0.38177  -0.38060
 Alpha  occ. eigenvalues --   -0.37807  -0.37635  -0.37019  -0.36943  -0.36925
 Alpha  occ. eigenvalues --   -0.36832  -0.36353  -0.36148  -0.35652  -0.35500
 Alpha  occ. eigenvalues --   -0.35361  -0.35192  -0.35185  -0.34633  -0.34585
 Alpha  occ. eigenvalues --   -0.34260  -0.33999  -0.33738  -0.33415  -0.32497
 Alpha  occ. eigenvalues --   -0.32450  -0.32148  -0.31961  -0.31894  -0.31821
 Alpha  occ. eigenvalues --   -0.31326  -0.31232  -0.30963  -0.30192  -0.30057
 Alpha  occ. eigenvalues --   -0.29996  -0.28996  -0.28325  -0.28158  -0.27942
 Alpha  occ. eigenvalues --   -0.27295  -0.26554  -0.23498  -0.21204
 Alpha virt. eigenvalues --   -0.08505  -0.06324  -0.02088  -0.00324   0.00271
 Alpha virt. eigenvalues --    0.02436   0.02650   0.03393   0.03816   0.04443
 Alpha virt. eigenvalues --    0.04860   0.05771   0.07391   0.08492   0.08780

 Mulliken charges:
               1
     1  Mg   0.820133
     2  C    0.077145
     3  C   -0.184797
     4  C   -0.186351
     5  C   -0.144577
     6  N   -0.637503
     7  C    0.261290
     8  C   -0.152646
     9  C   -0.135126
    10  C    0.354045
    11  C   -0.298670
    12  C   -0.195015
    13  C   -0.249112
    14  C    0.592012
    15  O   -0.440484
    16  O   -0.470288
    17  N   -0.714614
    18  C    0.337623
    19  C    0.070786
    20  C    0.026981
    21  C    0.252461
    22  C   -0.397194
    23  C    0.205171
    24  O   -0.413799
    25  N   -0.671700
    26  C    0.309925
    27  C   -0.073275
    28  C    0.009703
    29  C    0.290729
    30  C    0.289377
    31  C   -0.211892
    32  C   -0.313116
    33  N   -0.712087
    34  C    0.280838
    35  C    0.047629
    36  C    0.010848
    37  C    0.269323
    38  C   -0.401488
    39  C    0.369260
    40  O   -0.425324
    41  C   -0.322462
    42  C    0.625453
    43  O   -0.510100
    44  O   -0.375897
    45  C   -0.074454
    46  C    0.006415
    47  C   -0.129730
    48  C    0.129399
    49  C   -0.370794
    50  C   -0.246889
    51  C   -0.163483
    52  C   -0.132450
    53  C   -0.067613
    54  C   -0.289764
    55  C   -0.174538
    56  C   -0.176680
    57  C   -0.179312
    58  C   -0.049459
    59  C   -0.307693
    60  C   -0.158296
    61  C   -0.176690
    62  C   -0.166354
    63  C   -0.057485
    64  C   -0.303451
    65  C   -0.308300
    66  H    0.077904
    67  H    0.136573
    68  H    0.063440
    69  H    0.132185
    70  H    0.105462
    71  H    0.094805
    72  H    0.085814
    73  H    0.130452
    74  H    0.099342
    75  H    0.128061
    76  H    0.145154
    77  H    0.152217
    78  H    0.113569
    79  H    0.159707
    80  H    0.120357
    81  H    0.086128
    82  H    0.105844
    83  H    0.117511
    84  H    0.122912
    85  H    0.117105
    86  H    0.104000
    87  H    0.133874
    88  H    0.137395
    89  H    0.124880
    90  H    0.161641
    91  H    0.112651
    92  H    0.091157
    93  H    0.075400
    94  H    0.161050
    95  H    0.091298
    96  H    0.123313
    97  H    0.066460
    98  H    0.093341
    99  H    0.094935
   100  H    0.106509
   101  H    0.093352
   102  H    0.070689
   103  H    0.042233
   104  H    0.095467
   105  H    0.115616
   106  H    0.080925
   107  H    0.081545
   108  H    0.092638
   109  H    0.085928
   110  H    0.101319
   111  H    0.100255
   112  H    0.088379
   113  H    0.075460
   114  H    0.089080
   115  H    0.090362
   116  H    0.097483
   117  H    0.080068
   118  H    0.078779
   119  H    0.085355
   120  H    0.103146
   121  H    0.100282
   122  H    0.071209
   123  H    0.085532
   124  H    0.082842
   125  H    0.083246
   126  H    0.107458
   127  H    0.100695
   128  H    0.092082
   129  H    0.101284
   130  H    0.096198
   131  H    0.107033
   132  H    0.111719
   133  O   -0.373059
   134  H    0.047362
 Sum of Mulliken charges =   0.00000

 Dipole moment (field-independent basis, Debye):
    X=              0.7981    Y=             -1.5815    Z=             -2.0277  Tot=              2.6925
 Quadrupole moment (field-independent basis, Debye-Ang):
   XX=           -373.0282   YY=           -440.4964   ZZ=           -394.9471
   XY=             -7.7323   XZ=             30.9805   YZ=            -30.7252

 Normal termination of Gaussian 09 at Mon Oct  7 12:49:54 2019.
