 Gaussian 09, Revision D.01,
 Gaussian 09:  ES64L-G09RevD.01 24-Apr-2013

 ----------------------------------------------------------------------
 # td=(NStates=1) iop(3/107=0140000000,3/108=0140000000) iop(3/107=0140
 000000,3/108=0140000000) CAM-B3LYP/6-31G(d,p)
 ----------------------------------------------------------------------

 --
 TD
 --
 Symbolic Z-matrix:
 Charge =  0 Multiplicity = 1

                         Standard orientation:
 ---------------------------------------------------------------------
 Center     Atomic      Atomic             Coordinates (Angstroms)
 Number     Number       Type             X           Y           Z
 ---------------------------------------------------------------------
      1         12           0       -5.689705    1.230787    0.212289
      2          6           0       -5.021172   -2.127721   -0.232411
      3          6           0       -3.383345    1.222987    2.815720
      4          6           0       -6.198012    4.507289    0.675809
      5          6           0       -8.130933    1.121603   -2.290858
      6          7           0       -4.281784   -0.246021    0.978644
      7          6           0       -4.273408   -1.608013    0.720088
      8          6           0       -3.149195   -2.328631    1.470284
      9          6           0       -2.896152   -1.254065    2.709759
     10          6           0       -3.603802   -0.047794    2.164364
     11          6           0       -3.554367   -1.689393    4.021610
     12          6           0       -2.042147   -2.652356    0.689286
     13          6           0       -1.057304   -3.560962    1.390969
     14          6           0        0.126969   -3.862587    0.611434
     15          8           0        0.396924   -3.447038   -0.521847
     16          8           0        1.027229   -4.661110    1.203031
     17          7           0       -4.869951    2.605571    1.497300
     18          6           0       -3.999969    2.412640    2.577163
     19          6           0       -3.705057    3.687385    3.186185
     20          6           0       -4.538094    4.649470    2.584354
     21          6           0       -5.270761    3.909188    1.517766
     22          6           0       -2.736850    3.846490    4.243153
     23          6           0       -4.646891    6.038087    2.854545
     24          8           0       -4.073257    6.628475    3.713380
     25          7           0       -6.974943    2.595540   -0.686843
     26          6           0       -7.018505    3.849208   -0.295016
     27          6           0       -7.880080    4.606755   -1.316098
     28          6           0       -8.446054    3.636631   -2.105608
     29          6           0       -7.713570    2.386102   -1.747376
     30          6           0       -8.201740    5.981584   -1.283221
     31          6           0       -9.402968    3.873094   -3.307075
     32          6           0       -8.569454    4.049708   -4.619342
     33          7           0       -6.402095   -0.163188   -1.056643
     34          6           0       -7.425562   -0.031422   -1.947095
     35          6           0       -7.654350   -1.409348   -2.608526
     36          6           0       -6.650092   -2.153351   -2.081479
     37          6           0       -5.958097   -1.400943   -1.043832
     38          6           0       -8.559362   -1.616079   -3.721430
     39          6           0       -6.179991   -3.480430   -2.001821
     40          8           0       -6.548107   -4.455997   -2.638042
     41          6           0       -5.048257   -3.565928   -0.830929
     42          6           0       -5.345892   -4.605162    0.150498
     43          8           0       -5.833672   -4.454549    1.233557
     44          8           0       -5.043687   -5.857180   -0.330800
     45          6           0       -5.322921   -7.076340    0.527054
     46          6           0        2.239635   -4.975080    0.552799
     47          6           0        3.431782   -4.118763    0.931528
     48          6           0        3.931414   -3.201046    0.204204
     49          6           0        3.602239   -2.994746   -1.347263
     50          6           0        5.139359   -2.306907    0.627518
     51          6           0        6.614241   -2.756408    0.037890
     52          6           0        7.659428   -1.802411    0.408191
     53          6           0        9.060743   -2.068978   -0.213552
     54          6           0        9.625732   -3.423479    0.185241
     55          6           0        9.961155   -0.911725    0.267698
     56          6           0       11.419193   -0.935860   -0.317786
     57          6           0       12.239518    0.206532    0.199396
     58          6           0       13.611063    0.416017   -0.578156
     59          6           0       14.484547   -0.924850   -0.385218
     60          6           0       14.267263    1.669315   -0.072964
     61          6           0       15.448608    2.181417   -0.947383
     62          6           0       16.066708    3.566061   -0.626138
     63          6           0       17.398618    3.901965   -1.283907
     64          6           0       17.122622    4.046692   -2.798016
     65          6           0       17.931437    5.207324   -0.653782
     66          1           0       -2.732335    1.330264    3.682717
     67          1           0       -6.412183    5.507730    0.703061
     68          1           0       -8.798379    1.028766   -3.113093
     69          1           0       -3.739412   -3.234307    1.796894
     70          1           0       -1.892820   -1.102799    2.842258
     71          1           0       -3.063582   -2.553273    4.509198
     72          1           0       -3.433301   -0.939508    4.762317
     73          1           0       -4.456527   -2.025751    4.122204
     74          1           0       -2.206419   -2.942656   -0.465206
     75          1           0       -1.560345   -1.605008    0.555506
     76          1           0       -0.716466   -3.123832    2.279654
     77          1           0       -1.380798   -4.442944    1.645953
     78          1           0       -1.719241    3.456664    4.145778
     79          1           0       -2.631983    4.797966    4.475788
     80          1           0       -3.026920    3.355439    5.180375
     81          1           0       -5.395948    6.538820    2.388490
     82          1           0       -9.993346    2.918084   -3.217426
     83          1           0      -10.157057    4.676064   -3.215743
     84          1           0       -9.085704    4.117754   -5.631559
     85          1           0       -7.911536    5.004761   -4.623192
     86          1           0       -7.826349    3.178468   -4.763954
     87          1           0       -8.497299   -0.921135   -4.627872
     88          1           0       -8.525382   -2.750973   -3.939442
     89          1           0       -9.500080   -1.543136   -3.393078
     90          1           0       -4.030992   -3.670699   -1.271234
     91          1           0        2.626336   -6.160674    0.934152
     92          1           0        1.994745   -5.022778   -0.588877
     93          1           0        3.913159   -4.316340    2.022310
     94          1           0        2.579725   -3.402158   -1.514395
     95          1           0        3.817695   -2.043771   -1.625254
     96          1           0        4.188277   -3.812693   -1.872312
     97          1           0        4.889860   -1.312754    0.342365
     98          1           0        5.271124   -2.173424    1.825656
     99          1           0        6.883069   -3.852874    0.364318
    100          1           0        6.237164   -2.929108   -0.982351
    101          1           0        7.245308   -0.701045    0.370216
    102          1           0        7.992907   -1.781556    1.655781
    103          1           0        8.912229   -1.772976   -1.423928
    104          1           0        8.887737   -4.219897   -0.139175
    105          1           0       10.591937   -3.670919   -0.288707
    106          1           0        9.592436   -3.379569    1.319737
    107          1           0        9.577824    0.047764   -0.055314
    108          1           0        9.899735   -1.041979    1.357779
    109          1           0       11.784872   -2.103277   -0.160983
    110          1           0       11.404403   -0.719762   -1.443158
    111          1           0       11.732178    1.060871   -0.040166
    112          1           0       12.280627   -0.141802    1.267951
    113          1           0       13.592660    0.324255   -1.590866
    114          1           0       14.856738   -0.962590    0.830314
    115          1           0       14.004110   -1.899768   -0.598590
    116          1           0       15.382359   -0.948836   -0.888949
    117          1           0       13.496587    2.452734   -0.137786
    118          1           0       14.758723    1.855883    0.879819
    119          1           0       16.235672    1.310850   -1.002483
    120          1           0       15.221495    2.441027   -2.022719
    121          1           0       15.528143    4.402600   -0.793530
    122          1           0       16.196034    3.577575    0.403489
    123          1           0       18.079211    3.157608   -1.139225
    124          1           0       16.170327    4.781404   -3.076853
    125          1           0       17.925191    4.682660   -3.393528
    126          1           0       16.965550    3.082639   -3.312314
    127          1           0       18.255705    5.229179    0.454275
    128          1           0       18.964141    5.638071   -1.093617
    129          1           0       17.191273    6.002903   -0.825372
    130          1           0       -5.064082   -7.826715   -0.244260
    131          1           0       -6.383290   -6.929655    0.851842
    132          1           0       -4.709193   -6.963962    1.476535
    133          8           0       -7.678490    6.735099   -0.470250
    134          1           0       -9.061468    6.277178   -2.126458
 ---------------------------------------------------------------------

 SCF Done:  E(RCAM-B3LYP) =  -3043.46558002     A.U. after   16 cycles

 Excitation energies and oscillator strengths:

 Excited State   1:      Singlet-A      1.9995 eV  620.08 nm  f=0.2061  <S**2>=0.000
     243 -> 246       -0.23612
     244 -> 245        0.65967
 This state for optimization and/or second-order correction.
 Total Energy, E(TD-HF/TD-KS) =  -3043.39210073
 Copying the excited state density for this state as the 1-particle RhoCI density.

 The electronic state is 1-A.
 Alpha  occ. eigenvalues --  -46.82246 -19.22457 -19.20956 -19.17161 -19.17077
 Alpha  occ. eigenvalues --  -19.17054 -19.16506 -19.15978 -14.39331 -14.37514
 Alpha  occ. eigenvalues --  -14.37313 -14.36691 -10.35077 -10.34538 -10.31387
 Alpha  occ. eigenvalues --  -10.30770 -10.29841 -10.28640 -10.28537 -10.28014
 Alpha  occ. eigenvalues --  -10.26670 -10.26644 -10.26594 -10.26497 -10.26413
 Alpha  occ. eigenvalues --  -10.26371 -10.26156 -10.25425 -10.25225 -10.25104
 Alpha  occ. eigenvalues --  -10.24917 -10.24845 -10.24741 -10.24616 -10.24376
 Alpha  occ. eigenvalues --  -10.24132 -10.23903 -10.23746 -10.23562 -10.23147
 Alpha  occ. eigenvalues --  -10.22988 -10.22960 -10.22791 -10.22757 -10.22716
 Alpha  occ. eigenvalues --  -10.22715 -10.22608 -10.22365 -10.22236 -10.22157
 Alpha  occ. eigenvalues --  -10.22131 -10.21846 -10.21827 -10.21755 -10.21643
 Alpha  occ. eigenvalues --  -10.21614 -10.21349 -10.21291 -10.20901 -10.20897
 Alpha  occ. eigenvalues --  -10.20843 -10.20781 -10.20526 -10.20414 -10.20339
 Alpha  occ. eigenvalues --  -10.18772  -3.10750  -1.85701  -1.85238  -1.85133
 Alpha  occ. eigenvalues --   -1.14267  -1.12112  -1.07617  -1.06725  -1.06535
 Alpha  occ. eigenvalues --   -1.03610  -1.03560  -1.02112  -1.01012  -0.99532
 Alpha  occ. eigenvalues --   -0.98528  -0.88652  -0.88040  -0.85558  -0.85493
 Alpha  occ. eigenvalues --   -0.84999  -0.84679  -0.84471  -0.84433  -0.83874
 Alpha  occ. eigenvalues --   -0.83417  -0.83336  -0.82815  -0.80782  -0.79674
 Alpha  occ. eigenvalues --   -0.79203  -0.78070  -0.77672  -0.77293  -0.77206
 Alpha  occ. eigenvalues --   -0.76168  -0.75119  -0.74330  -0.73181  -0.72764
 Alpha  occ. eigenvalues --   -0.71149  -0.70614  -0.70263  -0.70208  -0.69801
 Alpha  occ. eigenvalues --   -0.69677  -0.69217  -0.68409  -0.67263  -0.66354
 Alpha  occ. eigenvalues --   -0.66235  -0.64814  -0.64580  -0.63122  -0.62176
 Alpha  occ. eigenvalues --   -0.62132  -0.61544  -0.59895  -0.59564  -0.58943
 Alpha  occ. eigenvalues --   -0.58608  -0.58243  -0.57749  -0.57244  -0.56794
 Alpha  occ. eigenvalues --   -0.56677  -0.56539  -0.55617  -0.55192  -0.54724
 Alpha  occ. eigenvalues --   -0.54528  -0.53844  -0.53408  -0.53076  -0.52329
 Alpha  occ. eigenvalues --   -0.51621  -0.51371  -0.51242  -0.50786  -0.50230
 Alpha  occ. eigenvalues --   -0.49876  -0.49701  -0.49611  -0.49290  -0.48926
 Alpha  occ. eigenvalues --   -0.48798  -0.48752  -0.48607  -0.48504  -0.47928
 Alpha  occ. eigenvalues --   -0.47706  -0.47564  -0.47392  -0.47101  -0.46922
 Alpha  occ. eigenvalues --   -0.46717  -0.46576  -0.46538  -0.46436  -0.46364
 Alpha  occ. eigenvalues --   -0.45989  -0.45627  -0.45502  -0.45342  -0.45034
 Alpha  occ. eigenvalues --   -0.44959  -0.44675  -0.44477  -0.44183  -0.43906
 Alpha  occ. eigenvalues --   -0.43742  -0.43600  -0.43315  -0.43029  -0.42910
 Alpha  occ. eigenvalues --   -0.42840  -0.42514  -0.42409  -0.42288  -0.42062
 Alpha  occ. eigenvalues --   -0.41832  -0.41752  -0.41622  -0.41517  -0.41344
 Alpha  occ. eigenvalues --   -0.41165  -0.40952  -0.40670  -0.40604  -0.40317
 Alpha  occ. eigenvalues --   -0.40228  -0.39949  -0.39651  -0.39556  -0.39372
 Alpha  occ. eigenvalues --   -0.39262  -0.38836  -0.38475  -0.38329  -0.38261
 Alpha  occ. eigenvalues --   -0.38243  -0.37655  -0.37310  -0.36864  -0.36635
 Alpha  occ. eigenvalues --   -0.36424  -0.35795  -0.35565  -0.35537  -0.35274
 Alpha  occ. eigenvalues --   -0.35084  -0.34847  -0.34699  -0.34547  -0.34306
 Alpha  occ. eigenvalues --   -0.33873  -0.33817  -0.33495  -0.32821  -0.32607
 Alpha  occ. eigenvalues --   -0.32548  -0.32171  -0.32026  -0.31916  -0.31609
 Alpha  occ. eigenvalues --   -0.31300  -0.30753  -0.30505  -0.30250  -0.30055
 Alpha  occ. eigenvalues --   -0.29375  -0.28899  -0.28040  -0.27802  -0.27786
 Alpha  occ. eigenvalues --   -0.27730  -0.27201  -0.23471  -0.21174
 Alpha virt. eigenvalues --   -0.08353  -0.06573  -0.01763  -0.00728   0.00284
 Alpha virt. eigenvalues --    0.03235   0.03301   0.03426   0.04086   0.04594
 Alpha virt. eigenvalues --    0.05085   0.06408   0.08293   0.08451   0.08941

 Mulliken charges:
               1
     1  Mg   0.828609
     2  C    0.091954
     3  C   -0.193510
     4  C   -0.147054
     5  C   -0.130190
     6  N   -0.610643
     7  C    0.278779
     8  C   -0.147914
     9  C   -0.144474
    10  C    0.331861
    11  C   -0.320039
    12  C   -0.163434
    13  C   -0.237522
    14  C    0.586158
    15  O   -0.490132
    16  O   -0.448189
    17  N   -0.725056
    18  C    0.310328
    19  C    0.060242
    20  C   -0.023854
    21  C    0.340372
    22  C   -0.401434
    23  C    0.244153
    24  O   -0.413400
    25  N   -0.659357
    26  C    0.274512
    27  C   -0.002177
    28  C   -0.010186
    29  C    0.272835
    30  C    0.230319
    31  C   -0.231139
    32  C   -0.310197
    33  N   -0.739857
    34  C    0.259885
    35  C    0.025834
    36  C    0.058680
    37  C    0.288733
    38  C   -0.400457
    39  C    0.345323
    40  O   -0.456989
    41  C   -0.328625
    42  C    0.628576
    43  O   -0.469197
    44  O   -0.488419
    45  C   -0.087853
    46  C    0.016485
    47  C   -0.123231
    48  C    0.124657
    49  C   -0.370747
    50  C   -0.240443
    51  C   -0.164705
    52  C   -0.136347
    53  C   -0.053187
    54  C   -0.304165
    55  C   -0.153861
    56  C   -0.189672
    57  C   -0.148369
    58  C   -0.055313
    59  C   -0.321964
    60  C   -0.164003
    61  C   -0.204132
    62  C   -0.162923
    63  C   -0.041904
    64  C   -0.306911
    65  C   -0.312866
    66  H    0.079469
    67  H    0.123343
    68  H    0.097198
    69  H    0.116595
    70  H    0.112711
    71  H    0.099142
    72  H    0.113780
    73  H    0.140531
    74  H    0.120261
    75  H    0.106373
    76  H    0.148749
    77  H    0.149425
    78  H    0.123302
    79  H    0.154481
    80  H    0.126656
    81  H    0.074578
    82  H    0.107528
    83  H    0.121323
    84  H    0.107906
    85  H    0.112965
    86  H    0.106336
    87  H    0.130859
    88  H    0.140596
    89  H    0.145549
    90  H    0.158641
    91  H    0.069933
    92  H    0.117223
    93  H    0.076308
    94  H    0.147104
    95  H    0.117698
    96  H    0.114698
    97  H    0.107392
    98  H    0.068545
    99  H    0.090006
   100  H    0.108677
   101  H    0.086576
   102  H    0.041087
   103  H    0.052695
   104  H    0.101375
   105  H    0.116454
   106  H    0.101088
   107  H    0.091331
   108  H    0.078408
   109  H    0.067356
   110  H    0.074530
   111  H    0.099042
   112  H    0.099271
   113  H    0.108199
   114  H    0.052817
   115  H    0.104980
   116  H    0.109146
   117  H    0.088721
   118  H    0.104151
   119  H    0.076892
   120  H    0.085081
   121  H    0.097618
   122  H    0.082814
   123  H    0.099027
   124  H    0.069891
   125  H    0.085643
   126  H    0.114880
   127  H    0.096405
   128  H    0.077014
   129  H    0.103570
   130  H    0.148210
   131  H    0.146082
   132  H    0.128373
   133  O   -0.428228
   134  H    0.041370
 Sum of Mulliken charges =   0.00000

 Dipole moment (field-independent basis, Debye):
    X=              0.6085    Y=             -4.8618    Z=             -0.6101  Tot=              4.9375
 Quadrupole moment (field-independent basis, Debye-Ang):
   XX=           -383.1024   YY=           -441.5361   ZZ=           -390.8163
   XY=             12.7024   XZ=             19.3637   YZ=            -34.5855

 Normal termination of Gaussian 09 at Fri Oct  4 00:28:09 2019.
