 Gaussian 09, Revision D.01,
 Gaussian 09:  ES64L-G09RevD.01 24-Apr-2013

 ----------------------------------------------------------------------
 # td=(NStates=1) iop(3/107=0140000000,3/108=0140000000) iop(3/107=0140
 000000,3/108=0140000000) CAM-B3LYP/6-31G(d,p)
 ----------------------------------------------------------------------

 --
 TD
 --
 Symbolic Z-matrix:
 Charge =  0 Multiplicity = 1

                         Standard orientation:
 ---------------------------------------------------------------------
 Center     Atomic      Atomic             Coordinates (Angstroms)
 Number     Number       Type             X           Y           Z
 ---------------------------------------------------------------------
      1         12           0       -5.625977    1.186289    0.252501
      2          6           0       -4.994289   -2.169537   -0.355519
      3          6           0       -3.387918    1.156225    2.681098
      4          6           0       -6.251218    4.590821    0.644815
      5          6           0       -8.061882    1.148882   -2.288235
      6          7           0       -4.425470   -0.335554    1.110819
      7          6           0       -4.253236   -1.600007    0.627481
      8          6           0       -3.178782   -2.388103    1.428569
      9          6           0       -2.890412   -1.279811    2.571205
     10          6           0       -3.518844    0.027970    2.071783
     11          6           0       -3.283821   -1.669864    3.988641
     12          6           0       -2.022697   -2.634010    0.568652
     13          6           0       -1.022958   -3.528314    1.313675
     14          6           0        0.163912   -3.967146    0.559719
     15          8           0        0.348552   -3.509219   -0.568550
     16          8           0        1.065203   -4.602888    1.251892
     17          7           0       -4.928724    2.598096    1.561400
     18          6           0       -3.937310    2.477880    2.491286
     19          6           0       -3.630336    3.690026    3.076735
     20          6           0       -4.477017    4.654301    2.472030
     21          6           0       -5.217957    3.988279    1.418854
     22          6           0       -2.653952    3.886046    4.190226
     23          6           0       -4.561864    6.221105    2.814971
     24          8           0       -3.874433    6.692341    3.633494
     25          7           0       -6.937583    2.648523   -0.585233
     26          6           0       -7.131683    3.906670   -0.260590
     27          6           0       -7.998907    4.621840   -1.182794
     28          6           0       -8.477564    3.613924   -2.015754
     29          6           0       -7.828448    2.384529   -1.628943
     30          6           0       -8.159838    6.055195   -1.178300
     31          6           0       -9.476859    3.748373   -3.113628
     32          6           0       -8.909594    3.886494   -4.485027
     33          7           0       -6.482065   -0.180142   -1.039427
     34          6           0       -7.397426    0.022183   -2.044077
     35          6           0       -7.641294   -1.281061   -2.649991
     36          6           0       -6.755967   -2.157768   -2.020732
     37          6           0       -6.099891   -1.450068   -1.041504
     38          6           0       -8.559736   -1.602573   -3.836851
     39          6           0       -6.195444   -3.520896   -2.000561
     40          8           0       -6.536206   -4.541923   -2.608402
     41          6           0       -5.081679   -3.550032   -0.920181
     42          6           0       -5.288015   -4.654102    0.172083
     43          8           0       -5.940951   -4.483967    1.184018
     44          8           0       -5.025028   -5.904812   -0.300851
     45          6           0       -5.475259   -6.952454    0.456815
     46          6           0        2.239605   -5.006490    0.624496
     47          6           0        3.425428   -4.211337    1.013897
     48          6           0        4.116447   -3.298050    0.199170
     49          6           0        3.762844   -3.211835   -1.219932
     50          6           0        5.157841   -2.440142    0.833927
     51          6           0        6.482549   -2.701462    0.181293
     52          6           0        7.686651   -1.822393    0.790098
     53          6           0        9.007805   -2.008504   -0.010174
     54          6           0        9.455966   -3.457521    0.116805
     55          6           0       10.022740   -0.962090    0.481788
     56          6           0       11.400836   -0.868601   -0.328482
     57          6           0       12.215917    0.305592    0.131727
     58          6           0       13.562963    0.515825   -0.618793
     59          6           0       14.540413   -0.781327   -0.428796
     60          6           0       14.186453    1.806381   -0.219773
     61          6           0       15.537413    2.171981   -0.950236
     62          6           0       16.071007    3.518079   -0.664448
     63          6           0       17.386275    3.892060   -1.365037
     64          6           0       17.246740    3.943509   -2.921501
     65          6           0       18.123061    5.145964   -0.840142
     66          1           0       -2.561021    1.151957    3.524728
     67          1           0       -6.284021    5.548401    0.946662
     68          1           0       -8.843308    1.180129   -3.236097
     69          1           0       -3.774977   -3.044218    1.978808
     70          1           0       -1.769696   -1.011876    2.571561
     71          1           0       -2.788882   -2.581601    4.245677
     72          1           0       -3.270149   -0.874967    4.538238
     73          1           0       -4.498427   -2.028413    3.842021
     74          1           0       -2.399994   -3.080102   -0.299166
     75          1           0       -1.784608   -1.593047    0.293809
     76          1           0       -0.723925   -2.899044    2.222696
     77          1           0       -1.497425   -4.502035    1.813528
     78          1           0       -1.631858    3.674825    3.605148
     79          1           0       -2.687410    5.070507    4.362867
     80          1           0       -2.757532    3.225142    5.188215
     81          1           0       -5.516009    6.950736    2.442319
     82          1           0      -10.088464    2.846465   -3.091935
     83          1           0      -10.077025    4.563992   -2.892088
     84          1           0       -9.686422    4.252005   -5.287086
     85          1           0       -8.141504    4.649183   -4.529053
     86          1           0       -8.183979    2.971976   -4.921964
     87          1           0       -8.243676   -0.830317   -4.605291
     88          1           0       -8.663116   -2.718642   -4.043334
     89          1           0       -9.614215   -1.056762   -3.754610
     90          1           0       -4.176489   -3.941188   -1.314814
     91          1           0        2.347817   -6.143011    1.070066
     92          1           0        2.150427   -5.090718   -0.407359
     93          1           0        3.594199   -4.332793    2.181789
     94          1           0        2.702752   -3.503245   -1.438162
     95          1           0        4.101901   -2.205903   -1.458337
     96          1           0        4.383903   -3.997687   -1.827148
     97          1           0        4.820553   -1.450994    0.805604
     98          1           0        5.256221   -2.479197    1.988092
     99          1           0        6.720986   -3.875414    0.223508
    100          1           0        6.591957   -2.471736   -0.888375
    101          1           0        7.118553   -0.858363    0.829177
    102          1           0        7.712406   -1.805441    1.873317
    103          1           0        8.733754   -1.827025   -1.020339
    104          1           0        8.882495   -4.096794   -0.425716
    105          1           0       10.483685   -3.436359   -0.078182
    106          1           0        9.388175   -3.730594    1.264488
    107          1           0        9.402481    0.029908    0.582083
    108          1           0       10.221080   -1.153779    1.490705
    109          1           0       11.913487   -2.041894   -0.064932
    110          1           0       11.150259   -0.761823   -1.471074
    111          1           0       11.828957    1.262718   -0.007676
    112          1           0       12.534012    0.232866    1.160884
    113          1           0       13.303597    0.548016   -1.770022
    114          1           0       15.008765   -0.844810    0.654803
    115          1           0       14.016678   -1.710583   -0.780843
    116          1           0       15.461973   -0.584410   -1.119188
    117          1           0       13.540615    2.612599   -0.338359
    118          1           0       14.349262    1.682083    0.919919
    119          1           0       16.347971    1.409414   -0.805792
    120          1           0       15.282951    1.875792   -2.061906
    121          1           0       15.517410    4.392493   -1.017342
    122          1           0       16.154069    3.520865    0.444596
    123          1           0       18.101325    2.975807   -1.375402
    124          1           0       16.590013    4.954315   -3.374761
    125          1           0       18.319604    3.963443   -3.400340
    126          1           0       16.688916    2.982713   -3.235676
    127          1           0       17.957257    4.940506    0.270650
    128          1           0       19.230080    5.155773   -1.072887
    129          1           0       17.752938    6.101668   -1.065919
    130          1           0       -5.335443   -7.750826   -0.202018
    131          1           0       -6.630259   -7.001302    0.519038
    132          1           0       -5.088687   -7.161826    1.629447
    133          8           0       -7.676385    6.944340   -0.487753
    134          1           0       -8.726993    6.421725   -1.985986
 ---------------------------------------------------------------------

 SCF Done:  E(RCAM-B3LYP) =  -3043.46502787     A.U. after   15 cycles

 Excitation energies and oscillator strengths:

 Excited State   1:      Singlet-A      2.1417 eV  578.89 nm  f=0.1358  <S**2>=0.000
     243 -> 245        0.27723
     243 -> 246       -0.28908
     244 -> 245        0.55182
     244 -> 246        0.15663
 This state for optimization and/or second-order correction.
 Total Energy, E(TD-HF/TD-KS) =  -3043.38632024
 Copying the excited state density for this state as the 1-particle RhoCI density.

 The electronic state is 1-A.
 Alpha  occ. eigenvalues --  -46.81832 -19.23465 -19.23076 -19.19030 -19.17659
 Alpha  occ. eigenvalues --  -19.17194 -19.16817 -19.16084 -14.37847 -14.37745
 Alpha  occ. eigenvalues --  -14.36524 -14.36511 -10.35509 -10.34531 -10.32989
 Alpha  occ. eigenvalues --  -10.31997 -10.29654 -10.27910 -10.27591 -10.26978
 Alpha  occ. eigenvalues --  -10.26657 -10.26531 -10.26465 -10.26460 -10.26247
 Alpha  occ. eigenvalues --  -10.26235 -10.26126 -10.26085 -10.26047 -10.25157
 Alpha  occ. eigenvalues --  -10.25154 -10.24908 -10.24833 -10.24616 -10.24307
 Alpha  occ. eigenvalues --  -10.24144 -10.24139 -10.24118 -10.23975 -10.23826
 Alpha  occ. eigenvalues --  -10.23652 -10.23601 -10.23149 -10.22987 -10.22854
 Alpha  occ. eigenvalues --  -10.22733 -10.22673 -10.22643 -10.22531 -10.22479
 Alpha  occ. eigenvalues --  -10.22427 -10.22295 -10.22145 -10.22122 -10.22036
 Alpha  occ. eigenvalues --  -10.21940 -10.21884 -10.21762 -10.21594 -10.21256
 Alpha  occ. eigenvalues --  -10.21066 -10.21050 -10.21028 -10.20631 -10.20255
 Alpha  occ. eigenvalues --  -10.19648  -3.10237  -1.85200  -1.84692  -1.84639
 Alpha  occ. eigenvalues --   -1.15782  -1.14831  -1.11143  -1.06192  -1.06091
 Alpha  occ. eigenvalues --   -1.05476  -1.04298  -1.01550  -1.00659  -0.99298
 Alpha  occ. eigenvalues --   -0.98272  -0.89059  -0.86568  -0.86382  -0.86169
 Alpha  occ. eigenvalues --   -0.85347  -0.84754  -0.84345  -0.84283  -0.83279
 Alpha  occ. eigenvalues --   -0.83115  -0.82287  -0.81864  -0.81089  -0.79931
 Alpha  occ. eigenvalues --   -0.79370  -0.78676  -0.78055  -0.77530  -0.76882
 Alpha  occ. eigenvalues --   -0.74991  -0.74594  -0.74283  -0.73228  -0.71779
 Alpha  occ. eigenvalues --   -0.71597  -0.70647  -0.70028  -0.69922  -0.69432
 Alpha  occ. eigenvalues --   -0.69376  -0.68893  -0.67259  -0.66807  -0.66501
 Alpha  occ. eigenvalues --   -0.65172  -0.64863  -0.64030  -0.62718  -0.62326
 Alpha  occ. eigenvalues --   -0.61670  -0.60953  -0.60851  -0.60292  -0.59266
 Alpha  occ. eigenvalues --   -0.59198  -0.58258  -0.57628  -0.57058  -0.56603
 Alpha  occ. eigenvalues --   -0.56524  -0.55896  -0.55815  -0.55645  -0.55038
 Alpha  occ. eigenvalues --   -0.54156  -0.53403  -0.52664  -0.52304  -0.52037
 Alpha  occ. eigenvalues --   -0.51877  -0.51733  -0.51398  -0.51020  -0.50659
 Alpha  occ. eigenvalues --   -0.50154  -0.50055  -0.49734  -0.49620  -0.49480
 Alpha  occ. eigenvalues --   -0.49040  -0.48944  -0.48476  -0.48188  -0.48038
 Alpha  occ. eigenvalues --   -0.47962  -0.47840  -0.47392  -0.47308  -0.46960
 Alpha  occ. eigenvalues --   -0.46716  -0.46651  -0.46493  -0.46210  -0.46173
 Alpha  occ. eigenvalues --   -0.45870  -0.45280  -0.45223  -0.45167  -0.44750
 Alpha  occ. eigenvalues --   -0.44657  -0.44634  -0.44313  -0.44128  -0.43880
 Alpha  occ. eigenvalues --   -0.43559  -0.43358  -0.43245  -0.43087  -0.42938
 Alpha  occ. eigenvalues --   -0.42605  -0.42441  -0.42249  -0.41931  -0.41656
 Alpha  occ. eigenvalues --   -0.41295  -0.41285  -0.41117  -0.41015  -0.40899
 Alpha  occ. eigenvalues --   -0.40779  -0.40714  -0.40555  -0.40255  -0.40112
 Alpha  occ. eigenvalues --   -0.39909  -0.39875  -0.39573  -0.39442  -0.39163
 Alpha  occ. eigenvalues --   -0.39065  -0.38827  -0.38584  -0.38381  -0.38218
 Alpha  occ. eigenvalues --   -0.38162  -0.38038  -0.37550  -0.36987  -0.36963
 Alpha  occ. eigenvalues --   -0.36860  -0.36027  -0.35864  -0.35744  -0.35555
 Alpha  occ. eigenvalues --   -0.35343  -0.34929  -0.34670  -0.34511  -0.34267
 Alpha  occ. eigenvalues --   -0.34195  -0.33955  -0.33491  -0.33274  -0.33032
 Alpha  occ. eigenvalues --   -0.32959  -0.32779  -0.32237  -0.31969  -0.31836
 Alpha  occ. eigenvalues --   -0.31314  -0.31036  -0.30607  -0.30039  -0.29811
 Alpha  occ. eigenvalues --   -0.28873  -0.28369  -0.28339  -0.28045  -0.27689
 Alpha  occ. eigenvalues --   -0.27405  -0.25959  -0.22950  -0.22810
 Alpha virt. eigenvalues --   -0.09004  -0.06924  -0.00990  -0.00656   0.00355
 Alpha virt. eigenvalues --    0.01945   0.02294   0.03094   0.03846   0.04530
 Alpha virt. eigenvalues --    0.05031   0.05396   0.06851   0.08217   0.08833

 Mulliken charges:
               1
     1  Mg   0.813047
     2  C    0.102478
     3  C   -0.219891
     4  C   -0.099434
     5  C   -0.156720
     6  N   -0.655998
     7  C    0.254705
     8  C   -0.144599
     9  C   -0.175607
    10  C    0.394759
    11  C   -0.273812
    12  C   -0.136862
    13  C   -0.274852
    14  C    0.596141
    15  O   -0.484638
    16  O   -0.407935
    17  N   -0.708072
    18  C    0.349821
    19  C    0.045420
    20  C   -0.078673
    21  C    0.252890
    22  C   -0.388506
    23  C    0.252566
    24  O   -0.350931
    25  N   -0.650549
    26  C    0.277178
    27  C   -0.001707
    28  C    0.003400
    29  C    0.281851
    30  C    0.246916
    31  C   -0.228715
    32  C   -0.308039
    33  N   -0.745269
    34  C    0.313833
    35  C    0.008295
    36  C    0.037480
    37  C    0.293436
    38  C   -0.383568
    39  C    0.373043
    40  O   -0.469149
    41  C   -0.306109
    42  C    0.586210
    43  O   -0.449581
    44  O   -0.408295
    45  C   -0.082460
    46  C    0.003043
    47  C   -0.126769
    48  C    0.130106
    49  C   -0.377962
    50  C   -0.232119
    51  C   -0.176994
    52  C   -0.187319
    53  C   -0.055338
    54  C   -0.295003
    55  C   -0.179285
    56  C   -0.165850
    57  C   -0.146974
    58  C   -0.070490
    59  C   -0.309961
    60  C   -0.162447
    61  C   -0.183935
    62  C   -0.151098
    63  C   -0.061054
    64  C   -0.285002
    65  C   -0.309247
    66  H    0.071729
    67  H    0.103199
    68  H    0.097946
    69  H    0.126400
    70  H    0.082431
    71  H    0.122060
    72  H    0.120764
    73  H    0.078541
    74  H    0.119129
    75  H    0.123849
    76  H    0.137315
    77  H    0.116375
    78  H    0.110390
    79  H    0.152627
    80  H    0.116505
    81  H    0.078109
    82  H    0.114207
    83  H    0.122840
    84  H    0.104119
    85  H    0.123333
    86  H    0.081648
    87  H    0.134753
    88  H    0.157964
    89  H    0.110490
    90  H    0.155882
    91  H    0.082028
    92  H    0.121706
    93  H    0.068991
    94  H    0.157264
    95  H    0.111641
    96  H    0.111172
    97  H    0.114998
    98  H    0.097791
    99  H    0.080387
   100  H    0.100358
   101  H    0.074880
   102  H    0.087360
   103  H    0.088819
   104  H    0.115966
   105  H    0.101819
   106  H    0.083480
   107  H    0.075312
   108  H    0.101849
   109  H    0.063838
   110  H    0.085608
   111  H    0.101074
   112  H    0.094257
   113  H    0.060912
   114  H    0.087714
   115  H    0.107703
   116  H    0.089334
   117  H    0.102812
   118  H    0.072713
   119  H    0.095364
   120  H    0.076836
   121  H    0.097289
   122  H    0.092010
   123  H    0.073756
   124  H    0.052971
   125  H    0.092709
   126  H    0.096207
   127  H    0.090691
   128  H    0.102390
   129  H    0.114951
   130  H    0.129279
   131  H    0.113419
   132  H    0.099427
   133  O   -0.435808
   134  H    0.054318
 Sum of Mulliken charges =   0.00000

 Dipole moment (field-independent basis, Debye):
    X=              1.5176    Y=             -2.4878    Z=             -0.9079  Tot=              3.0523
 Quadrupole moment (field-independent basis, Debye-Ang):
   XX=           -379.4464   YY=           -437.9084   ZZ=           -395.5993
   XY=              2.0098   XZ=             28.4929   YZ=            -26.1850

 Normal termination of Gaussian 09 at Sat Oct  5 01:11:40 2019.
