 Gaussian 09, Revision D.01,
 Gaussian 09:  ES64L-G09RevD.01 24-Apr-2013

 ----------------------------------------------------------------------
 # td=(NStates=1) iop(3/107=0140000000,3/108=0140000000) iop(3/107=0140
 000000,3/108=0140000000) CAM-B3LYP/6-31G(d,p)
 ----------------------------------------------------------------------

 --
 TD
 --
 Symbolic Z-matrix:
 Charge =  0 Multiplicity = 1

                         Standard orientation:
 ---------------------------------------------------------------------
 Center     Atomic      Atomic             Coordinates (Angstroms)
 Number     Number       Type             X           Y           Z
 ---------------------------------------------------------------------
      1         12           0       -5.628079    1.279155    0.260534
      2          6           0       -5.119587   -2.159320   -0.257563
      3          6           0       -3.280800    1.182476    2.742611
      4          6           0       -6.061867    4.589422    0.633319
      5          6           0       -7.876468    1.222056   -2.338962
      6          7           0       -4.484204   -0.300809    1.063909
      7          6           0       -4.262125   -1.582899    0.617932
      8          6           0       -3.303134   -2.318575    1.495351
      9          6           0       -3.003524   -1.318029    2.630230
     10          6           0       -3.633924   -0.053026    2.078555
     11          6           0       -3.526371   -1.681398    4.029042
     12          6           0       -2.033595   -2.607370    0.656233
     13          6           0       -1.045669   -3.511124    1.411446
     14          6           0        0.203973   -3.931102    0.552334
     15          8           0        0.467948   -3.511435   -0.551804
     16          8           0        0.994891   -4.860180    1.282534
     17          7           0       -4.892226    2.610878    1.507248
     18          6           0       -3.873265    2.436559    2.479463
     19          6           0       -3.521337    3.695031    3.124951
     20          6           0       -4.374787    4.644844    2.576180
     21          6           0       -5.184655    4.005470    1.564621
     22          6           0       -2.523082    3.870597    4.261532
     23          6           0       -4.448329    6.015243    2.855897
     24          8           0       -3.829161    6.516309    3.775358
     25          7           0       -6.720017    2.656832   -0.719232
     26          6           0       -6.910375    3.992948   -0.349425
     27          6           0       -7.833166    4.654249   -1.258998
     28          6           0       -8.268431    3.656253   -2.082526
     29          6           0       -7.697616    2.402580   -1.729681
     30          6           0       -8.086084    6.049880   -1.163190
     31          6           0       -9.336138    3.826209   -3.131554
     32          6           0       -8.720838    3.942928   -4.511123
     33          7           0       -6.239991   -0.078701   -1.188376
     34          6           0       -7.190376    0.043946   -2.107779
     35          6           0       -7.466483   -1.231696   -2.690885
     36          6           0       -6.601849   -2.134062   -2.067448
     37          6           0       -5.999498   -1.358737   -1.160564
     38          6           0       -8.519625   -1.485750   -3.776113
     39          6           0       -6.264742   -3.460496   -2.064186
     40          8           0       -6.644731   -4.483639   -2.657809
     41          6           0       -5.153254   -3.532349   -0.836235
     42          6           0       -5.444178   -4.610967    0.206733
     43          8           0       -5.858697   -4.377645    1.332641
     44          8           0       -5.300984   -5.861596   -0.335203
     45          6           0       -5.661316   -6.841160    0.608114
     46          6           0        2.191234   -5.101377    0.593731
     47          6           0        3.343045   -4.250164    1.038951
     48          6           0        3.998386   -3.416692    0.161638
     49          6           0        3.543648   -3.186481   -1.248639
     50          6           0        5.082175   -2.471618    0.614631
     51          6           0        6.445614   -2.698429   -0.058478
     52          6           0        7.593296   -1.764216    0.521294
     53          6           0        8.880913   -1.905575   -0.180314
     54          6           0        9.454798   -3.423676   -0.052947
     55          6           0       10.030171   -0.976305    0.369821
     56          6           0       11.258841   -0.883130   -0.430740
     57          6           0       12.100551    0.294458    0.172238
     58          6           0       13.436641    0.416680   -0.536317
     59          6           0       14.452062   -0.725943   -0.314740
     60          6           0       14.220174    1.744728   -0.122100
     61          6           0       15.540360    2.120762   -0.843594
     62          6           0       16.127205    3.482475   -0.475612
     63          6           0       17.367192    3.817805   -1.370985
     64          6           0       16.956082    3.894033   -2.817413
     65          6           0       18.022069    5.085518   -0.847829
     66          1           0       -2.423284    1.181293    3.517356
     67          1           0       -6.195219    5.792906    0.854600
     68          1           0       -8.868063    1.118944   -2.999208
     69          1           0       -3.457070   -3.174407    1.725669
     70          1           0       -1.876795   -1.124468    2.830999
     71          1           0       -3.129449   -2.621476    4.299569
     72          1           0       -3.458863   -1.012913    4.750287
     73          1           0       -4.607498   -2.028238    3.881552
     74          1           0       -2.171423   -3.270826   -0.141957
     75          1           0       -1.538408   -1.655909    0.267146
     76          1           0       -0.673999   -3.006542    2.420966
     77          1           0       -1.551154   -4.402314    2.003167
     78          1           0       -1.621449    3.354638    3.766724
     79          1           0       -2.521245    4.791012    4.421393
     80          1           0       -2.670607    3.032732    5.019919
     81          1           0       -5.308169    6.634412    2.309536
     82          1           0      -10.193903    2.826160   -3.117410
     83          1           0      -10.067486    4.718640   -2.916229
     84          1           0       -9.512393    4.072041   -5.318560
     85          1           0       -8.192808    4.836043   -4.587075
     86          1           0       -8.332485    2.868297   -4.779922
     87          1           0       -8.094155   -0.799871   -4.586002
     88          1           0       -8.549207   -2.539994   -3.811535
     89          1           0       -9.411758   -1.261516   -3.357421
     90          1           0       -4.223360   -3.809835   -1.357660
     91          1           0        2.368158   -6.237345    0.794386
     92          1           0        1.935853   -5.285375   -0.433417
     93          1           0        3.545737   -4.341471    2.139067
     94          1           0        2.527125   -3.702451   -1.392682
     95          1           0        3.653048   -1.990997   -1.574519
     96          1           0        4.291133   -3.870942   -1.799440
     97          1           0        4.701824   -1.513015    0.388196
     98          1           0        5.313463   -2.404893    1.796358
     99          1           0        6.988613   -3.721913    0.206363
    100          1           0        6.483815   -2.687558   -1.207976
    101          1           0        7.137960   -0.798965    0.461613
    102          1           0        7.658092   -1.714729    1.600434
    103          1           0        8.818655   -1.599626   -1.202052
    104          1           0        8.792737   -4.187615   -0.463660
    105          1           0       10.377758   -3.738884   -0.546632
    106          1           0        9.572098   -3.579258    0.954461
    107          1           0        9.570277   -0.019646    0.376718
    108          1           0       10.301506   -1.077597    1.409618
    109          1           0       11.761023   -1.906075   -0.321493
    110          1           0       10.814017   -0.606211   -1.356327
    111          1           0       11.597458    1.353439    0.188495
    112          1           0       12.283256    0.040161    1.295760
    113          1           0       13.509369    0.556804   -1.548189
    114          1           0       14.813500   -0.913559    0.718494
    115          1           0       13.991020   -1.662584   -0.345604
    116          1           0       15.272596   -0.777469   -1.006579
    117          1           0       13.555268    2.707815   -0.116492
    118          1           0       14.579223    1.615637    0.993602
    119          1           0       16.188386    1.264281   -0.791831
    120          1           0       15.432217    2.057843   -1.951937
    121          1           0       15.296540    4.153738   -0.488546
    122          1           0       16.471380    3.373544    0.591959
    123          1           0       18.021386    3.051748   -1.242817
    124          1           0       16.114134    4.681384   -3.059048
    125          1           0       17.817954    3.995979   -3.647038
    126          1           0       16.379996    3.006750   -3.178977
    127          1           0       18.467936    4.808907    0.152339
    128          1           0       18.912075    5.408676   -1.342070
    129          1           0       17.218123    5.953576   -0.751814
    130          1           0       -5.501696   -7.809962    0.130763
    131          1           0       -6.621420   -6.842308    0.914014
    132          1           0       -4.785858   -6.786380    1.446746
    133          8           0       -7.610397    6.892796   -0.441823
    134          1           0       -8.966072    6.350715   -1.913996
 ---------------------------------------------------------------------

 SCF Done:  E(RCAM-B3LYP) =  -3043.46614842     A.U. after   15 cycles

 Excitation energies and oscillator strengths:

 Excited State   1:      Singlet-A      2.0561 eV  603.00 nm  f=0.1517  <S**2>=0.000
     243 -> 246       -0.26453
     244 -> 245        0.64556
 This state for optimization and/or second-order correction.
 Total Energy, E(TD-HF/TD-KS) =  -3043.39058697
 Copying the excited state density for this state as the 1-particle RhoCI density.

 The electronic state is 1-A.
 Alpha  occ. eigenvalues --  -46.81004 -19.22767 -19.22195 -19.19288 -19.17921
 Alpha  occ. eigenvalues --  -19.17509 -19.17238 -19.17214 -14.39439 -14.37456
 Alpha  occ. eigenvalues --  -14.37138 -14.36408 -10.36530 -10.35124 -10.31440
 Alpha  occ. eigenvalues --  -10.31129 -10.30455 -10.28724 -10.27680 -10.27520
 Alpha  occ. eigenvalues --  -10.27249 -10.26923 -10.26876 -10.26793 -10.26240
 Alpha  occ. eigenvalues --  -10.26153 -10.26097 -10.25861 -10.25539 -10.25427
 Alpha  occ. eigenvalues --  -10.25417 -10.25321 -10.24987 -10.24930 -10.24609
 Alpha  occ. eigenvalues --  -10.24583 -10.24512 -10.23554 -10.23403 -10.23359
 Alpha  occ. eigenvalues --  -10.23358 -10.23271 -10.22915 -10.22833 -10.22666
 Alpha  occ. eigenvalues --  -10.22633 -10.22582 -10.22553 -10.22464 -10.22225
 Alpha  occ. eigenvalues --  -10.21969 -10.21856 -10.21451 -10.21414 -10.21404
 Alpha  occ. eigenvalues --  -10.21211 -10.21118 -10.21052 -10.20714 -10.20610
 Alpha  occ. eigenvalues --  -10.20602 -10.20388 -10.19826 -10.19592 -10.19170
 Alpha  occ. eigenvalues --  -10.19161  -3.09776  -1.84699  -1.84243  -1.84208
 Alpha  occ. eigenvalues --   -1.13566  -1.13089  -1.08008  -1.07255  -1.06119
 Alpha  occ. eigenvalues --   -1.05591  -1.04987  -1.03504  -1.00908  -0.98938
 Alpha  occ. eigenvalues --   -0.97759  -0.89374  -0.87005  -0.85830  -0.85797
 Alpha  occ. eigenvalues --   -0.85023  -0.84955  -0.84625  -0.84341  -0.84094
 Alpha  occ. eigenvalues --   -0.83650  -0.82907  -0.81758  -0.80296  -0.79825
 Alpha  occ. eigenvalues --   -0.79494  -0.78553  -0.77691  -0.77023  -0.76575
 Alpha  occ. eigenvalues --   -0.76366  -0.75495  -0.73998  -0.73565  -0.72766
 Alpha  occ. eigenvalues --   -0.71058  -0.70565  -0.70476  -0.70291  -0.69869
 Alpha  occ. eigenvalues --   -0.69332  -0.68798  -0.67995  -0.66596  -0.66563
 Alpha  occ. eigenvalues --   -0.65854  -0.65277  -0.64650  -0.63254  -0.62431
 Alpha  occ. eigenvalues --   -0.62072  -0.60750  -0.60325  -0.59983  -0.59412
 Alpha  occ. eigenvalues --   -0.59242  -0.58589  -0.58537  -0.57927  -0.57505
 Alpha  occ. eigenvalues --   -0.56782  -0.56072  -0.55618  -0.55359  -0.54826
 Alpha  occ. eigenvalues --   -0.54097  -0.53636  -0.53395  -0.52379  -0.52039
 Alpha  occ. eigenvalues --   -0.51976  -0.51452  -0.51285  -0.51211  -0.50822
 Alpha  occ. eigenvalues --   -0.50304  -0.50132  -0.49919  -0.49427  -0.49313
 Alpha  occ. eigenvalues --   -0.49072  -0.48859  -0.48731  -0.48571  -0.48227
 Alpha  occ. eigenvalues --   -0.47972  -0.47725  -0.47661  -0.47356  -0.47035
 Alpha  occ. eigenvalues --   -0.46976  -0.46595  -0.46537  -0.46423  -0.46152
 Alpha  occ. eigenvalues --   -0.45984  -0.45632  -0.45581  -0.45415  -0.45047
 Alpha  occ. eigenvalues --   -0.44893  -0.44772  -0.44742  -0.44698  -0.43922
 Alpha  occ. eigenvalues --   -0.43748  -0.43597  -0.43186  -0.42912  -0.42656
 Alpha  occ. eigenvalues --   -0.42646  -0.42444  -0.42073  -0.42038  -0.41708
 Alpha  occ. eigenvalues --   -0.41620  -0.41337  -0.41173  -0.40999  -0.40646
 Alpha  occ. eigenvalues --   -0.40479  -0.40278  -0.39926  -0.39886  -0.39795
 Alpha  occ. eigenvalues --   -0.39715  -0.39587  -0.39501  -0.39387  -0.39210
 Alpha  occ. eigenvalues --   -0.38961  -0.38817  -0.38453  -0.38090  -0.38012
 Alpha  occ. eigenvalues --   -0.37847  -0.37743  -0.37690  -0.37277  -0.37182
 Alpha  occ. eigenvalues --   -0.36715  -0.36416  -0.36281  -0.36098  -0.36034
 Alpha  occ. eigenvalues --   -0.35812  -0.35515  -0.35281  -0.35042  -0.34979
 Alpha  occ. eigenvalues --   -0.34783  -0.34505  -0.34200  -0.33892  -0.33598
 Alpha  occ. eigenvalues --   -0.33384  -0.32926  -0.32789  -0.32197  -0.31950
 Alpha  occ. eigenvalues --   -0.31835  -0.31149  -0.31094  -0.30096  -0.29865
 Alpha  occ. eigenvalues --   -0.29130  -0.28813  -0.28399  -0.28134  -0.27838
 Alpha  occ. eigenvalues --   -0.27743  -0.26448  -0.23260  -0.22340
 Alpha virt. eigenvalues --   -0.09159  -0.07116  -0.02191  -0.01270   0.00084
 Alpha virt. eigenvalues --    0.01877   0.02625   0.03192   0.03758   0.04307
 Alpha virt. eigenvalues --    0.04459   0.05414   0.06745   0.08434   0.08547

 Mulliken charges:
               1
     1  Mg   0.830692
     2  C    0.097218
     3  C   -0.209149
     4  C   -0.206364
     5  C   -0.181315
     6  N   -0.621990
     7  C    0.296606
     8  C   -0.071923
     9  C   -0.150398
    10  C    0.357126
    11  C   -0.306992
    12  C   -0.189620
    13  C   -0.290655
    14  C    0.616254
    15  O   -0.440481
    16  O   -0.465303
    17  N   -0.728051
    18  C    0.318294
    19  C    0.031939
    20  C    0.016064
    21  C    0.310911
    22  C   -0.319033
    23  C    0.211174
    24  O   -0.418717
    25  N   -0.688258
    26  C    0.275589
    27  C    0.042635
    28  C    0.044759
    29  C    0.318453
    30  C    0.244130
    31  C   -0.257560
    32  C   -0.296516
    33  N   -0.690679
    34  C    0.292332
    35  C   -0.060129
    36  C    0.159497
    37  C    0.246374
    38  C   -0.347843
    39  C    0.298853
    40  O   -0.471597
    41  C   -0.363704
    42  C    0.631817
    43  O   -0.475719
    44  O   -0.436360
    45  C   -0.074315
    46  C   -0.013897
    47  C   -0.130350
    48  C    0.134867
    49  C   -0.354598
    50  C   -0.222814
    51  C   -0.177562
    52  C   -0.181653
    53  C   -0.048516
    54  C   -0.338631
    55  C   -0.193912
    56  C   -0.158635
    57  C   -0.178374
    58  C   -0.036064
    59  C   -0.330302
    60  C   -0.172688
    61  C   -0.196752
    62  C   -0.164180
    63  C   -0.034669
    64  C   -0.305932
    65  C   -0.299523
    66  H    0.083659
    67  H    0.131352
    68  H    0.098705
    69  H    0.063743
    70  H    0.097933
    71  H    0.116803
    72  H    0.122848
    73  H    0.118120
    74  H    0.127389
    75  H    0.118318
    76  H    0.119634
    77  H    0.125278
    78  H    0.118722
    79  H    0.142675
    80  H    0.132858
    81  H    0.071863
    82  H    0.066029
    83  H    0.111279
    84  H    0.102784
    85  H    0.133778
    86  H    0.107518
    87  H    0.133046
    88  H    0.148633
    89  H    0.138230
    90  H    0.156350
    91  H    0.086974
    92  H    0.120316
    93  H    0.090737
    94  H    0.147494
    95  H    0.094915
    96  H    0.113367
    97  H    0.113003
    98  H    0.079958
    99  H    0.091699
   100  H    0.091278
   101  H    0.089950
   102  H    0.091717
   103  H    0.084253
   104  H    0.098268
   105  H    0.098548
   106  H    0.116212
   107  H    0.085950
   108  H    0.080046
   109  H    0.100204
   110  H    0.099794
   111  H    0.088714
   112  H    0.084796
   113  H    0.101002
   114  H    0.092307
   115  H    0.096689
   116  H    0.107876
   117  H    0.059000
   118  H    0.066791
   119  H    0.093893
   120  H    0.075917
   121  H    0.097143
   122  H    0.086300
   123  H    0.100854
   124  H    0.085129
   125  H    0.079758
   126  H    0.102073
   127  H    0.089797
   128  H    0.103716
   129  H    0.088240
   130  H    0.118282
   131  H    0.143224
   132  H    0.092704
   133  O   -0.415347
   134  H    0.025050
 Sum of Mulliken charges =   0.00000

 Dipole moment (field-independent basis, Debye):
    X=              0.8221    Y=             -3.7994    Z=             -0.3465  Tot=              3.9028
 Quadrupole moment (field-independent basis, Debye-Ang):
   XX=           -379.9065   YY=           -448.1632   ZZ=           -396.1761
   XY=             -1.7747   XZ=             16.9809   YZ=            -31.9294

 Normal termination of Gaussian 09 at Fri Oct  4 19:24:35 2019.
