 Gaussian 09, Revision D.01,
 Gaussian 09:  ES64L-G09RevD.01 24-Apr-2013

 ----------------------------------------------------------------------
 # td=(NStates=1) iop(3/107=0140000000,3/108=0140000000) iop(3/107=0140
 000000,3/108=0140000000) CAM-B3LYP/6-31G(d,p)
 ----------------------------------------------------------------------

 --
 TD
 --
 Symbolic Z-matrix:
 Charge =  0 Multiplicity = 1

                         Standard orientation:
 ---------------------------------------------------------------------
 Center     Atomic      Atomic             Coordinates (Angstroms)
 Number     Number       Type             X           Y           Z
 ---------------------------------------------------------------------
      1         12           0       -5.608293    1.331468    0.214639
      2          6           0       -5.006011   -2.199328   -0.324137
      3          6           0       -3.330800    1.166096    2.747799
      4          6           0       -6.150786    4.559605    0.562390
      5          6           0       -7.914977    1.123399   -2.427866
      6          7           0       -4.310210   -0.230293    0.965872
      7          6           0       -4.302172   -1.508927    0.649078
      8          6           0       -3.159076   -2.339856    1.419809
      9          6           0       -2.795949   -1.325976    2.650116
     10          6           0       -3.577656   -0.095243    2.074506
     11          6           0       -3.483870   -1.840298    3.850910
     12          6           0       -1.897048   -2.668601    0.632908
     13          6           0       -1.014491   -3.585262    1.414090
     14          6           0        0.237591   -3.925064    0.646272
     15          8           0        0.448595   -3.501568   -0.487667
     16          8           0        1.095269   -4.735991    1.377426
     17          7           0       -4.857957    2.680839    1.453734
     18          6           0       -3.933782    2.524197    2.451226
     19          6           0       -3.753463    3.719716    3.186135
     20          6           0       -4.567873    4.613995    2.538253
     21          6           0       -5.250355    3.962121    1.487220
     22          6           0       -2.784236    3.872643    4.370597
     23          6           0       -4.722259    6.066063    2.944382
     24          8           0       -4.184495    6.682406    3.827541
     25          7           0       -6.799720    2.636767   -0.763183
     26          6           0       -6.939649    3.936167   -0.410086
     27          6           0       -7.988177    4.546444   -1.182074
     28          6           0       -8.474262    3.585644   -2.056403
     29          6           0       -7.767808    2.390699   -1.767670
     30          6           0       -8.287467    5.982240   -1.117701
     31          6           0       -9.600684    3.762783   -3.149626
     32          6           0       -8.985809    3.836795   -4.558527
     33          7           0       -6.368789   -0.174989   -1.073357
     34          6           0       -7.259555   -0.009857   -2.007494
     35          6           0       -7.578381   -1.325007   -2.794025
     36          6           0       -6.702165   -2.246297   -2.015620
     37          6           0       -5.985449   -1.444985   -1.038873
     38          6           0       -8.575006   -1.691933   -3.777669
     39          6           0       -6.273904   -3.531988   -1.980148
     40          8           0       -6.646229   -4.547729   -2.547836
     41          6           0       -5.040871   -3.626814   -0.931767
     42          6           0       -5.261369   -4.679325    0.115618
     43          8           0       -5.724466   -4.470987    1.279138
     44          8           0       -5.042607   -5.932761   -0.301140
     45          6           0       -5.321190   -6.907809    0.695321
     46          6           0        2.379790   -5.057354    0.736926
     47          6           0        3.510602   -4.159513    1.037974
     48          6           0        4.117487   -3.326120    0.169784
     49          6           0        3.664565   -3.160400   -1.212599
     50          6           0        5.189347   -2.359519    0.683791
     51          6           0        6.615232   -2.672447   -0.055301
     52          6           0        7.765247   -1.799546    0.472302
     53          6           0        9.122514   -2.007047   -0.239304
     54          6           0        9.666631   -3.414178    0.282552
     55          6           0       10.054638   -0.853737    0.281478
     56          6           0       11.402780   -0.964357   -0.344612
     57          6           0       12.196883    0.272152    0.127787
     58          6           0       13.605802    0.516569   -0.553130
     59          6           0       14.581586   -0.704067   -0.487057
     60          6           0       14.203965    1.717726   -0.068148
     61          6           0       15.500617    2.136062   -0.870290
     62          6           0       15.948984    3.592844   -0.675576
     63          6           0       17.222911    3.983488   -1.374516
     64          6           0       17.128581    4.074246   -2.850713
     65          6           0       17.684103    5.352913   -0.760111
     66          1           0       -2.990929    1.317047    3.653180
     67          1           0       -6.299153    5.795823    0.761450
     68          1           0       -8.849663    1.124830   -3.266688
     69          1           0       -3.435552   -3.433659    1.659742
     70          1           0       -1.678038   -1.044350    2.484763
     71          1           0       -3.056362   -2.818637    4.312284
     72          1           0       -3.491165   -1.109156    4.622945
     73          1           0       -4.549970   -1.951286    3.478271
     74          1           0       -2.318733   -3.222886   -0.299795
     75          1           0       -1.395944   -1.872941    0.232488
     76          1           0       -0.602079   -3.038231    2.426866
     77          1           0       -1.581468   -4.469825    1.574517
     78          1           0       -1.756398    3.827740    3.950215
     79          1           0       -3.200753    4.880945    4.927650
     80          1           0       -2.954784    3.089490    4.989723
     81          1           0       -5.327627    6.663199    2.077518
     82          1           0      -10.366648    2.948076   -2.862022
     83          1           0      -10.275908    4.647222   -2.751281
     84          1           0       -9.923506    3.632502   -5.146710
     85          1           0       -8.680058    4.945859   -4.763997
     86          1           0       -8.254302    3.190215   -4.540494
     87          1           0       -8.448068   -0.966248   -4.586570
     88          1           0       -8.468903   -2.776637   -4.064305
     89          1           0       -9.652982   -1.423642   -3.635655
     90          1           0       -4.228378   -3.941544   -1.599074
     91          1           0        2.806716   -5.996422    1.138774
     92          1           0        2.063276   -5.070262   -0.320260
     93          1           0        3.839451   -4.045840    2.154930
     94          1           0        2.651119   -3.257453   -1.499689
     95          1           0        3.842306   -2.236561   -1.573202
     96          1           0        4.276248   -3.910701   -1.869686
     97          1           0        4.876404   -1.244550    0.541774
     98          1           0        5.280858   -2.408005    1.765804
     99          1           0        6.750647   -3.788523    0.029253
    100          1           0        6.554093   -2.407845   -1.102029
    101          1           0        7.349710   -0.841865    0.394281
    102          1           0        7.720270   -1.732887    1.581437
    103          1           0        8.864954   -2.094232   -1.293059
    104          1           0        8.926288   -4.201530   -0.043483
    105          1           0       10.564838   -3.369261   -0.167213
    106          1           0        9.658843   -3.373210    1.317127
    107          1           0        9.399183    0.026304    0.048247
    108          1           0       10.118004   -0.794756    1.337112
    109          1           0       11.945280   -1.747571   -0.032597
    110          1           0       11.502080   -0.794652   -1.325281
    111          1           0       11.478655    1.177405   -0.133283
    112          1           0       12.369318    0.099122    1.048731
    113          1           0       13.386365    0.574001   -1.582634
    114          1           0       15.322055   -0.910917    0.504407
    115          1           0       14.008018   -1.769553   -0.428364
    116          1           0       15.383302   -0.721754   -1.216610
    117          1           0       13.577902    2.337373    0.156509
    118          1           0       14.407153    1.465592    0.964667
    119          1           0       16.305876    1.386997   -0.598589
    120          1           0       15.402700    2.117434   -1.998986
    121          1           0       14.897433    4.215669   -0.862735
    122          1           0       16.129274    3.813125    0.430057
    123          1           0       17.937990    3.126490   -1.247982
    124          1           0       16.536459    4.858749   -2.946679
    125          1           0       18.149756    4.391025   -3.299775
    126          1           0       16.923486    3.064602   -3.332964
    127          1           0       17.828624    5.391315    0.214387
    128          1           0       18.741938    5.618564   -1.279613
    129          1           0       17.001541    6.206749   -1.072091
    130          1           0       -5.066319   -7.893750   -0.024369
    131          1           0       -6.314342   -6.885208    0.992550
    132          1           0       -4.738314   -6.742200    1.665843
    133          8           0       -7.785144    6.833070   -0.495845
    134          1           0       -9.183057    6.217172   -1.728902
 ---------------------------------------------------------------------

 SCF Done:  E(RCAM-B3LYP) =  -3043.39502150     A.U. after   15 cycles

 Excitation energies and oscillator strengths:

 Excited State   1:      Singlet-A      2.0301 eV  610.74 nm  f=0.1553  <S**2>=0.000
     243 -> 245       -0.12732
     243 -> 246        0.28752
     244 -> 245        0.61911
 This state for optimization and/or second-order correction.
 Total Energy, E(TD-HF/TD-KS) =  -3043.32041746
 Copying the excited state density for this state as the 1-particle RhoCI density.

 The electronic state is 1-A.
 Alpha  occ. eigenvalues --  -46.82371 -19.23138 -19.21988 -19.18042 -19.17650
 Alpha  occ. eigenvalues --  -19.17575 -19.16557 -19.16499 -14.39878 -14.37713
 Alpha  occ. eigenvalues --  -14.37302 -14.36612 -10.35358 -10.35108 -10.31354
 Alpha  occ. eigenvalues --  -10.30658 -10.29994 -10.28440 -10.28075 -10.28018
 Alpha  occ. eigenvalues --  -10.27746 -10.27600 -10.27167 -10.26715 -10.26586
 Alpha  occ. eigenvalues --  -10.26531 -10.26307 -10.26136 -10.26097 -10.25676
 Alpha  occ. eigenvalues --  -10.25535 -10.25218 -10.25029 -10.24594 -10.24538
 Alpha  occ. eigenvalues --  -10.24403 -10.24182 -10.24024 -10.23868 -10.22971
 Alpha  occ. eigenvalues --  -10.22914 -10.22716 -10.22693 -10.22665 -10.22634
 Alpha  occ. eigenvalues --  -10.22621 -10.22598 -10.22571 -10.22303 -10.22013
 Alpha  occ. eigenvalues --  -10.21750 -10.21631 -10.21566 -10.21556 -10.21513
 Alpha  occ. eigenvalues --  -10.21317 -10.20729 -10.20721 -10.20670 -10.19687
 Alpha  occ. eigenvalues --  -10.19676 -10.19607 -10.19474 -10.18682 -10.18419
 Alpha  occ. eigenvalues --  -10.18024  -3.10952  -1.85886  -1.85429  -1.85358
 Alpha  occ. eigenvalues --   -1.13880  -1.11573  -1.10041  -1.07861  -1.06525
 Alpha  occ. eigenvalues --   -1.04134  -1.02657  -1.02175  -1.01649  -1.00921
 Alpha  occ. eigenvalues --   -0.99298  -0.88890  -0.86472  -0.86246  -0.85321
 Alpha  occ. eigenvalues --   -0.85227  -0.84699  -0.84312  -0.83784  -0.83663
 Alpha  occ. eigenvalues --   -0.83266  -0.82929  -0.81631  -0.80790  -0.79810
 Alpha  occ. eigenvalues --   -0.79418  -0.78562  -0.77990  -0.77121  -0.76318
 Alpha  occ. eigenvalues --   -0.75360  -0.75063  -0.73881  -0.73184  -0.72574
 Alpha  occ. eigenvalues --   -0.71482  -0.71423  -0.70785  -0.70210  -0.69376
 Alpha  occ. eigenvalues --   -0.69190  -0.68175  -0.67308  -0.66707  -0.66146
 Alpha  occ. eigenvalues --   -0.65575  -0.64971  -0.64439  -0.62684  -0.62028
 Alpha  occ. eigenvalues --   -0.61474  -0.61299  -0.60845  -0.60333  -0.59592
 Alpha  occ. eigenvalues --   -0.59534  -0.58430  -0.58416  -0.57605  -0.57125
 Alpha  occ. eigenvalues --   -0.56551  -0.55660  -0.55522  -0.55274  -0.54823
 Alpha  occ. eigenvalues --   -0.53797  -0.53276  -0.52844  -0.52595  -0.52319
 Alpha  occ. eigenvalues --   -0.51880  -0.51556  -0.51295  -0.50814  -0.50217
 Alpha  occ. eigenvalues --   -0.50174  -0.49830  -0.49589  -0.49448  -0.49253
 Alpha  occ. eigenvalues --   -0.49037  -0.48754  -0.48466  -0.48230  -0.47954
 Alpha  occ. eigenvalues --   -0.47744  -0.47685  -0.47409  -0.47206  -0.47067
 Alpha  occ. eigenvalues --   -0.46961  -0.46906  -0.46567  -0.46008  -0.45753
 Alpha  occ. eigenvalues --   -0.45609  -0.45478  -0.45327  -0.45008  -0.44868
 Alpha  occ. eigenvalues --   -0.44594  -0.44500  -0.44402  -0.44028  -0.43957
 Alpha  occ. eigenvalues --   -0.43496  -0.43309  -0.43208  -0.42883  -0.42729
 Alpha  occ. eigenvalues --   -0.42698  -0.42589  -0.42451  -0.42243  -0.42206
 Alpha  occ. eigenvalues --   -0.41984  -0.41923  -0.41835  -0.41621  -0.41375
 Alpha  occ. eigenvalues --   -0.41293  -0.40944  -0.40883  -0.40595  -0.39968
 Alpha  occ. eigenvalues --   -0.39804  -0.39767  -0.39600  -0.39412  -0.39177
 Alpha  occ. eigenvalues --   -0.39136  -0.38863  -0.38424  -0.38340  -0.38233
 Alpha  occ. eigenvalues --   -0.38144  -0.37714  -0.37509  -0.37191  -0.36663
 Alpha  occ. eigenvalues --   -0.36626  -0.36429  -0.36373  -0.36156  -0.35560
 Alpha  occ. eigenvalues --   -0.35342  -0.35245  -0.35168  -0.34745  -0.34710
 Alpha  occ. eigenvalues --   -0.34589  -0.33666  -0.33323  -0.33203  -0.32938
 Alpha  occ. eigenvalues --   -0.32833  -0.32649  -0.32117  -0.31636  -0.31446
 Alpha  occ. eigenvalues --   -0.31422  -0.30698  -0.30256  -0.30138  -0.29964
 Alpha  occ. eigenvalues --   -0.28992  -0.28476  -0.28148  -0.27914  -0.27622
 Alpha  occ. eigenvalues --   -0.27336  -0.26448  -0.22840  -0.22093
 Alpha virt. eigenvalues --   -0.08955  -0.06821  -0.02072  -0.00069   0.00761
 Alpha virt. eigenvalues --    0.02150   0.02752   0.03178   0.03734   0.03977
 Alpha virt. eigenvalues --    0.04895   0.05689   0.07203   0.08225   0.08508

 Mulliken charges:
               1
     1  Mg   0.851115
     2  C    0.100098
     3  C   -0.145098
     4  C   -0.188117
     5  C   -0.163484
     6  N   -0.594627
     7  C    0.311233
     8  C   -0.152203
     9  C   -0.125425
    10  C    0.280484
    11  C   -0.290101
    12  C   -0.172345
    13  C   -0.247322
    14  C    0.609839
    15  O   -0.464610
    16  O   -0.485267
    17  N   -0.723497
    18  C    0.231549
    19  C    0.029965
    20  C   -0.051234
    21  C    0.343834
    22  C   -0.366824
    23  C    0.262150
    24  O   -0.400093
    25  N   -0.715886
    26  C    0.325677
    27  C   -0.033641
    28  C   -0.000099
    29  C    0.266209
    30  C    0.263370
    31  C   -0.252923
    32  C   -0.291279
    33  N   -0.701020
    34  C    0.293042
    35  C    0.073934
    36  C    0.046902
    37  C    0.274199
    38  C   -0.403215
    39  C    0.294705
    40  O   -0.471730
    41  C   -0.328276
    42  C    0.632978
    43  O   -0.516198
    44  O   -0.422251
    45  C   -0.079034
    46  C    0.011458
    47  C   -0.153951
    48  C    0.157065
    49  C   -0.380946
    50  C   -0.242685
    51  C   -0.186903
    52  C   -0.177786
    53  C   -0.078277
    54  C   -0.299059
    55  C   -0.173421
    56  C   -0.175967
    57  C   -0.202938
    58  C   -0.056451
    59  C   -0.320824
    60  C   -0.122554
    61  C   -0.184530
    62  C   -0.148515
    63  C   -0.059000
    64  C   -0.287451
    65  C   -0.308444
    66  H    0.058085
    67  H    0.144256
    68  H    0.093887
    69  H    0.101225
    70  H    0.111364
    71  H    0.106709
    72  H    0.110888
    73  H    0.131076
    74  H    0.093979
    75  H    0.120572
    76  H    0.121783
    77  H    0.141301
    78  H    0.136891
    79  H    0.144278
    80  H    0.134024
    81  H    0.044973
    82  H    0.109295
    83  H    0.104039
    84  H    0.116087
    85  H    0.119415
    86  H    0.131348
    87  H    0.132942
    88  H    0.161899
    89  H    0.142610
    90  H    0.162996
    91  H    0.118806
    92  H    0.126209
    93  H    0.072963
    94  H    0.153255
    95  H    0.117266
    96  H    0.099207
    97  H    0.088774
    98  H    0.098763
    99  H    0.092458
   100  H    0.101754
   101  H    0.084694
   102  H    0.075251
   103  H    0.087392
   104  H    0.092063
   105  H    0.108162
   106  H    0.109257
   107  H    0.087735
   108  H    0.100017
   109  H    0.110123
   110  H    0.104164
   111  H    0.074187
   112  H    0.099842
   113  H    0.089083
   114  H    0.058999
   115  H    0.078590
   116  H    0.118465
   117  H    0.079164
   118  H    0.084359
   119  H    0.090301
   120  H    0.087849
   121  H    0.057968
   122  H    0.078509
   123  H    0.084083
   124  H    0.112819
   125  H    0.083319
   126  H    0.097583
   127  H    0.119081
   128  H    0.070677
   129  H    0.098807
   130  H    0.103022
   131  H    0.148596
   132  H    0.122779
   133  O   -0.392340
   134  H    0.035716
 Sum of Mulliken charges =   0.00000

 Dipole moment (field-independent basis, Debye):
    X=              0.5388    Y=             -2.8434    Z=             -1.6313  Tot=              3.3221
 Quadrupole moment (field-independent basis, Debye-Ang):
   XX=           -362.9207   YY=           -451.1611   ZZ=           -392.1979
   XY=              5.1513   XZ=             28.4729   YZ=            -29.7752

 Normal termination of Gaussian 09 at Tue Oct  8 12:17:27 2019.
