 Gaussian 09, Revision D.01,
 Gaussian 09:  ES64L-G09RevD.01 24-Apr-2013

 ----------------------------------------------------------------------
 # td=(NStates=1) iop(3/107=0140000000,3/108=0140000000) iop(3/107=0140
 000000,3/108=0140000000) CAM-B3LYP/6-31G(d,p)
 ----------------------------------------------------------------------

 --
 TD
 --
 Symbolic Z-matrix:
 Charge =  0 Multiplicity = 1

                         Standard orientation:
 ---------------------------------------------------------------------
 Center     Atomic      Atomic             Coordinates (Angstroms)
 Number     Number       Type             X           Y           Z
 ---------------------------------------------------------------------
      1         12           0       -5.717536    1.161402    0.213564
      2          6           0       -5.054812   -2.194479   -0.264854
      3          6           0       -3.401480    1.163215    2.845823
      4          6           0       -6.182738    4.572880    0.525692
      5          6           0       -7.994022    1.111684   -2.347552
      6          7           0       -4.410718   -0.270415    1.080697
      7          6           0       -4.347087   -1.607209    0.669312
      8          6           0       -3.196016   -2.237339    1.370755
      9          6           0       -2.932234   -1.369280    2.661001
     10          6           0       -3.591756   -0.077337    2.230971
     11          6           0       -3.523895   -1.787454    3.918441
     12          6           0       -1.985693   -2.624241    0.633210
     13          6           0       -0.936291   -3.414180    1.367851
     14          6           0        0.326805   -3.789432    0.651183
     15          8           0        0.594606   -3.564253   -0.562394
     16          8           0        1.167288   -4.561666    1.399550
     17          7           0       -5.013181    2.629616    1.453901
     18          6           0       -4.004739    2.400180    2.487823
     19          6           0       -3.789877    3.654524    3.145642
     20          6           0       -4.491392    4.642242    2.576320
     21          6           0       -5.326264    3.966676    1.491983
     22          6           0       -2.838518    3.765724    4.241145
     23          6           0       -4.621850    6.039478    2.919933
     24          8           0       -3.926312    6.622324    3.769001
     25          7           0       -6.839992    2.649361   -0.711843
     26          6           0       -6.911186    3.902597   -0.441551
     27          6           0       -7.826827    4.582008   -1.320022
     28          6           0       -8.395601    3.646707   -2.143969
     29          6           0       -7.703231    2.445070   -1.812081
     30          6           0       -8.252782    5.944024   -1.145120
     31          6           0       -9.491316    3.827563   -3.150272
     32          6           0       -8.969202    4.009951   -4.566770
     33          7           0       -6.326161   -0.120351   -1.123355
     34          6           0       -7.336777   -0.057471   -2.058255
     35          6           0       -7.557822   -1.333690   -2.741318
     36          6           0       -6.668181   -2.218912   -2.015713
     37          6           0       -5.993629   -1.435100   -1.089669
     38          6           0       -8.440872   -1.748820   -3.823147
     39          6           0       -6.107186   -3.528099   -2.011181
     40          8           0       -6.536050   -4.589123   -2.565915
     41          6           0       -5.091111   -3.563509   -0.868971
     42          6           0       -5.318123   -4.685273    0.116129
     43          8           0       -5.641091   -4.466595    1.347174
     44          8           0       -5.013955   -5.830314   -0.323828
     45          6           0       -5.262439   -6.932063    0.550537
     46          6           0        2.354484   -5.098392    0.740210
     47          6           0        3.373169   -4.114304    1.038270
     48          6           0        3.956893   -3.236511    0.150343
     49          6           0        3.683304   -3.163817   -1.306025
     50          6           0        5.031098   -2.282073    0.625708
     51          6           0        6.401902   -2.661851    0.025582
     52          6           0        7.651686   -1.851622    0.555115
     53          6           0        9.070282   -2.097892   -0.224029
     54          6           0        9.522841   -3.475208    0.118466
     55          6           0       10.094662   -0.941982    0.324998
     56          6           0       11.490950   -1.035203   -0.449726
     57          6           0       12.287040    0.294111    0.257971
     58          6           0       13.629999    0.489788   -0.561820
     59          6           0       14.623106   -0.771171   -0.399838
     60          6           0       14.230521    1.753621   -0.096810
     61          6           0       15.427356    2.163270   -0.925676
     62          6           0       15.968810    3.560016   -0.625893
     63          6           0       17.335987    4.002772   -1.354036
     64          6           0       17.047141    4.061595   -2.785380
     65          6           0       17.922299    5.250930   -0.753687
     66          1           0       -2.834289    1.162903    3.720362
     67          1           0       -6.451362    5.556247    0.591448
     68          1           0       -8.757873    1.171806   -3.092317
     69          1           0       -3.625016   -3.082840    1.806450
     70          1           0       -1.882800   -1.271307    2.859148
     71          1           0       -3.059548   -2.705344    4.227440
     72          1           0       -3.523009   -0.879637    4.651811
     73          1           0       -4.638782   -1.820110    3.703704
     74          1           0       -2.213629   -3.044630   -0.317223
     75          1           0       -1.588491   -1.609419    0.170520
     76          1           0       -0.908956   -2.900397    2.390573
     77          1           0       -1.240478   -4.457833    1.658179
     78          1           0       -1.833393    3.679496    3.931287
     79          1           0       -2.714556    4.818052    4.544417
     80          1           0       -2.903073    3.196909    5.101590
     81          1           0       -5.470950    6.699303    2.651774
     82          1           0      -10.017066    2.865792   -2.923046
     83          1           0      -10.312181    4.574333   -2.945878
     84          1           0       -9.845061    3.856000   -5.215389
     85          1           0       -8.412284    5.128402   -4.906451
     86          1           0       -8.222618    3.335447   -4.696674
     87          1           0       -8.243714   -1.415739   -4.567841
     88          1           0       -8.680368   -2.917356   -3.901606
     89          1           0       -9.547478   -1.243645   -3.454309
     90          1           0       -4.185239   -3.672452   -1.363343
     91          1           0        2.541540   -5.945137    1.210970
     92          1           0        2.149427   -5.108672   -0.345620
     93          1           0        3.672728   -3.903926    1.967250
     94          1           0        2.724676   -3.609942   -1.617247
     95          1           0        3.549222   -2.239697   -1.725352
     96          1           0        4.506126   -3.796093   -1.934606
     97          1           0        4.649002   -1.323586    0.336583
     98          1           0        5.152776   -2.154503    1.796205
     99          1           0        6.650692   -3.803644    0.322884
    100          1           0        6.375138   -2.345888   -1.090931
    101          1           0        7.273094   -0.807986    0.339236
    102          1           0        7.744541   -1.909430    1.659547
    103          1           0        8.903690   -1.812023   -1.410457
    104          1           0        8.810930   -4.334615   -0.002109
    105          1           0       10.345290   -3.756880   -0.573918
    106          1           0        9.920484   -3.634081    1.242906
    107          1           0        9.383551   -0.136460    0.403022
    108          1           0       10.143639   -1.218031    1.369552
    109          1           0       11.856786   -1.988976   -0.232948
    110          1           0       11.345873   -0.938328   -1.520420
    111          1           0       11.618378    1.259776    0.181654
    112          1           0       12.592886    0.175418    1.355917
    113          1           0       13.076125    0.497075   -1.629234
    114          1           0       14.942082   -0.768267    0.551780
    115          1           0       13.890492   -1.557847   -0.542151
    116          1           0       15.608526   -0.576887   -1.040014
    117          1           0       13.493782    2.635246   -0.069295
    118          1           0       14.457844    1.702584    0.821409
    119          1           0       16.115003    1.317656   -0.908965
    120          1           0       15.396135    2.268293   -2.011616
    121          1           0       15.276267    4.405450   -0.804882
    122          1           0       16.362845    3.533110    0.387718
    123          1           0       18.300872    3.365398   -1.088322
    124          1           0       16.346604    4.838040   -2.846601
    125          1           0       17.948647    4.481783   -3.554634
    126          1           0       16.696163    3.137476   -3.292737
    127          1           0       17.972500    5.324404    0.288777
    128          1           0       18.873986    5.562360   -1.051135
    129          1           0       17.336837    6.162101   -0.963233
    130          1           0       -4.897134   -7.824887    0.079556
    131          1           0       -6.344020   -7.071877    0.834415
    132          1           0       -4.751414   -6.726598    1.410361
    133          8           0       -7.963777    6.848034   -0.347484
    134          1           0       -8.917593    6.282282   -1.857635
 ---------------------------------------------------------------------

 SCF Done:  E(RCAM-B3LYP) =  -3043.40168555     A.U. after   16 cycles

 Excitation energies and oscillator strengths:

 Excited State   1:      Singlet-A      2.0082 eV  617.38 nm  f=0.1796  <S**2>=0.000
     243 -> 246       -0.24798
     244 -> 245        0.65338
 This state for optimization and/or second-order correction.
 Total Energy, E(TD-HF/TD-KS) =  -3043.32788409
 Copying the excited state density for this state as the 1-particle RhoCI density.

 The electronic state is 1-A.
 Alpha  occ. eigenvalues --  -46.80920 -19.24828 -19.21852 -19.16872 -19.16566
 Alpha  occ. eigenvalues --  -19.16382 -19.16222 -19.16152 -14.38817 -14.37358
 Alpha  occ. eigenvalues --  -14.37199 -14.36848 -10.35813 -10.35698 -10.31249
 Alpha  occ. eigenvalues --  -10.29933 -10.28694 -10.28293 -10.27594 -10.27563
 Alpha  occ. eigenvalues --  -10.27239 -10.26888 -10.26746 -10.26697 -10.26421
 Alpha  occ. eigenvalues --  -10.26274 -10.26027 -10.25484 -10.25457 -10.25190
 Alpha  occ. eigenvalues --  -10.24766 -10.24723 -10.24638 -10.24328 -10.23665
 Alpha  occ. eigenvalues --  -10.23486 -10.23470 -10.23466 -10.23458 -10.23443
 Alpha  occ. eigenvalues --  -10.23308 -10.23254 -10.22992 -10.22886 -10.22766
 Alpha  occ. eigenvalues --  -10.22662 -10.22457 -10.22457 -10.22348 -10.22305
 Alpha  occ. eigenvalues --  -10.22089 -10.22070 -10.22034 -10.21947 -10.21538
 Alpha  occ. eigenvalues --  -10.21447 -10.20846 -10.20787 -10.20639 -10.20617
 Alpha  occ. eigenvalues --  -10.20448 -10.20033 -10.19848 -10.19616 -10.19120
 Alpha  occ. eigenvalues --  -10.18684  -3.09637  -1.84568  -1.84093  -1.84075
 Alpha  occ. eigenvalues --   -1.17256  -1.12030  -1.05078  -1.04973  -1.04048
 Alpha  occ. eigenvalues --   -1.02381  -1.01589  -1.01462  -1.00543  -0.98415
 Alpha  occ. eigenvalues --   -0.97460  -0.89945  -0.86855  -0.86590  -0.85492
 Alpha  occ. eigenvalues --   -0.85300  -0.85234  -0.84714  -0.84244  -0.83448
 Alpha  occ. eigenvalues --   -0.83426  -0.82721  -0.82218  -0.81177  -0.80275
 Alpha  occ. eigenvalues --   -0.79597  -0.79137  -0.78717  -0.78131  -0.76636
 Alpha  occ. eigenvalues --   -0.76069  -0.75341  -0.74649  -0.74318  -0.73453
 Alpha  occ. eigenvalues --   -0.72086  -0.70984  -0.70912  -0.70549  -0.70105
 Alpha  occ. eigenvalues --   -0.69402  -0.68645  -0.67408  -0.67293  -0.66731
 Alpha  occ. eigenvalues --   -0.66042  -0.65217  -0.64910  -0.62666  -0.62551
 Alpha  occ. eigenvalues --   -0.62179  -0.61849  -0.60367  -0.60306  -0.59151
 Alpha  occ. eigenvalues --   -0.58681  -0.58474  -0.57931  -0.57791  -0.56956
 Alpha  occ. eigenvalues --   -0.56841  -0.56731  -0.56244  -0.55927  -0.55751
 Alpha  occ. eigenvalues --   -0.55072  -0.54357  -0.53680  -0.53431  -0.53268
 Alpha  occ. eigenvalues --   -0.52265  -0.52118  -0.51742  -0.51416  -0.50167
 Alpha  occ. eigenvalues --   -0.50023  -0.49855  -0.49714  -0.49568  -0.49423
 Alpha  occ. eigenvalues --   -0.49277  -0.48844  -0.48783  -0.48570  -0.48044
 Alpha  occ. eigenvalues --   -0.47907  -0.47653  -0.47479  -0.47257  -0.46994
 Alpha  occ. eigenvalues --   -0.46699  -0.46590  -0.46482  -0.46193  -0.45946
 Alpha  occ. eigenvalues --   -0.45768  -0.45500  -0.45257  -0.44955  -0.44878
 Alpha  occ. eigenvalues --   -0.44741  -0.44527  -0.44357  -0.44059  -0.43801
 Alpha  occ. eigenvalues --   -0.43694  -0.43426  -0.43411  -0.43272  -0.43155
 Alpha  occ. eigenvalues --   -0.42782  -0.42558  -0.42193  -0.41868  -0.41702
 Alpha  occ. eigenvalues --   -0.41495  -0.41326  -0.41128  -0.41018  -0.40698
 Alpha  occ. eigenvalues --   -0.40576  -0.40484  -0.40354  -0.40208  -0.40138
 Alpha  occ. eigenvalues --   -0.39984  -0.39896  -0.39839  -0.39714  -0.39570
 Alpha  occ. eigenvalues --   -0.39395  -0.39303  -0.39000  -0.38425  -0.38378
 Alpha  occ. eigenvalues --   -0.38147  -0.38014  -0.37669  -0.37222  -0.37045
 Alpha  occ. eigenvalues --   -0.36840  -0.36616  -0.36522  -0.36160  -0.35467
 Alpha  occ. eigenvalues --   -0.35195  -0.35088  -0.34594  -0.34290  -0.34107
 Alpha  occ. eigenvalues --   -0.33974  -0.33596  -0.32940  -0.32884  -0.32681
 Alpha  occ. eigenvalues --   -0.32644  -0.32296  -0.32270  -0.31570  -0.31373
 Alpha  occ. eigenvalues --   -0.31343  -0.30577  -0.30180  -0.29931  -0.28774
 Alpha  occ. eigenvalues --   -0.28532  -0.28298  -0.28213  -0.27763  -0.27084
 Alpha  occ. eigenvalues --   -0.26997  -0.26133  -0.23499  -0.22045
 Alpha virt. eigenvalues --   -0.09099  -0.07109  -0.02025  -0.00530   0.00258
 Alpha virt. eigenvalues --    0.02402   0.02486   0.03423   0.03812   0.04346
 Alpha virt. eigenvalues --    0.04868   0.06065   0.07751   0.08674   0.09059

 Mulliken charges:
               1
     1  Mg   0.822518
     2  C    0.123472
     3  C   -0.181882
     4  C   -0.133852
     5  C   -0.170987
     6  N   -0.659953
     7  C    0.301700
     8  C   -0.156742
     9  C   -0.152362
    10  C    0.328232
    11  C   -0.297556
    12  C   -0.161407
    13  C   -0.255927
    14  C    0.608399
    15  O   -0.498975
    16  O   -0.476134
    17  N   -0.699388
    18  C    0.297994
    19  C    0.075201
    20  C   -0.000340
    21  C    0.285167
    22  C   -0.425406
    23  C    0.207999
    24  O   -0.422216
    25  N   -0.677914
    26  C    0.350809
    27  C   -0.038895
    28  C    0.047205
    29  C    0.222573
    30  C    0.236026
    31  C   -0.245066
    32  C   -0.287891
    33  N   -0.743091
    34  C    0.290640
    35  C    0.035253
    36  C    0.042311
    37  C    0.279917
    38  C   -0.316999
    39  C    0.318468
    40  O   -0.491445
    41  C   -0.320534
    42  C    0.628662
    43  O   -0.530776
    44  O   -0.379876
    45  C   -0.093817
    46  C    0.017862
    47  C   -0.107296
    48  C    0.134819
    49  C   -0.382629
    50  C   -0.227731
    51  C   -0.157655
    52  C   -0.194491
    53  C   -0.059472
    54  C   -0.297763
    55  C   -0.178468
    56  C   -0.203104
    57  C   -0.182277
    58  C   -0.056441
    59  C   -0.316186
    60  C   -0.140348
    61  C   -0.179027
    62  C   -0.181152
    63  C   -0.053335
    64  C   -0.286326
    65  C   -0.324573
    66  H    0.085597
    67  H    0.111574
    68  H    0.088487
    69  H    0.126926
    70  H    0.107500
    71  H    0.115245
    72  H    0.102289
    73  H    0.124327
    74  H    0.118670
    75  H    0.100531
    76  H    0.128720
    77  H    0.141675
    78  H    0.135728
    79  H    0.155050
    80  H    0.129449
    81  H    0.103089
    82  H    0.112136
    83  H    0.120285
    84  H    0.115703
    85  H    0.085412
    86  H    0.126407
    87  H    0.128045
    88  H    0.148631
    89  H    0.084429
    90  H    0.172836
    91  H    0.114361
    92  H    0.136329
    93  H    0.072023
    94  H    0.140053
    95  H    0.123067
    96  H    0.095775
    97  H    0.105970
    98  H    0.074910
    99  H    0.080592
   100  H    0.095203
   101  H    0.076846
   102  H    0.086270
   103  H    0.060267
   104  H    0.102940
   105  H    0.096938
   106  H    0.084720
   107  H    0.098025
   108  H    0.094187
   109  H    0.120969
   110  H    0.108341
   111  H    0.093292
   112  H    0.084136
   113  H    0.063798
   114  H    0.117975
   115  H    0.106652
   116  H    0.098497
   117  H    0.068247
   118  H    0.101854
   119  H    0.084226
   120  H    0.088524
   121  H    0.094163
   122  H    0.088686
   123  H    0.067668
   124  H    0.109444
   125  H    0.054929
   126  H    0.109649
   127  H    0.107530
   128  H    0.110243
   129  H    0.080098
   130  H    0.130451
   131  H    0.138585
   132  H    0.143312
   133  O   -0.444930
   134  H    0.058929
 Sum of Mulliken charges =   0.00000

 Dipole moment (field-independent basis, Debye):
    X=              0.9166    Y=             -5.6917    Z=             -0.7552  Tot=              5.8143
 Quadrupole moment (field-independent basis, Debye-Ang):
   XX=           -379.6029   YY=           -439.7116   ZZ=           -391.9300
   XY=             13.6398   XZ=             34.7679   YZ=            -33.6682

 Normal termination of Gaussian 09 at Wed Oct  9 09:09:27 2019.
