 Gaussian 09, Revision D.01,
 Gaussian 09:  ES64L-G09RevD.01 24-Apr-2013

 ----------------------------------------------------------------------
 # td=(NStates=1) iop(3/107=0140000000,3/108=0140000000) iop(3/107=0140
 000000,3/108=0140000000) CAM-B3LYP/6-31G(d,p)
 ----------------------------------------------------------------------

 --
 TD
 --
 Symbolic Z-matrix:
 Charge =  0 Multiplicity = 1

                         Standard orientation:
 ---------------------------------------------------------------------
 Center     Atomic      Atomic             Coordinates (Angstroms)
 Number     Number       Type             X           Y           Z
 ---------------------------------------------------------------------
      1         12           0       -5.555644    1.280803    0.225249
      2          6           0       -5.033501   -2.104095   -0.432757
      3          6           0       -3.339269    1.088202    2.731427
      4          6           0       -6.207589    4.474802    0.704801
      5          6           0       -7.947785    1.271975   -2.411462
      6          7           0       -4.404831   -0.287830    1.057526
      7          6           0       -4.265075   -1.644423    0.619509
      8          6           0       -3.206140   -2.413229    1.554331
      9          6           0       -2.946992   -1.339503    2.621871
     10          6           0       -3.563180   -0.090166    2.124305
     11          6           0       -3.532675   -1.786240    3.931451
     12          6           0       -1.983964   -2.743582    0.634952
     13          6           0       -0.902682   -3.518299    1.509131
     14          6           0        0.319193   -3.845527    0.706049
     15          8           0        0.458805   -3.456784   -0.456922
     16          8           0        1.106630   -4.761658    1.210519
     17          7           0       -4.851804    2.615464    1.465656
     18          6           0       -3.942980    2.361962    2.467848
     19          6           0       -3.614300    3.574735    3.165672
     20          6           0       -4.380238    4.556285    2.566499
     21          6           0       -5.179631    3.875452    1.515900
     22          6           0       -2.660179    3.811532    4.264940
     23          6           0       -4.533994    5.953739    2.937092
     24          8           0       -3.931984    6.511096    3.917288
     25          7           0       -6.964305    2.623984   -0.679544
     26          6           0       -6.918710    3.916879   -0.248879
     27          6           0       -7.922000    4.634314   -1.109347
     28          6           0       -8.482978    3.737451   -1.966589
     29          6           0       -7.752553    2.458730   -1.673372
     30          6           0       -8.436375    6.045585   -1.109222
     31          6           0       -9.361686    3.894957   -3.206391
     32          6           0       -8.619952    4.199629   -4.462519
     33          7           0       -6.294833   -0.118786   -1.162935
     34          6           0       -7.349308   -0.050030   -2.103180
     35          6           0       -7.588269   -1.254505   -2.736379
     36          6           0       -6.713900   -2.170720   -2.062898
     37          6           0       -5.941313   -1.460588   -1.199167
     38          6           0       -8.623932   -1.632825   -3.692511
     39          6           0       -6.279480   -3.566432   -2.032601
     40          8           0       -6.725347   -4.541135   -2.626928
     41          6           0       -5.084680   -3.583380   -0.995639
     42          6           0       -5.341873   -4.621566    0.003669
     43          8           0       -5.783720   -4.570508    1.151866
     44          8           0       -5.050749   -5.899252   -0.435434
     45          6           0       -5.497611   -6.995883    0.291659
     46          6           0        2.315110   -5.034935    0.530875
     47          6           0        3.442026   -4.206651    0.993801
     48          6           0        4.054428   -3.256619    0.182625
     49          6           0        3.779111   -2.906980   -1.286444
     50          6           0        5.180864   -2.363794    0.812460
     51          6           0        6.435731   -2.702385    0.002802
     52          6           0        7.671690   -1.766828    0.491264
     53          6           0        9.039137   -2.013476   -0.073980
     54          6           0        9.543536   -3.335885    0.392526
     55          6           0        9.941654   -0.886494    0.349709
     56          6           0       11.316079   -0.793030   -0.245047
     57          6           0       12.223864    0.377298    0.249097
     58          6           0       13.568354    0.496503   -0.527932
     59          6           0       14.410325   -0.787229   -0.351643
     60          6           0       14.300152    1.801429   -0.107640
     61          6           0       15.424630    2.156640   -1.062252
     62          6           0       15.970766    3.449110   -0.650326
     63          6           0       17.314781    3.829031   -1.406753
     64          6           0       17.148755    3.999772   -2.903999
     65          6           0       17.838410    5.172148   -0.896856
     66          1           0       -2.566004    1.244937    3.464107
     67          1           0       -6.415845    5.589411    0.779570
     68          1           0       -8.750227    1.408970   -3.108514
     69          1           0       -3.717654   -3.273919    1.881751
     70          1           0       -1.964607   -1.345738    2.769203
     71          1           0       -3.052994   -2.790144    4.186295
     72          1           0       -3.443416   -1.093223    4.727663
     73          1           0       -4.700868   -1.916883    3.931123
     74          1           0       -1.872793   -3.203411   -0.372322
     75          1           0       -1.462639   -1.919070    0.496227
     76          1           0       -0.584979   -2.926571    2.233503
     77          1           0       -1.396843   -4.503018    1.832202
     78          1           0       -1.679562    3.702028    3.871674
     79          1           0       -2.851608    4.889422    4.399642
     80          1           0       -2.847093    3.026341    5.170316
     81          1           0       -5.339962    6.576938    2.229306
     82          1           0      -10.117753    3.096849   -3.297499
     83          1           0      -10.017653    4.737910   -2.961026
     84          1           0       -9.302232    4.102251   -5.499765
     85          1           0       -8.020933    5.127801   -4.591622
     86          1           0       -7.920593    3.140351   -4.520184
     87          1           0       -8.859288   -0.892297   -4.603168
     88          1           0       -8.399673   -2.633763   -4.187218
     89          1           0       -9.696090   -1.735909   -3.109441
     90          1           0       -4.080328   -4.043441   -1.551140
     91          1           0        2.551972   -6.024382    0.619562
     92          1           0        2.277403   -4.645091   -0.623792
     93          1           0        4.060485   -4.457654    1.911445
     94          1           0        2.792844   -3.038397   -1.437003
     95          1           0        4.019587   -1.954116   -1.427021
     96          1           0        4.435232   -3.430772   -1.825609
     97          1           0        4.939369   -1.252721    0.674764
     98          1           0        5.355858   -2.781612    1.838161
     99          1           0        6.586299   -3.730958    0.186565
    100          1           0        6.282492   -2.230025   -0.923762
    101          1           0        7.350792   -0.632179    0.370448
    102          1           0        7.800848   -1.908874    1.546424
    103          1           0        8.834659   -2.251482   -1.055505
    104          1           0        8.959493   -4.216423    0.070905
    105          1           0       10.408179   -3.760949    0.120970
    106          1           0        9.430369   -3.606576    1.626414
    107          1           0        9.359691    0.018203    0.154506
    108          1           0       10.154244   -1.198724    1.413737
    109          1           0       11.970619   -1.686871   -0.105385
    110          1           0       11.408882   -0.721834   -1.344351
    111          1           0       11.548383    1.357386    0.103327
    112          1           0       12.311312    0.128410    1.343479
    113          1           0       13.151325    0.417477   -1.588655
    114          1           0       14.601692   -0.748160    0.701632
    115          1           0       13.913683   -1.817630   -0.650828
    116          1           0       15.421088   -0.724387   -0.696441
    117          1           0       13.674538    2.573017    0.009248
    118          1           0       14.731350    1.533603    0.948908
    119          1           0       16.101719    1.408006   -1.075865
    120          1           0       15.121382    2.267857   -2.081026
    121          1           0       15.318592    4.229291   -0.827886
    122          1           0       16.044937    3.430911    0.443867
    123          1           0       18.168398    3.227262   -1.390124
    124          1           0       16.347149    4.701204   -3.332295
    125          1           0       18.003315    4.306437   -3.525152
    126          1           0       16.828817    3.106325   -3.577207
    127          1           0       17.834943    5.241216    0.175232
    128          1           0       18.765258    5.401552   -1.285623
    129          1           0       17.291264    6.053629   -1.204805
    130          1           0       -5.055004   -7.798263    0.077146
    131          1           0       -6.503005   -7.073323    0.587197
    132          1           0       -4.969928   -6.892334    1.365800
    133          8           0       -8.045395    6.936528   -0.326442
    134          1           0       -9.019506    6.293193   -1.824452
 ---------------------------------------------------------------------

 SCF Done:  E(RCAM-B3LYP) =  -3043.44063073     A.U. after   16 cycles

 Excitation energies and oscillator strengths:

 Excited State   1:      Singlet-A      1.9331 eV  641.37 nm  f=0.2833  <S**2>=0.000
     243 -> 246        0.20766
     244 -> 245        0.66710
 This state for optimization and/or second-order correction.
 Total Energy, E(TD-HF/TD-KS) =  -3043.36959034
 Copying the excited state density for this state as the 1-particle RhoCI density.

 The electronic state is 1-A.
 Alpha  occ. eigenvalues --  -46.82298 -19.23059 -19.21172 -19.17794 -19.17451
 Alpha  occ. eigenvalues --  -19.17315 -19.16572 -19.16415 -14.39709 -14.37694
 Alpha  occ. eigenvalues --  -14.37187 -14.36234 -10.34916 -10.34876 -10.31867
 Alpha  occ. eigenvalues --  -10.31737 -10.30189 -10.28430 -10.27323 -10.27315
 Alpha  occ. eigenvalues --  -10.27117 -10.26859 -10.26830 -10.26803 -10.26791
 Alpha  occ. eigenvalues --  -10.26510 -10.25592 -10.25313 -10.24989 -10.24916
 Alpha  occ. eigenvalues --  -10.24894 -10.24874 -10.24858 -10.24814 -10.24782
 Alpha  occ. eigenvalues --  -10.24549 -10.24400 -10.24146 -10.23852 -10.23818
 Alpha  occ. eigenvalues --  -10.23395 -10.23291 -10.23267 -10.23267 -10.22843
 Alpha  occ. eigenvalues --  -10.22422 -10.22286 -10.22233 -10.22142 -10.21959
 Alpha  occ. eigenvalues --  -10.21712 -10.21531 -10.21472 -10.21237 -10.21070
 Alpha  occ. eigenvalues --  -10.21063 -10.20784 -10.20684 -10.20579 -10.20523
 Alpha  occ. eigenvalues --  -10.20459 -10.20269 -10.19807 -10.18735 -10.18534
 Alpha  occ. eigenvalues --  -10.18423  -3.10819  -1.85761  -1.85294  -1.85225
 Alpha  occ. eigenvalues --   -1.15290  -1.12684  -1.06602  -1.05772  -1.04081
 Alpha  occ. eigenvalues --   -1.03854  -1.03077  -1.02355  -1.01559  -0.99555
 Alpha  occ. eigenvalues --   -0.98455  -0.89012  -0.86685  -0.86530  -0.86294
 Alpha  occ. eigenvalues --   -0.85694  -0.85552  -0.85237  -0.84457  -0.84252
 Alpha  occ. eigenvalues --   -0.83163  -0.83120  -0.82520  -0.80744  -0.80288
 Alpha  occ. eigenvalues --   -0.79724  -0.79393  -0.78269  -0.77977  -0.77499
 Alpha  occ. eigenvalues --   -0.76211  -0.75365  -0.74671  -0.73386  -0.72466
 Alpha  occ. eigenvalues --   -0.71981  -0.71004  -0.70837  -0.70504  -0.70321
 Alpha  occ. eigenvalues --   -0.69673  -0.69252  -0.68423  -0.67383  -0.66582
 Alpha  occ. eigenvalues --   -0.66249  -0.64899  -0.64791  -0.63270  -0.62936
 Alpha  occ. eigenvalues --   -0.62809  -0.61849  -0.60788  -0.60382  -0.59784
 Alpha  occ. eigenvalues --   -0.59695  -0.58703  -0.58341  -0.57883  -0.57830
 Alpha  occ. eigenvalues --   -0.56793  -0.56436  -0.55405  -0.55195  -0.54907
 Alpha  occ. eigenvalues --   -0.54708  -0.53645  -0.53369  -0.53125  -0.52800
 Alpha  occ. eigenvalues --   -0.52611  -0.52313  -0.51844  -0.51479  -0.51225
 Alpha  occ. eigenvalues --   -0.50823  -0.50486  -0.50026  -0.49947  -0.49755
 Alpha  occ. eigenvalues --   -0.49272  -0.48952  -0.48576  -0.48437  -0.47988
 Alpha  occ. eigenvalues --   -0.47771  -0.47567  -0.47463  -0.47219  -0.46954
 Alpha  occ. eigenvalues --   -0.46833  -0.46797  -0.46647  -0.46176  -0.45965
 Alpha  occ. eigenvalues --   -0.45633  -0.45499  -0.45283  -0.45189  -0.44952
 Alpha  occ. eigenvalues --   -0.44872  -0.44716  -0.44575  -0.44325  -0.44051
 Alpha  occ. eigenvalues --   -0.43886  -0.43554  -0.43370  -0.43278  -0.42891
 Alpha  occ. eigenvalues --   -0.42629  -0.42321  -0.42272  -0.42016  -0.41735
 Alpha  occ. eigenvalues --   -0.41633  -0.41456  -0.41324  -0.40986  -0.40733
 Alpha  occ. eigenvalues --   -0.40579  -0.40417  -0.40356  -0.40123  -0.40042
 Alpha  occ. eigenvalues --   -0.39787  -0.39669  -0.39598  -0.39454  -0.39217
 Alpha  occ. eigenvalues --   -0.38846  -0.38794  -0.38700  -0.38535  -0.38388
 Alpha  occ. eigenvalues --   -0.37996  -0.37759  -0.37503  -0.37333  -0.36905
 Alpha  occ. eigenvalues --   -0.36849  -0.36464  -0.36318  -0.36240  -0.35941
 Alpha  occ. eigenvalues --   -0.35816  -0.35641  -0.35513  -0.35293  -0.34888
 Alpha  occ. eigenvalues --   -0.34460  -0.34041  -0.33812  -0.33545  -0.33317
 Alpha  occ. eigenvalues --   -0.33092  -0.32777  -0.32152  -0.32039  -0.31768
 Alpha  occ. eigenvalues --   -0.31154  -0.30978  -0.30520  -0.30249  -0.29879
 Alpha  occ. eigenvalues --   -0.29735  -0.28877  -0.28683  -0.28136  -0.27769
 Alpha  occ. eigenvalues --   -0.27357  -0.26638  -0.23350  -0.22108
 Alpha virt. eigenvalues --   -0.09972  -0.06250  -0.02090  -0.01709   0.00046
 Alpha virt. eigenvalues --    0.02538   0.02942   0.03367   0.03751   0.03834
 Alpha virt. eigenvalues --    0.04761   0.05172   0.07743   0.08075   0.09206

 Mulliken charges:
               1
     1  Mg   0.835623
     2  C    0.086097
     3  C   -0.178872
     4  C   -0.181449
     5  C   -0.151388
     6  N   -0.638384
     7  C    0.254508
     8  C   -0.148591
     9  C   -0.122588
    10  C    0.384378
    11  C   -0.313682
    12  C   -0.183481
    13  C   -0.280442
    14  C    0.588354
    15  O   -0.489458
    16  O   -0.421996
    17  N   -0.739321
    18  C    0.278552
    19  C    0.052938
    20  C   -0.020293
    21  C    0.323706
    22  C   -0.392969
    23  C    0.229533
    24  O   -0.445706
    25  N   -0.695107
    26  C    0.342743
    27  C   -0.054532
    28  C    0.009518
    29  C    0.312022
    30  C    0.283914
    31  C   -0.249381
    32  C   -0.274609
    33  N   -0.710544
    34  C    0.261129
    35  C    0.069517
    36  C    0.029787
    37  C    0.287779
    38  C   -0.391162
    39  C    0.365877
    40  O   -0.458179
    41  C   -0.335550
    42  C    0.625995
    43  O   -0.483643
    44  O   -0.451419
    45  C   -0.047499
    46  C   -0.007682
    47  C   -0.138762
    48  C    0.087109
    49  C   -0.360732
    50  C   -0.224399
    51  C   -0.177974
    52  C   -0.182864
    53  C   -0.043005
    54  C   -0.314136
    55  C   -0.142026
    56  C   -0.198583
    57  C   -0.162918
    58  C   -0.057108
    59  C   -0.320508
    60  C   -0.176009
    61  C   -0.158077
    62  C   -0.172676
    63  C   -0.053344
    64  C   -0.328544
    65  C   -0.318054
    66  H    0.086905
    67  H    0.137141
    68  H    0.083337
    69  H    0.139965
    70  H    0.106848
    71  H    0.107240
    72  H    0.117727
    73  H    0.114820
    74  H    0.137919
    75  H    0.127524
    76  H    0.138653
    77  H    0.132940
    78  H    0.133649
    79  H    0.173416
    80  H    0.105083
    81  H    0.078686
    82  H    0.126559
    83  H    0.108693
    84  H    0.090319
    85  H    0.129575
    86  H    0.078297
    87  H    0.105037
    88  H    0.148592
    89  H    0.118133
    90  H    0.158398
    91  H    0.115140
    92  H    0.121408
    93  H    0.073449
    94  H    0.149614
    95  H    0.114179
    96  H    0.139360
    97  H    0.098991
    98  H    0.093103
    99  H    0.109201
   100  H    0.109137
   101  H    0.060649
   102  H    0.089921
   103  H    0.092397
   104  H    0.091453
   105  H    0.116784
   106  H    0.050205
   107  H    0.088964
   108  H    0.095260
   109  H    0.087415
   110  H    0.078915
   111  H    0.062977
   112  H    0.079849
   113  H    0.076181
   114  H    0.104366
   115  H    0.096744
   116  H    0.105660
   117  H    0.102457
   118  H    0.075504
   119  H    0.100722
   120  H    0.099957
   121  H    0.103864
   122  H    0.084657
   123  H    0.102059
   124  H    0.088052
   125  H    0.102691
   126  H    0.078906
   127  H    0.095471
   128  H    0.102279
   129  H    0.097438
   130  H    0.119317
   131  H    0.134439
   132  H    0.071183
   133  O   -0.434272
   134  H    0.077066
 Sum of Mulliken charges =   0.00000

 Dipole moment (field-independent basis, Debye):
    X=              2.5461    Y=             -3.1285    Z=             -2.2898  Tot=              4.6382
 Quadrupole moment (field-independent basis, Debye-Ang):
   XX=           -368.0914   YY=           -444.4000   ZZ=           -399.0292
   XY=             -7.0710   XZ=             23.0122   YZ=            -40.8522

 Normal termination of Gaussian 09 at Sat Oct  5 04:21:11 2019.
