 Gaussian 09, Revision D.01,
 Gaussian 09:  ES64L-G09RevD.01 24-Apr-2013

 ----------------------------------------------------------------------
 # td=(NStates=1) iop(3/107=0140000000,3/108=0140000000) iop(3/107=0140
 000000,3/108=0140000000) CAM-B3LYP/6-31G(d,p)
 ----------------------------------------------------------------------

 --
 TD
 --
 Symbolic Z-matrix:
 Charge =  0 Multiplicity = 1

                         Standard orientation:
 ---------------------------------------------------------------------
 Center     Atomic      Atomic             Coordinates (Angstroms)
 Number     Number       Type             X           Y           Z
 ---------------------------------------------------------------------
      1         12           0       -5.556003    1.229187    0.281103
      2          6           0       -5.060536   -2.096054   -0.333243
      3          6           0       -3.418241    1.156680    2.864478
      4          6           0       -6.200756    4.549499    0.789324
      5          6           0       -7.897331    1.311634   -2.404851
      6          7           0       -4.346415   -0.221405    1.118751
      7          6           0       -4.226476   -1.534197    0.611625
      8          6           0       -3.245799   -2.332026    1.484560
      9          6           0       -2.843106   -1.357841    2.503651
     10          6           0       -3.581602   -0.042630    2.191007
     11          6           0       -3.368163   -1.731963    3.916490
     12          6           0       -2.029361   -2.767421    0.560312
     13          6           0       -1.010952   -3.658397    1.313773
     14          6           0        0.289208   -3.984375    0.564232
     15          8           0        0.452531   -3.527326   -0.517546
     16          8           0        0.992990   -5.015698    1.170944
     17          7           0       -4.946771    2.652676    1.504361
     18          6           0       -3.989281    2.398845    2.497768
     19          6           0       -3.775919    3.604492    3.267848
     20          6           0       -4.612412    4.600358    2.698064
     21          6           0       -5.299994    3.910342    1.587743
     22          6           0       -2.792154    3.680527    4.303586
     23          6           0       -4.610524    5.994098    3.018052
     24          8           0       -3.818441    6.488179    3.864116
     25          7           0       -6.771790    2.679970   -0.682600
     26          6           0       -6.847589    3.988198   -0.305399
     27          6           0       -7.792543    4.663929   -1.187521
     28          6           0       -8.174461    3.719608   -2.111220
     29          6           0       -7.621533    2.526027   -1.768260
     30          6           0       -8.088349    6.197787   -1.200756
     31          6           0       -9.228057    3.892614   -3.216533
     32          6           0       -8.604107    4.195544   -4.615889
     33          7           0       -6.283397   -0.124160   -1.142526
     34          6           0       -7.211668    0.125285   -2.240999
     35          6           0       -7.525230   -1.231932   -2.781333
     36          6           0       -6.730252   -2.191220   -2.117177
     37          6           0       -5.937079   -1.391736   -1.192996
     38          6           0       -8.471489   -1.473549   -3.884036
     39          6           0       -6.244965   -3.565604   -2.041524
     40          8           0       -6.554932   -4.547187   -2.623512
     41          6           0       -5.171460   -3.557349   -0.844973
     42          6           0       -5.506923   -4.644025    0.201882
     43          8           0       -5.976043   -4.361587    1.300578
     44          8           0       -5.165828   -5.833802   -0.172586
     45          6           0       -5.560188   -6.860332    0.753188
     46          6           0        2.204092   -5.222799    0.408049
     47          6           0        3.417696   -4.280380    0.829409
     48          6           0        3.991007   -3.340080    0.013794
     49          6           0        3.775242   -3.123188   -1.454275
     50          6           0        5.023656   -2.534041    0.649551
     51          6           0        6.445893   -2.684159    0.066516
     52          6           0        7.555635   -1.860441    0.639548
     53          6           0        8.927586   -1.929848   -0.043269
     54          6           0        9.364014   -3.463102    0.084650
     55          6           0        9.903350   -0.965427    0.417281
     56          6           0       11.294671   -0.914679   -0.163699
     57          6           0       12.060244    0.234088    0.217375
     58          6           0       13.333316    0.541461   -0.676315
     59          6           0       14.290668   -0.629440   -0.472126
     60          6           0       14.100152    1.805750   -0.207333
     61          6           0       15.396906    2.141953   -0.931774
     62          6           0       16.128060    3.550299   -0.592034
     63          6           0       17.378664    3.848170   -1.233767
     64          6           0       17.343642    4.007729   -2.772039
     65          6           0       17.913950    5.150408   -0.657070
     66          1           0       -2.769044    1.071002    3.578247
     67          1           0       -6.307759    5.580592    0.875245
     68          1           0       -8.642444    1.134873   -3.205925
     69          1           0       -3.619202   -3.022065    1.992098
     70          1           0       -1.822069   -1.167695    2.449784
     71          1           0       -2.743369   -2.635767    4.192951
     72          1           0       -3.177289   -1.001995    4.751135
     73          1           0       -4.329264   -1.793237    3.809288
     74          1           0       -2.402431   -3.483127   -0.303060
     75          1           0       -1.361561   -1.910256    0.194111
     76          1           0       -0.777114   -3.231735    2.412068
     77          1           0       -1.511991   -4.591153    1.461886
     78          1           0       -1.689596    3.583784    3.919707
     79          1           0       -2.933942    4.661550    4.756277
     80          1           0       -2.616471    2.682201    4.948650
     81          1           0       -5.203713    6.787206    2.330668
     82          1           0      -10.087682    3.127695   -3.244681
     83          1           0       -9.870567    4.764786   -3.061676
     84          1           0       -9.360433    4.329783   -5.389637
     85          1           0       -8.143788    5.078693   -4.571399
     86          1           0       -8.022511    3.347880   -4.844528
     87          1           0       -8.086799   -0.961126   -4.769760
     88          1           0       -8.737983   -2.542045   -4.008313
     89          1           0       -9.464565   -1.030530   -3.559806
     90          1           0       -4.066594   -3.949712   -1.276809
     91          1           0        2.531640   -6.213601    0.737804
     92          1           0        1.860135   -5.215660   -0.615498
     93          1           0        3.583789   -4.382237    1.815306
     94          1           0        2.774506   -3.449454   -1.713380
     95          1           0        3.791754   -2.057372   -1.683740
     96          1           0        4.518879   -3.749710   -2.084125
     97          1           0        4.768786   -1.455397    0.540528
     98          1           0        5.051175   -2.707132    1.560190
     99          1           0        6.705536   -3.738077    0.227894
    100          1           0        6.478887   -2.535590   -0.969202
    101          1           0        7.200228   -0.830036    0.615085
    102          1           0        7.755374   -1.822985    1.720855
    103          1           0        8.763496   -1.656265   -1.193902
    104          1           0        8.626081   -4.436178   -0.509082
    105          1           0       10.483611   -3.586888   -0.242251
    106          1           0        9.490475   -3.730524    1.101448
    107          1           0        9.454761    0.147902    0.436873
    108          1           0       10.126411   -0.972572    1.435388
    109          1           0       11.860002   -1.691716   -0.059465
    110          1           0       11.153943   -1.042931   -1.265987
    111          1           0       11.352229    1.147939    0.070492
    112          1           0       12.419246    0.195177    1.324475
    113          1           0       12.995649    0.546111   -1.701332
    114          1           0       14.730975   -0.754801    0.580932
    115          1           0       13.772647   -1.564453   -0.523889
    116          1           0       15.285351   -0.660519   -1.022029
    117          1           0       13.514052    2.648890    0.001456
    118          1           0       14.163638    1.557289    0.781627
    119          1           0       16.218826    1.373912   -0.712004
    120          1           0       15.088386    2.103055   -2.017150
    121          1           0       15.457911    4.388021   -0.748932
    122          1           0       16.429220    3.380344    0.457007
    123          1           0       18.120518    3.120097   -0.988879
    124          1           0       16.634709    4.895006   -2.977048
    125          1           0       18.392731    4.413215   -3.315538
    126          1           0       16.936033    3.099736   -3.425575
    127          1           0       18.165647    4.888509    0.331839
    128          1           0       18.963031    5.370755   -0.952560
    129          1           0       17.186630    5.889158   -0.779495
    130          1           0       -5.383344   -7.788510    0.224158
    131          1           0       -6.519775   -6.572457    0.986764
    132          1           0       -4.936174   -6.963472    1.466344
    133          8           0       -7.574163    6.898256   -0.424365
    134          1           0       -8.712591    6.554789   -2.112182
 ---------------------------------------------------------------------

 SCF Done:  E(RCAM-B3LYP) =  -3043.48416009     A.U. after   15 cycles

 Excitation energies and oscillator strengths:

 Excited State   1:      Singlet-A      2.0697 eV  599.04 nm  f=0.1824  <S**2>=0.000
     243 -> 246       -0.26072
     244 -> 245        0.64934
 This state for optimization and/or second-order correction.
 Total Energy, E(TD-HF/TD-KS) =  -3043.40809941
 Copying the excited state density for this state as the 1-particle RhoCI density.

 The electronic state is 1-A.
 Alpha  occ. eigenvalues --  -46.80912 -19.23443 -19.22648 -19.18415 -19.18277
 Alpha  occ. eigenvalues --  -19.17345 -19.16445 -19.16369 -14.38682 -14.36766
 Alpha  occ. eigenvalues --  -14.36404 -14.36110 -10.35380 -10.34901 -10.31710
 Alpha  occ. eigenvalues --  -10.31542 -10.30605 -10.27718 -10.27109 -10.27083
 Alpha  occ. eigenvalues --  -10.26974 -10.26346 -10.26114 -10.26079 -10.25692
 Alpha  occ. eigenvalues --  -10.25675 -10.25581 -10.25401 -10.24908 -10.24820
 Alpha  occ. eigenvalues --  -10.24696 -10.24451 -10.24233 -10.23865 -10.23430
 Alpha  occ. eigenvalues --  -10.23241 -10.23218 -10.23206 -10.23184 -10.23142
 Alpha  occ. eigenvalues --  -10.23001 -10.22862 -10.22595 -10.22585 -10.22508
 Alpha  occ. eigenvalues --  -10.22369 -10.22279 -10.21934 -10.21905 -10.21881
 Alpha  occ. eigenvalues --  -10.21845 -10.21763 -10.21757 -10.21514 -10.21452
 Alpha  occ. eigenvalues --  -10.20976 -10.20681 -10.20627 -10.20554 -10.20453
 Alpha  occ. eigenvalues --  -10.20313 -10.20207 -10.19572 -10.19192 -10.19186
 Alpha  occ. eigenvalues --  -10.19083  -3.09542  -1.84488  -1.83980  -1.83980
 Alpha  occ. eigenvalues --   -1.15796  -1.13834  -1.10695  -1.09073  -1.06502
 Alpha  occ. eigenvalues --   -1.04288  -1.04074  -1.00747  -0.99852  -0.99212
 Alpha  occ. eigenvalues --   -0.98219  -0.87575  -0.87071  -0.86693  -0.86271
 Alpha  occ. eigenvalues --   -0.85534  -0.85374  -0.84265  -0.83964  -0.83892
 Alpha  occ. eigenvalues --   -0.83210  -0.82780  -0.81578  -0.81003  -0.80495
 Alpha  occ. eigenvalues --   -0.79203  -0.78353  -0.77958  -0.77822  -0.76206
 Alpha  occ. eigenvalues --   -0.75483  -0.75185  -0.74226  -0.73226  -0.72450
 Alpha  occ. eigenvalues --   -0.72195  -0.70939  -0.69923  -0.69591  -0.69473
 Alpha  occ. eigenvalues --   -0.69275  -0.69100  -0.66882  -0.66461  -0.66209
 Alpha  occ. eigenvalues --   -0.65631  -0.65107  -0.63860  -0.63515  -0.63008
 Alpha  occ. eigenvalues --   -0.62361  -0.61711  -0.61463  -0.59999  -0.59548
 Alpha  occ. eigenvalues --   -0.58831  -0.58275  -0.58091  -0.58005  -0.57497
 Alpha  occ. eigenvalues --   -0.57124  -0.56555  -0.56134  -0.55245  -0.54609
 Alpha  occ. eigenvalues --   -0.54593  -0.54034  -0.53211  -0.52713  -0.52400
 Alpha  occ. eigenvalues --   -0.51964  -0.51619  -0.51436  -0.51340  -0.51207
 Alpha  occ. eigenvalues --   -0.51104  -0.50899  -0.50448  -0.49955  -0.49493
 Alpha  occ. eigenvalues --   -0.49255  -0.48775  -0.48602  -0.48214  -0.48190
 Alpha  occ. eigenvalues --   -0.48071  -0.47932  -0.47407  -0.47211  -0.47002
 Alpha  occ. eigenvalues --   -0.46819  -0.46540  -0.46264  -0.46252  -0.46032
 Alpha  occ. eigenvalues --   -0.45705  -0.45644  -0.45471  -0.45047  -0.44897
 Alpha  occ. eigenvalues --   -0.44693  -0.44620  -0.44364  -0.44118  -0.44080
 Alpha  occ. eigenvalues --   -0.43950  -0.43545  -0.43512  -0.43321  -0.42951
 Alpha  occ. eigenvalues --   -0.42800  -0.42498  -0.42357  -0.42167  -0.42041
 Alpha  occ. eigenvalues --   -0.41716  -0.41517  -0.41399  -0.41302  -0.41256
 Alpha  occ. eigenvalues --   -0.40849  -0.40518  -0.40395  -0.40152  -0.39960
 Alpha  occ. eigenvalues --   -0.39897  -0.39807  -0.39528  -0.39388  -0.39302
 Alpha  occ. eigenvalues --   -0.39002  -0.38757  -0.38641  -0.38598  -0.38497
 Alpha  occ. eigenvalues --   -0.38366  -0.38154  -0.37841  -0.37486  -0.37347
 Alpha  occ. eigenvalues --   -0.37200  -0.36947  -0.36732  -0.36386  -0.36098
 Alpha  occ. eigenvalues --   -0.35516  -0.35175  -0.35038  -0.34589  -0.34391
 Alpha  occ. eigenvalues --   -0.34381  -0.34016  -0.34007  -0.33859  -0.33698
 Alpha  occ. eigenvalues --   -0.33303  -0.32725  -0.32527  -0.31962  -0.31608
 Alpha  occ. eigenvalues --   -0.31362  -0.31351  -0.31227  -0.30388  -0.29738
 Alpha  occ. eigenvalues --   -0.28479  -0.28236  -0.28054  -0.27716  -0.27287
 Alpha  occ. eigenvalues --   -0.27069  -0.27003  -0.23180  -0.21544
 Alpha virt. eigenvalues --   -0.08368  -0.06358  -0.01713  -0.00281   0.01092
 Alpha virt. eigenvalues --    0.03217   0.03371   0.03492   0.04131   0.04459
 Alpha virt. eigenvalues --    0.05213   0.05776   0.08028   0.08397   0.08807

 Mulliken charges:
               1
     1  Mg   0.821537
     2  C    0.138986
     3  C   -0.130047
     4  C   -0.145099
     5  C   -0.160287
     6  N   -0.641321
     7  C    0.242875
     8  C   -0.079215
     9  C   -0.163974
    10  C    0.325432
    11  C   -0.311397
    12  C   -0.180391
    13  C   -0.280573
    14  C    0.611450
    15  O   -0.433738
    16  O   -0.471476
    17  N   -0.739356
    18  C    0.301260
    19  C    0.093939
    20  C   -0.011915
    21  C    0.353726
    22  C   -0.409409
    23  C    0.206537
    24  O   -0.439807
    25  N   -0.694086
    26  C    0.293653
    27  C   -0.082143
    28  C    0.046377
    29  C    0.305673
    30  C    0.265487
    31  C   -0.271762
    32  C   -0.308709
    33  N   -0.687279
    34  C    0.257696
    35  C   -0.029663
    36  C    0.069334
    37  C    0.261141
    38  C   -0.386792
    39  C    0.365698
    40  O   -0.428920
    41  C   -0.345651
    42  C    0.613806
    43  O   -0.496849
    44  O   -0.418329
    45  C   -0.075773
    46  C   -0.008016
    47  C   -0.154537
    48  C    0.151362
    49  C   -0.376398
    50  C   -0.201797
    51  C   -0.178244
    52  C   -0.175336
    53  C   -0.036392
    54  C   -0.299561
    55  C   -0.177106
    56  C   -0.159206
    57  C   -0.179436
    58  C   -0.064270
    59  C   -0.319366
    60  C   -0.158210
    61  C   -0.181881
    62  C   -0.154829
    63  C   -0.061853
    64  C   -0.284565
    65  C   -0.300917
    66  H    0.045962
    67  H    0.114264
    68  H    0.099665
    69  H    0.111603
    70  H    0.111222
    71  H    0.102507
    72  H    0.107706
    73  H    0.141722
    74  H    0.099480
    75  H    0.122684
    76  H    0.104093
    77  H    0.138492
    78  H    0.125036
    79  H    0.162895
    80  H    0.105215
    81  H    0.083122
    82  H    0.101714
    83  H    0.104117
    84  H    0.103052
    85  H    0.124935
    86  H    0.115789
    87  H    0.141088
    88  H    0.145721
    89  H    0.120789
    90  H    0.125996
    91  H    0.107169
    92  H    0.128272
    93  H    0.087891
    94  H    0.139124
    95  H    0.117257
    96  H    0.117426
    97  H    0.086474
    98  H    0.095031
    99  H    0.094167
   100  H    0.102776
   101  H    0.079854
   102  H    0.083714
   103  H    0.066515
   104  H    0.067122
   105  H    0.082827
   106  H    0.117463
   107  H    0.072050
   108  H    0.096255
   109  H    0.108548
   110  H    0.079100
   111  H    0.074910
   112  H    0.078879
   113  H    0.089126
   114  H    0.084747
   115  H    0.099680
   116  H    0.099452
   117  H    0.083950
   118  H    0.092570
   119  H    0.083199
   120  H    0.090680
   121  H    0.085436
   122  H    0.092365
   123  H    0.085728
   124  H    0.082837
   125  H    0.072246
   126  H    0.086871
   127  H    0.101465
   128  H    0.095017
   129  H    0.107932
   130  H    0.121997
   131  H    0.145503
   132  H    0.134216
   133  O   -0.369122
   134  H    0.062326
 Sum of Mulliken charges =   0.00000

 Dipole moment (field-independent basis, Debye):
    X=              1.7519    Y=             -4.9486    Z=             -0.7490  Tot=              5.3027
 Quadrupole moment (field-independent basis, Debye-Ang):
   XX=           -371.5638   YY=           -431.4437   ZZ=           -397.7521
   XY=              4.0511   XZ=             35.1779   YZ=            -36.3060

 Normal termination of Gaussian 09 at Tue Oct  8 07:35:03 2019.
