 Gaussian 09, Revision D.01,
 Gaussian 09:  ES64L-G09RevD.01 24-Apr-2013

 ----------------------------------------------------------------------
 # td=(NStates=1) iop(3/107=0140000000,3/108=0140000000) iop(3/107=0140
 000000,3/108=0140000000) CAM-B3LYP/6-31G(d,p)
 ----------------------------------------------------------------------

 --
 TD
 --
 Symbolic Z-matrix:
 Charge =  0 Multiplicity = 1

                         Standard orientation:
 ---------------------------------------------------------------------
 Center     Atomic      Atomic             Coordinates (Angstroms)
 Number     Number       Type             X           Y           Z
 ---------------------------------------------------------------------
      1         12           0       -5.684905    1.177792    0.298824
      2          6           0       -5.081661   -2.100861   -0.346936
      3          6           0       -3.292589    1.173019    2.744903
      4          6           0       -6.144670    4.498619    0.633410
      5          6           0       -7.971850    1.166908   -2.301428
      6          7           0       -4.437855   -0.244716    1.180217
      7          6           0       -4.343810   -1.519309    0.743490
      8          6           0       -3.346381   -2.276352    1.502914
      9          6           0       -2.943489   -1.289520    2.614362
     10          6           0       -3.564905    0.025829    2.140929
     11          6           0       -3.464933   -1.717187    4.005306
     12          6           0       -2.043802   -2.690322    0.652844
     13          6           0       -1.156677   -3.802851    1.254691
     14          6           0        0.240709   -4.002136    0.531656
     15          8           0        0.460587   -3.479144   -0.493853
     16          8           0        0.963658   -4.865236    1.288117
     17          7           0       -4.915767    2.548353    1.506630
     18          6           0       -4.033705    2.408131    2.527214
     19          6           0       -3.625515    3.685539    3.131063
     20          6           0       -4.597677    4.542295    2.680840
     21          6           0       -5.251419    3.935293    1.587346
     22          6           0       -2.655373    3.778983    4.311412
     23          6           0       -4.643157    6.048846    2.856277
     24          8           0       -4.167694    6.566698    3.771413
     25          7           0       -6.798933    2.574396   -0.785891
     26          6           0       -6.896203    3.899252   -0.357874
     27          6           0       -7.885819    4.598755   -1.313928
     28          6           0       -8.361556    3.702540   -2.025028
     29          6           0       -7.744589    2.391675   -1.700055
     30          6           0       -8.314822    6.034206   -1.266621
     31          6           0       -9.416928    3.891932   -3.127723
     32          6           0       -8.530533    4.165078   -4.413199
     33          7           0       -6.395457   -0.124492   -1.084854
     34          6           0       -7.379453   -0.011004   -2.112358
     35          6           0       -7.532293   -1.315711   -2.668424
     36          6           0       -6.629499   -2.172678   -2.105559
     37          6           0       -5.938620   -1.397582   -1.121075
     38          6           0       -8.552157   -1.698689   -3.718886
     39          6           0       -6.089139   -3.559777   -2.016021
     40          8           0       -6.485147   -4.505747   -2.729136
     41          6           0       -5.003361   -3.553558   -0.899175
     42          6           0       -5.366845   -4.621396    0.065631
     43          8           0       -5.795919   -4.394404    1.177323
     44          8           0       -4.976333   -5.846381   -0.322431
     45          6           0       -5.406940   -6.966130    0.512553
     46          6           0        2.284094   -4.984050    0.651597
     47          6           0        3.397588   -4.038363    0.944762
     48          6           0        3.965346   -3.219207    0.148936
     49          6           0        3.675161   -3.052465   -1.340999
     50          6           0        5.162628   -2.376883    0.614096
     51          6           0        6.500054   -2.605038    0.047865
     52          6           0        7.544233   -1.699471    0.611694
     53          6           0        8.923326   -1.962149    0.013895
     54          6           0        9.528442   -3.375133    0.298218
     55          6           0        9.979964   -0.895729    0.513063
     56          6           0       11.214605   -0.932033   -0.335526
     57          6           0       12.105888    0.343201    0.117863
     58          6           0       13.535765    0.540994   -0.555039
     59          6           0       14.331719   -0.671652   -0.258697
     60          6           0       14.160476    1.833273   -0.154351
     61          6           0       15.474509    2.104116   -0.909968
     62          6           0       16.169686    3.469267   -0.674293
     63          6           0       17.483495    3.802968   -1.371260
     64          6           0       17.238355    3.822659   -2.921966
     65          6           0       18.082331    5.124949   -0.776641
     66          1           0       -2.261486    1.253823    3.442555
     67          1           0       -6.479018    5.678554    0.768563
     68          1           0       -8.758321    1.105513   -3.175515
     69          1           0       -3.647871   -3.169589    1.836688
     70          1           0       -1.845534   -1.109426    2.444006
     71          1           0       -2.975698   -2.805202    4.063380
     72          1           0       -3.086760   -1.111781    4.617949
     73          1           0       -4.639351   -1.794035    3.833968
     74          1           0       -2.335304   -3.253405   -0.278283
     75          1           0       -1.408248   -2.010407    0.235712
     76          1           0       -0.842862   -3.218021    2.239454
     77          1           0       -1.608273   -4.720667    1.574229
     78          1           0       -1.636072    3.471811    4.004944
     79          1           0       -2.683187    4.856630    4.652004
     80          1           0       -2.909480    2.972332    5.064217
     81          1           0       -5.373070    6.644649    2.236273
     82          1           0      -10.101508    3.045623   -3.273666
     83          1           0      -10.045360    4.678956   -2.918565
     84          1           0       -9.116914    4.226123   -5.413226
     85          1           0       -8.224000    5.171010   -4.251099
     86          1           0       -7.933204    3.335449   -4.590858
     87          1           0       -8.334893   -1.298857   -4.799102
     88          1           0       -8.400875   -2.928401   -3.918257
     89          1           0       -9.659150   -1.323840   -3.751321
     90          1           0       -4.149635   -3.883140   -1.360545
     91          1           0        2.685266   -5.982397    1.035676
     92          1           0        2.127262   -5.028841   -0.437334
     93          1           0        3.806308   -4.142402    1.836518
     94          1           0        2.689378   -3.305923   -1.955179
     95          1           0        3.951052   -1.920824   -1.612351
     96          1           0        4.505703   -3.659320   -1.898032
     97          1           0        4.891937   -1.236247    0.666690
     98          1           0        5.177240   -2.567277    1.600252
     99          1           0        6.819519   -3.734388    0.096005
    100          1           0        6.408046   -2.368825   -1.092164
    101          1           0        7.004974   -0.671334    0.167875
    102          1           0        7.575376   -1.680117    1.711381
    103          1           0        8.830090   -1.528521   -1.035412
    104          1           0        8.975209   -4.138820    0.128076
    105          1           0       10.531052   -3.629279   -0.116854
    106          1           0        9.609706   -3.622144    1.366718
    107          1           0        9.648308    0.056072    0.244745
    108          1           0       10.260688   -0.925620    1.557007
    109          1           0       11.972141   -1.741145   -0.168774
    110          1           0       11.049901   -0.841297   -1.394525
    111          1           0       11.505846    1.307195    0.208951
    112          1           0       12.371740    0.026187    1.089235
    113          1           0       13.178193    0.686627   -1.600081
    114          1           0       14.497824   -0.673554    0.889019
    115          1           0       13.892493   -1.596887   -0.540747
    116          1           0       15.410716   -0.663113   -0.864188
    117          1           0       13.532217    2.536381   -0.267640
    118          1           0       14.529541    1.895038    0.780306
    119          1           0       16.166516    1.240524   -0.576574
    120          1           0       15.238521    2.058307   -2.114099
    121          1           0       15.300496    4.308894   -0.754730
    122          1           0       16.255082    3.431457    0.378860
    123          1           0       18.197041    3.033856   -1.116958
    124          1           0       16.496946    4.516579   -3.373775
    125          1           0       18.227711    3.968489   -3.378465
    126          1           0       17.006854    2.944266   -3.292692
    127          1           0       17.896879    5.015934    0.274202
    128          1           0       19.210045    5.150433   -0.968292
    129          1           0       17.503709    5.971126   -1.186131
    130          1           0       -4.928463   -7.828730   -0.020109
    131          1           0       -6.575916   -6.903567    0.478172
    132          1           0       -4.860870   -7.195455    1.504436
    133          8           0       -7.720660    6.900883   -0.554824
    134          1           0       -9.017218    6.316777   -1.918785
 ---------------------------------------------------------------------

 SCF Done:  E(RCAM-B3LYP) =  -3043.41590091     A.U. after   15 cycles

 Excitation energies and oscillator strengths:

 Excited State   1:      Singlet-A      2.0257 eV  612.05 nm  f=0.2423  <S**2>=0.000
     243 -> 246       -0.21768
     243 -> 247        0.11150
     244 -> 245        0.65571
 This state for optimization and/or second-order correction.
 Total Energy, E(TD-HF/TD-KS) =  -3043.34145745
 Copying the excited state density for this state as the 1-particle RhoCI density.

 The electronic state is 1-A.
 Alpha  occ. eigenvalues --  -46.80531 -19.23372 -19.23074 -19.18395 -19.18350
 Alpha  occ. eigenvalues --  -19.17527 -19.17019 -19.16981 -14.38416 -14.37277
 Alpha  occ. eigenvalues --  -14.36587 -14.35475 -10.35399 -10.35045 -10.32271
 Alpha  occ. eigenvalues --  -10.31199 -10.29763 -10.29368 -10.27777 -10.27744
 Alpha  occ. eigenvalues --  -10.26375 -10.26174 -10.26023 -10.25722 -10.25528
 Alpha  occ. eigenvalues --  -10.25517 -10.25330 -10.25192 -10.24810 -10.24740
 Alpha  occ. eigenvalues --  -10.24178 -10.23877 -10.23855 -10.23650 -10.23587
 Alpha  occ. eigenvalues --  -10.23458 -10.23316 -10.23302 -10.23288 -10.23128
 Alpha  occ. eigenvalues --  -10.23105 -10.22945 -10.22644 -10.22577 -10.22510
 Alpha  occ. eigenvalues --  -10.22460 -10.22418 -10.22287 -10.22213 -10.22204
 Alpha  occ. eigenvalues --  -10.22198 -10.22100 -10.21864 -10.21741 -10.21528
 Alpha  occ. eigenvalues --  -10.21323 -10.21155 -10.20789 -10.20668 -10.20420
 Alpha  occ. eigenvalues --  -10.20329 -10.19871 -10.19848 -10.19832 -10.18807
 Alpha  occ. eigenvalues --  -10.17885  -3.09263  -1.84196  -1.83767  -1.83650
 Alpha  occ. eigenvalues --   -1.14536  -1.13839  -1.10365  -1.07350  -1.05618
 Alpha  occ. eigenvalues --   -1.05148  -1.04760  -1.01345  -1.00416  -0.98869
 Alpha  occ. eigenvalues --   -0.98298  -0.88930  -0.87235  -0.86588  -0.85743
 Alpha  occ. eigenvalues --   -0.85168  -0.84684  -0.84286  -0.83607  -0.82848
 Alpha  occ. eigenvalues --   -0.82705  -0.82423  -0.81538  -0.80885  -0.80024
 Alpha  occ. eigenvalues --   -0.79127  -0.78368  -0.77625  -0.76967  -0.76297
 Alpha  occ. eigenvalues --   -0.75298  -0.74224  -0.73549  -0.73194  -0.71843
 Alpha  occ. eigenvalues --   -0.71708  -0.71313  -0.70786  -0.70595  -0.69893
 Alpha  occ. eigenvalues --   -0.69310  -0.68454  -0.67899  -0.67229  -0.66164
 Alpha  occ. eigenvalues --   -0.65348  -0.64428  -0.64112  -0.62460  -0.61864
 Alpha  occ. eigenvalues --   -0.61674  -0.60410  -0.60131  -0.59247  -0.58989
 Alpha  occ. eigenvalues --   -0.58944  -0.58365  -0.57818  -0.57785  -0.57088
 Alpha  occ. eigenvalues --   -0.56627  -0.56478  -0.55728  -0.55207  -0.54841
 Alpha  occ. eigenvalues --   -0.54647  -0.53537  -0.53202  -0.52737  -0.52499
 Alpha  occ. eigenvalues --   -0.52095  -0.51837  -0.51716  -0.51455  -0.51192
 Alpha  occ. eigenvalues --   -0.50915  -0.50666  -0.50311  -0.50156  -0.49383
 Alpha  occ. eigenvalues --   -0.49033  -0.48882  -0.48567  -0.48405  -0.47794
 Alpha  occ. eigenvalues --   -0.47396  -0.47189  -0.47054  -0.46891  -0.46757
 Alpha  occ. eigenvalues --   -0.46541  -0.46423  -0.46230  -0.45779  -0.45560
 Alpha  occ. eigenvalues --   -0.45280  -0.45171  -0.44945  -0.44693  -0.44397
 Alpha  occ. eigenvalues --   -0.44152  -0.43808  -0.43662  -0.43548  -0.43444
 Alpha  occ. eigenvalues --   -0.42957  -0.42848  -0.42564  -0.42433  -0.42401
 Alpha  occ. eigenvalues --   -0.42079  -0.41849  -0.41733  -0.41624  -0.41543
 Alpha  occ. eigenvalues --   -0.41499  -0.41272  -0.41101  -0.41025  -0.40942
 Alpha  occ. eigenvalues --   -0.40865  -0.40342  -0.40286  -0.40102  -0.39890
 Alpha  occ. eigenvalues --   -0.39850  -0.39369  -0.39340  -0.39123  -0.38934
 Alpha  occ. eigenvalues --   -0.38838  -0.38773  -0.38647  -0.38359  -0.38317
 Alpha  occ. eigenvalues --   -0.38093  -0.38077  -0.37911  -0.37843  -0.37473
 Alpha  occ. eigenvalues --   -0.37058  -0.36922  -0.36870  -0.36031  -0.35623
 Alpha  occ. eigenvalues --   -0.35500  -0.35461  -0.35167  -0.35109  -0.34804
 Alpha  occ. eigenvalues --   -0.34159  -0.33797  -0.33678  -0.33508  -0.33392
 Alpha  occ. eigenvalues --   -0.33237  -0.32916  -0.32168  -0.31840  -0.31694
 Alpha  occ. eigenvalues --   -0.31234  -0.31113  -0.30661  -0.30170  -0.30136
 Alpha  occ. eigenvalues --   -0.29799  -0.28932  -0.28563  -0.28071  -0.27932
 Alpha  occ. eigenvalues --   -0.27529  -0.27161  -0.22877  -0.20902
 Alpha virt. eigenvalues --   -0.08129  -0.05554  -0.01971  -0.01050   0.01152
 Alpha virt. eigenvalues --    0.03157   0.03659   0.04073   0.04628   0.05021
 Alpha virt. eigenvalues --    0.05136   0.05920   0.08137   0.08852   0.08939

 Mulliken charges:
               1
     1  Mg   0.814775
     2  C    0.077196
     3  C   -0.201101
     4  C   -0.205265
     5  C   -0.225494
     6  N   -0.654614
     7  C    0.347210
     8  C   -0.134048
     9  C   -0.176150
    10  C    0.359796
    11  C   -0.259843
    12  C   -0.201042
    13  C   -0.283005
    14  C    0.612758
    15  O   -0.429647
    16  O   -0.456345
    17  N   -0.676053
    18  C    0.280307
    19  C    0.033774
    20  C   -0.063445
    21  C    0.295570
    22  C   -0.379915
    23  C    0.251081
    24  O   -0.369098
    25  N   -0.660883
    26  C    0.261281
    27  C    0.005769
    28  C    0.030176
    29  C    0.323263
    30  C    0.264916
    31  C   -0.259279
    32  C   -0.306123
    33  N   -0.762150
    34  C    0.334712
    35  C    0.017467
    36  C    0.069088
    37  C    0.309748
    38  C   -0.407700
    39  C    0.353648
    40  O   -0.468598
    41  C   -0.306828
    42  C    0.625371
    43  O   -0.468334
    44  O   -0.449143
    45  C   -0.083920
    46  C   -0.012570
    47  C   -0.121629
    48  C    0.169103
    49  C   -0.374371
    50  C   -0.231061
    51  C   -0.157891
    52  C   -0.159658
    53  C   -0.041057
    54  C   -0.324019
    55  C   -0.165582
    56  C   -0.189737
    57  C   -0.208100
    58  C   -0.047332
    59  C   -0.305644
    60  C   -0.136547
    61  C   -0.183186
    62  C   -0.159167
    63  C   -0.053535
    64  C   -0.317177
    65  C   -0.307779
    66  H    0.080988
    67  H    0.136672
    68  H    0.079985
    69  H    0.116294
    70  H    0.102978
    71  H    0.093865
    72  H    0.120785
    73  H    0.118211
    74  H    0.095045
    75  H    0.126672
    76  H    0.102734
    77  H    0.130322
    78  H    0.118540
    79  H    0.151130
    80  H    0.125624
    81  H    0.070516
    82  H    0.109908
    83  H    0.112024
    84  H    0.087901
    85  H    0.122472
    86  H    0.132926
    87  H    0.115658
    88  H    0.132333
    89  H    0.121962
    90  H    0.172714
    91  H    0.103123
    92  H    0.128041
    93  H    0.073314
    94  H    0.133930
    95  H    0.093226
    96  H    0.110448
    97  H    0.087362
    98  H    0.104282
    99  H    0.079921
   100  H    0.084126
   101  H    0.065668
   102  H    0.091416
   103  H    0.081621
   104  H    0.110346
   105  H    0.109999
   106  H    0.095971
   107  H    0.098401
   108  H    0.091123
   109  H    0.087642
   110  H    0.093447
   111  H    0.072629
   112  H    0.091343
   113  H    0.081272
   114  H    0.092515
   115  H    0.112778
   116  H    0.077550
   117  H    0.091418
   118  H    0.092478
   119  H    0.080771
   120  H    0.054071
   121  H    0.058113
   122  H    0.085049
   123  H    0.090102
   124  H    0.098568
   125  H    0.088205
   126  H    0.120574
   127  H    0.106812
   128  H    0.093763
   129  H    0.108018
   130  H    0.126651
   131  H    0.140287
   132  H    0.123184
   133  O   -0.429951
   134  H    0.089188
 Sum of Mulliken charges =   0.00000

 Dipole moment (field-independent basis, Debye):
    X=              1.9350    Y=             -4.4571    Z=             -0.7969  Tot=              4.9239
 Quadrupole moment (field-independent basis, Debye-Ang):
   XX=           -368.3510   YY=           -426.8618   ZZ=           -398.8015
   XY=            -10.1198   XZ=             28.7887   YZ=            -33.7514

 Normal termination of Gaussian 09 at Mon Oct  7 21:21:25 2019.
