 Gaussian 09, Revision D.01,
 Gaussian 09:  ES64L-G09RevD.01 24-Apr-2013

 ----------------------------------------------------------------------
 # td=(NStates=1) iop(3/107=0140000000,3/108=0140000000) iop(3/107=0140
 000000,3/108=0140000000) CAM-B3LYP/6-31G(d,p)
 ----------------------------------------------------------------------

 --
 TD
 --
 Symbolic Z-matrix:
 Charge =  0 Multiplicity = 1

                         Standard orientation:
 ---------------------------------------------------------------------
 Center     Atomic      Atomic             Coordinates (Angstroms)
 Number     Number       Type             X           Y           Z
 ---------------------------------------------------------------------
      1         12           0       -5.565367    1.228284    0.203315
      2          6           0       -5.021677   -2.103072   -0.431882
      3          6           0       -3.358422    1.170350    2.762920
      4          6           0       -6.067248    4.573649    0.611968
      5          6           0       -8.026068    1.151129   -2.424036
      6          7           0       -4.232317   -0.291543    1.034211
      7          6           0       -4.185475   -1.684156    0.631870
      8          6           0       -3.144848   -2.347609    1.401945
      9          6           0       -2.899837   -1.381682    2.662444
     10          6           0       -3.571618   -0.065130    2.096367
     11          6           0       -3.481631   -1.970440    3.936041
     12          6           0       -1.940617   -2.806213    0.772515
     13          6           0       -0.943817   -3.764927    1.438591
     14          6           0        0.210776   -4.067656    0.647816
     15          8           0        0.455493   -3.712560   -0.554906
     16          8           0        1.165536   -4.754164    1.397949
     17          7           0       -4.942641    2.562000    1.470626
     18          6           0       -3.993282    2.359511    2.542334
     19          6           0       -3.795671    3.579228    3.215938
     20          6           0       -4.485767    4.602122    2.615848
     21          6           0       -5.237350    3.902916    1.530937
     22          6           0       -2.911799    3.784413    4.404304
     23          6           0       -4.603611    6.002933    2.920704
     24          8           0       -4.154680    6.538878    3.900999
     25          7           0       -6.862912    2.560137   -0.690700
     26          6           0       -6.846836    3.894194   -0.354572
     27          6           0       -7.891810    4.667884   -1.194569
     28          6           0       -8.307908    3.711496   -2.037074
     29          6           0       -7.738108    2.454435   -1.677176
     30          6           0       -8.261607    6.126573   -1.185390
     31          6           0       -9.277431    3.967792   -3.201175
     32          6           0       -8.589720    4.252563   -4.497521
     33          7           0       -6.254785   -0.069411   -1.146970
     34          6           0       -7.343193   -0.067976   -2.122435
     35          6           0       -7.584547   -1.260896   -2.702081
     36          6           0       -6.580960   -2.153064   -2.113855
     37          6           0       -5.962968   -1.385276   -1.088084
     38          6           0       -8.516271   -1.573283   -3.751990
     39          6           0       -6.134811   -3.495447   -2.055310
     40          8           0       -6.519893   -4.481585   -2.709546
     41          6           0       -5.006140   -3.562908   -0.989012
     42          6           0       -5.306646   -4.595707    0.069462
     43          8           0       -5.700375   -4.411030    1.235603
     44          8           0       -4.857700   -5.769701   -0.367275
     45          6           0       -5.285470   -6.909392    0.398837
     46          6           0        2.315632   -5.117887    0.691098
     47          6           0        3.529445   -4.303130    0.952977
     48          6           0        4.066825   -3.332654    0.154005
     49          6           0        3.677417   -3.296124   -1.299658
     50          6           0        5.098218   -2.467621    0.672186
     51          6           0        6.450958   -2.858661   -0.015260
     52          6           0        7.538773   -1.834920    0.551743
     53          6           0        9.012685   -2.008141   -0.134574
     54          6           0        9.652025   -3.382402    0.183115
     55          6           0        9.966687   -0.876717    0.348053
     56          6           0       11.271991   -0.853767   -0.450163
     57          6           0       12.033145    0.267072    0.021803
     58          6           0       13.441049    0.644516   -0.687140
     59          6           0       14.287846   -0.661821   -0.450141
     60          6           0       14.094822    1.951420   -0.137021
     61          6           0       15.303307    2.203274   -0.965934
     62          6           0       15.863028    3.576070   -0.521593
     63          6           0       17.216512    4.015792   -1.256369
     64          6           0       16.906836    4.220709   -2.769259
     65          6           0       17.773658    5.233118   -0.686963
     66          1           0       -2.568024    1.345265    3.531696
     67          1           0       -6.122021    5.732071    0.761410
     68          1           0       -8.706487    1.171672   -3.243839
     69          1           0       -3.434173   -3.284240    1.758486
     70          1           0       -1.989177   -1.200279    2.894863
     71          1           0       -2.970138   -3.000877    4.089239
     72          1           0       -3.122265   -1.286838    4.760746
     73          1           0       -4.723120   -1.898538    3.979262
     74          1           0       -2.188870   -3.145099   -0.173924
     75          1           0       -1.308592   -1.936840    0.331835
     76          1           0       -0.654752   -3.237026    2.424994
     77          1           0       -1.394942   -4.713685    1.657106
     78          1           0       -1.883591    3.358624    4.249619
     79          1           0       -2.998982    4.604867    4.810974
     80          1           0       -3.227302    3.271333    5.446232
     81          1           0       -5.240292    6.688350    2.396764
     82          1           0      -10.058665    3.075061   -3.204850
     83          1           0       -9.863541    4.792345   -2.902572
     84          1           0       -9.259283    4.252100   -5.297610
     85          1           0       -7.933552    5.097862   -4.436041
     86          1           0       -7.776457    3.472885   -4.705545
     87          1           0       -8.334333   -0.991408   -4.618510
     88          1           0       -8.579867   -2.601059   -3.906775
     89          1           0       -9.622997   -1.388430   -3.525837
     90          1           0       -4.049478   -3.632612   -1.400443
     91          1           0        2.660617   -6.079503    1.127702
     92          1           0        2.101926   -5.208198   -0.347187
     93          1           0        3.756150   -4.312213    2.089968
     94          1           0        2.640531   -3.546641   -1.445248
     95          1           0        3.577390   -2.186545   -1.706641
     96          1           0        4.156513   -3.916553   -1.951733
     97          1           0        4.796821   -1.370986    0.406722
     98          1           0        5.249518   -2.443174    1.850704
     99          1           0        6.854958   -3.911346    0.280249
    100          1           0        6.466322   -3.136312   -1.079807
    101          1           0        7.187020   -0.715165    0.481314
    102          1           0        7.517666   -2.018974    1.667988
    103          1           0        8.998020   -1.870728   -1.386837
    104          1           0        9.008971   -4.166721   -0.047601
    105          1           0       10.612820   -3.447215   -0.470958
    106          1           0        9.890634   -3.318863    1.336586
    107          1           0        9.527150    0.144182   -0.105898
    108          1           0       10.215000   -0.937091    1.397894
    109          1           0       11.966912   -1.772347   -0.371984
    110          1           0       11.110568   -0.834464   -1.462188
    111          1           0       11.325627    1.249909   -0.006074
    112          1           0       12.439816    0.079132    1.131398
    113          1           0       13.099709    0.698565   -1.720897
    114          1           0       14.639742   -0.699625    0.707859
    115          1           0       13.782149   -1.586373   -0.893111
    116          1           0       15.167314   -0.379419   -1.014882
    117          1           0       13.408689    2.762943   -0.392869
    118          1           0       14.393149    1.940691    0.923559
    119          1           0       15.878465    1.315082   -0.682342
    120          1           0       15.149282    2.220494   -2.018927
    121          1           0       15.185931    4.208806   -0.745710
    122          1           0       15.772773    3.663632    0.689916
    123          1           0       17.917380    3.095681   -1.027607
    124          1           0       16.282553    5.031551   -2.764234
    125          1           0       17.819633    4.455109   -3.293975
    126          1           0       16.497396    3.393810   -3.259183
    127          1           0       18.055383    5.052151    0.413965
    128          1           0       18.530319    5.744828   -1.460406
    129          1           0       16.941963    6.025083   -0.348198
    130          1           0       -5.007881   -7.833998    0.031761
    131          1           0       -6.418573   -6.685798    0.591874
    132          1           0       -4.927384   -6.816026    1.538714
    133          8           0       -7.713649    6.878344   -0.381079
    134          1           0       -9.233722    6.447108   -1.838349
 ---------------------------------------------------------------------

 SCF Done:  E(RCAM-B3LYP) =  -3043.44296858     A.U. after   16 cycles

 Excitation energies and oscillator strengths:

 Excited State   1:      Singlet-A      1.9489 eV  636.18 nm  f=0.1937  <S**2>=0.000
     243 -> 246        0.24142
     244 -> 245        0.65493
 This state for optimization and/or second-order correction.
 Total Energy, E(TD-HF/TD-KS) =  -3043.37134881
 Copying the excited state density for this state as the 1-particle RhoCI density.

 The electronic state is 1-A.
 Alpha  occ. eigenvalues --  -46.81044 -19.23500 -19.22731 -19.18337 -19.18052
 Alpha  occ. eigenvalues --  -19.17592 -19.16708 -19.15860 -14.39441 -14.37572
 Alpha  occ. eigenvalues --  -14.36915 -14.36542 -10.36272 -10.35743 -10.32635
 Alpha  occ. eigenvalues --  -10.30461 -10.29713 -10.28423 -10.28163 -10.28082
 Alpha  occ. eigenvalues --  -10.27485 -10.26838 -10.26821 -10.26690 -10.26014
 Alpha  occ. eigenvalues --  -10.25844 -10.25698 -10.25268 -10.25219 -10.24834
 Alpha  occ. eigenvalues --  -10.24607 -10.24468 -10.24440 -10.24302 -10.23846
 Alpha  occ. eigenvalues --  -10.23786 -10.23687 -10.23582 -10.23572 -10.23549
 Alpha  occ. eigenvalues --  -10.23375 -10.23228 -10.23155 -10.23105 -10.22747
 Alpha  occ. eigenvalues --  -10.22744 -10.22712 -10.22406 -10.22181 -10.22098
 Alpha  occ. eigenvalues --  -10.21951 -10.21734 -10.21672 -10.21588 -10.21488
 Alpha  occ. eigenvalues --  -10.21474 -10.21431 -10.21148 -10.21113 -10.20973
 Alpha  occ. eigenvalues --  -10.20552 -10.20207 -10.20206 -10.19674 -10.19584
 Alpha  occ. eigenvalues --  -10.19003  -3.09812  -1.84729  -1.84307  -1.84226
 Alpha  occ. eigenvalues --   -1.14368  -1.12690  -1.07609  -1.07137  -1.04640
 Alpha  occ. eigenvalues --   -1.04053  -1.03146  -1.01110  -1.00755  -0.98892
 Alpha  occ. eigenvalues --   -0.98342  -0.89209  -0.87965  -0.85721  -0.85664
 Alpha  occ. eigenvalues --   -0.85497  -0.84908  -0.84628  -0.84253  -0.83702
 Alpha  occ. eigenvalues --   -0.83146  -0.82255  -0.82178  -0.80430  -0.79996
 Alpha  occ. eigenvalues --   -0.79382  -0.78711  -0.78107  -0.77226  -0.76729
 Alpha  occ. eigenvalues --   -0.75771  -0.75561  -0.74533  -0.73024  -0.72831
 Alpha  occ. eigenvalues --   -0.71381  -0.70947  -0.70153  -0.69735  -0.69591
 Alpha  occ. eigenvalues --   -0.68850  -0.68488  -0.67508  -0.66860  -0.66412
 Alpha  occ. eigenvalues --   -0.66031  -0.64319  -0.63558  -0.62933  -0.62048
 Alpha  occ. eigenvalues --   -0.62014  -0.60941  -0.60171  -0.59502  -0.59028
 Alpha  occ. eigenvalues --   -0.58534  -0.58232  -0.57938  -0.57484  -0.56974
 Alpha  occ. eigenvalues --   -0.56571  -0.56170  -0.56035  -0.55607  -0.55298
 Alpha  occ. eigenvalues --   -0.54942  -0.53794  -0.53363  -0.52951  -0.52774
 Alpha  occ. eigenvalues --   -0.52629  -0.51523  -0.51484  -0.50765  -0.50756
 Alpha  occ. eigenvalues --   -0.50338  -0.50074  -0.49928  -0.49299  -0.48925
 Alpha  occ. eigenvalues --   -0.48855  -0.48682  -0.48563  -0.48256  -0.48162
 Alpha  occ. eigenvalues --   -0.47800  -0.47738  -0.47340  -0.47142  -0.46831
 Alpha  occ. eigenvalues --   -0.46742  -0.46467  -0.46220  -0.46136  -0.45920
 Alpha  occ. eigenvalues --   -0.45773  -0.45696  -0.45587  -0.45467  -0.45290
 Alpha  occ. eigenvalues --   -0.45005  -0.44864  -0.44583  -0.44146  -0.43966
 Alpha  occ. eigenvalues --   -0.43609  -0.43404  -0.43042  -0.42932  -0.42660
 Alpha  occ. eigenvalues --   -0.42226  -0.42169  -0.42084  -0.41934  -0.41801
 Alpha  occ. eigenvalues --   -0.41652  -0.41335  -0.41248  -0.41014  -0.40797
 Alpha  occ. eigenvalues --   -0.40639  -0.40315  -0.40009  -0.39938  -0.39842
 Alpha  occ. eigenvalues --   -0.39722  -0.39628  -0.39488  -0.39287  -0.39018
 Alpha  occ. eigenvalues --   -0.38853  -0.38733  -0.38655  -0.38407  -0.38222
 Alpha  occ. eigenvalues --   -0.37979  -0.37734  -0.37489  -0.37183  -0.37080
 Alpha  occ. eigenvalues --   -0.37019  -0.36868  -0.36601  -0.36079  -0.35582
 Alpha  occ. eigenvalues --   -0.35073  -0.35054  -0.34926  -0.34674  -0.34424
 Alpha  occ. eigenvalues --   -0.33958  -0.33641  -0.33443  -0.33111  -0.32897
 Alpha  occ. eigenvalues --   -0.32729  -0.32386  -0.32273  -0.31907  -0.31654
 Alpha  occ. eigenvalues --   -0.31215  -0.31195  -0.31067  -0.29692  -0.29575
 Alpha  occ. eigenvalues --   -0.28835  -0.28825  -0.28527  -0.27577  -0.27521
 Alpha  occ. eigenvalues --   -0.27036  -0.26053  -0.23450  -0.21248
 Alpha virt. eigenvalues --   -0.08767  -0.06754  -0.02809  -0.01291   0.00693
 Alpha virt. eigenvalues --    0.01075   0.02113   0.03745   0.04059   0.04113
 Alpha virt. eigenvalues --    0.04803   0.05630   0.08142   0.08889   0.09328

 Mulliken charges:
               1
     1  Mg   0.821456
     2  C   -0.003959
     3  C   -0.195173
     4  C   -0.183899
     5  C   -0.172076
     6  N   -0.618645
     7  C    0.294395
     8  C   -0.146693
     9  C   -0.124301
    10  C    0.365115
    11  C   -0.296055
    12  C   -0.187534
    13  C   -0.264351
    14  C    0.619625
    15  O   -0.489918
    16  O   -0.460626
    17  N   -0.743335
    18  C    0.327278
    19  C    0.036412
    20  C    0.015181
    21  C    0.300312
    22  C   -0.347482
    23  C    0.223705
    24  O   -0.408461
    25  N   -0.661556
    26  C    0.261995
    27  C   -0.008109
    28  C    0.009825
    29  C    0.291154
    30  C    0.237651
    31  C   -0.230798
    32  C   -0.309662
    33  N   -0.708023
    34  C    0.269400
    35  C    0.068371
    36  C    0.012819
    37  C    0.342848
    38  C   -0.401032
    39  C    0.333679
    40  O   -0.490922
    41  C   -0.291851
    42  C    0.621478
    43  O   -0.484595
    44  O   -0.420083
    45  C   -0.085983
    46  C    0.021425
    47  C   -0.144917
    48  C    0.146951
    49  C   -0.393808
    50  C   -0.216594
    51  C   -0.183303
    52  C   -0.168010
    53  C   -0.053553
    54  C   -0.290441
    55  C   -0.149371
    56  C   -0.169029
    57  C   -0.148076
    58  C   -0.078163
    59  C   -0.308362
    60  C   -0.170848
    61  C   -0.174288
    62  C   -0.169247
    63  C   -0.041692
    64  C   -0.320827
    65  C   -0.292948
    66  H    0.085210
    67  H    0.143085
    68  H    0.097921
    69  H    0.122934
    70  H    0.101485
    71  H    0.108001
    72  H    0.103841
    73  H    0.110803
    74  H    0.121660
    75  H    0.098295
    76  H    0.142124
    77  H    0.152687
    78  H    0.118898
    79  H    0.140887
    80  H    0.093875
    81  H    0.086403
    82  H    0.091082
    83  H    0.109162
    84  H    0.122005
    85  H    0.121305
    86  H    0.101478
    87  H    0.136894
    88  H    0.155493
    89  H    0.114768
    90  H    0.175667
    91  H    0.100347
    92  H    0.120918
    93  H    0.064969
    94  H    0.154363
    95  H    0.088521
    96  H    0.130708
    97  H    0.095981
    98  H    0.090729
    99  H    0.086968
   100  H    0.108253
   101  H    0.078847
   102  H    0.089662
   103  H    0.046881
   104  H    0.108452
   105  H    0.095942
   106  H    0.086531
   107  H    0.078595
   108  H    0.098714
   109  H    0.078071
   110  H    0.096831
   111  H    0.047532
   112  H    0.059104
   113  H    0.082882
   114  H    0.084831
   115  H    0.103359
   116  H    0.105174
   117  H    0.091364
   118  H    0.097218
   119  H    0.093882
   120  H    0.097065
   121  H    0.105110
   122  H    0.051327
   123  H    0.073937
   124  H    0.115687
   125  H    0.101459
   126  H    0.108161
   127  H    0.099810
   128  H    0.087945
   129  H    0.076798
   130  H    0.139546
   131  H    0.129650
   132  H    0.109274
   133  O   -0.405167
   134  H    0.075328
 Sum of Mulliken charges =   0.00000

 Dipole moment (field-independent basis, Debye):
    X=              0.9160    Y=             -2.9386    Z=             -1.0447  Tot=              3.2505
 Quadrupole moment (field-independent basis, Debye-Ang):
   XX=           -386.9059   YY=           -432.3704   ZZ=           -393.1081
   XY=              0.7012   XZ=             16.2976   YZ=            -36.6079

 Normal termination of Gaussian 09 at Thu Oct  3 16:04:27 2019.
