 Gaussian 09, Revision D.01,
 Gaussian 09:  ES64L-G09RevD.01 24-Apr-2013

 ----------------------------------------------------------------------
 # td=(NStates=1) iop(3/107=0140000000,3/108=0140000000) iop(3/107=0140
 000000,3/108=0140000000) CAM-B3LYP/6-31G(d,p)
 ----------------------------------------------------------------------

 --
 TD
 --
 Symbolic Z-matrix:
 Charge =  0 Multiplicity = 1

                         Standard orientation:
 ---------------------------------------------------------------------
 Center     Atomic      Atomic             Coordinates (Angstroms)
 Number     Number       Type             X           Y           Z
 ---------------------------------------------------------------------
      1         12           0       -5.605543    1.305508    0.269327
      2          6           0       -5.070045   -2.148610   -0.343539
      3          6           0       -3.354278    1.166980    2.733141
      4          6           0       -6.188629    4.556475    0.652612
      5          6           0       -7.851641    1.252425   -2.349753
      6          7           0       -4.304881   -0.236435    0.929707
      7          6           0       -4.220789   -1.526191    0.622616
      8          6           0       -3.220939   -2.234580    1.448176
      9          6           0       -2.900863   -1.281061    2.651900
     10          6           0       -3.558530   -0.023495    2.045365
     11          6           0       -3.474325   -1.751095    3.991164
     12          6           0       -1.997569   -2.777578    0.503554
     13          6           0       -0.965897   -3.598958    1.357178
     14          6           0        0.245965   -3.820919    0.552679
     15          8           0        0.531440   -3.481338   -0.557818
     16          8           0        0.944360   -4.731135    1.364863
     17          7           0       -4.941161    2.577616    1.486456
     18          6           0       -3.924200    2.418341    2.457848
     19          6           0       -3.736994    3.617371    3.272790
     20          6           0       -4.497416    4.606998    2.656258
     21          6           0       -5.256788    3.937563    1.547030
     22          6           0       -2.707225    3.744979    4.327479
     23          6           0       -4.548528    6.021924    2.935696
     24          8           0       -3.890420    6.529031    3.862656
     25          7           0       -6.740843    2.672264   -0.738623
     26          6           0       -6.843256    4.019679   -0.405304
     27          6           0       -7.780097    4.661000   -1.255313
     28          6           0       -8.303293    3.726680   -2.143745
     29          6           0       -7.664660    2.470808   -1.794207
     30          6           0       -8.224095    6.055836   -1.169386
     31          6           0       -9.275307    3.910889   -3.222992
     32          6           0       -8.578849    3.986149   -4.579852
     33          7           0       -6.411088   -0.089695   -0.992467
     34          6           0       -7.281420    0.095868   -2.045634
     35          6           0       -7.594720   -1.239422   -2.661210
     36          6           0       -6.665540   -2.130749   -2.083770
     37          6           0       -6.057828   -1.382160   -1.052244
     38          6           0       -8.492591   -1.672203   -3.858090
     39          6           0       -6.269577   -3.546605   -1.962652
     40          8           0       -6.600871   -4.540069   -2.664401
     41          6           0       -5.143663   -3.574162   -0.897172
     42          6           0       -5.497527   -4.585758    0.116499
     43          8           0       -5.733964   -4.353745    1.298166
     44          8           0       -5.223399   -5.836360   -0.357949
     45          6           0       -5.604850   -6.966951    0.387951
     46          6           0        2.243881   -5.151969    0.813906
     47          6           0        3.310995   -4.169735    0.998478
     48          6           0        3.960232   -3.279889    0.214973
     49          6           0        3.750744   -3.388894   -1.264636
     50          6           0        5.085104   -2.394163    0.786709
     51          6           0        6.441967   -2.822197    0.086762
     52          6           0        7.601133   -1.846016    0.616693
     53          6           0        8.869628   -2.009951   -0.105007
     54          6           0        9.529251   -3.436981    0.061131
     55          6           0        9.939752   -0.976350    0.563813
     56          6           0       11.169480   -0.704482   -0.384327
     57          6           0       12.120751    0.351197    0.107928
     58          6           0       13.473604    0.452625   -0.549377
     59          6           0       14.314486   -0.768576   -0.371307
     60          6           0       14.234552    1.810185   -0.100066
     61          6           0       15.496883    1.972188   -0.970074
     62          6           0       16.040062    3.465277   -0.628912
     63          6           0       17.318780    3.810320   -1.421416
     64          6           0       17.250164    4.047436   -2.846235
     65          6           0       17.877462    5.091865   -0.820323
     66          1           0       -2.660844    1.276954    3.599165
     67          1           0       -6.185600    5.692307    0.665544
     68          1           0       -8.440637    1.480853   -3.176620
     69          1           0       -3.626526   -3.275273    1.659762
     70          1           0       -1.843405   -1.145970    2.615747
     71          1           0       -2.987987   -2.662232    4.406158
     72          1           0       -3.722779   -0.805429    4.651499
     73          1           0       -4.618059   -1.921323    3.687781
     74          1           0       -2.393386   -3.497241   -0.223957
     75          1           0       -1.234688   -1.919186    0.026852
     76          1           0       -0.280969   -2.960087    2.129349
     77          1           0       -1.301329   -4.488842    1.701160
     78          1           0       -1.602340    3.278446    4.108043
     79          1           0       -2.445797    4.696344    4.863318
     80          1           0       -2.910360    3.269623    5.232878
     81          1           0       -5.310332    6.663328    2.505850
     82          1           0      -10.060872    3.379335   -3.163492
     83          1           0      -10.040085    4.887049   -3.207295
     84          1           0       -9.206216    4.158198   -5.397237
     85          1           0       -7.838289    4.814869   -4.412826
     86          1           0       -7.876565    3.111052   -4.650320
     87          1           0       -8.217279   -1.199573   -4.995988
     88          1           0       -8.452340   -2.711001   -4.061727
     89          1           0       -9.546031   -1.564570   -3.719281
     90          1           0       -4.244640   -3.971374   -1.384054
     91          1           0        2.493269   -6.162475    1.286098
     92          1           0        2.133457   -5.134463   -0.329943
     93          1           0        3.695091   -4.204416    2.191503
     94          1           0        2.650183   -3.602443   -1.257417
     95          1           0        4.216630   -2.522175   -1.931740
     96          1           0        4.365861   -4.540653   -1.631567
     97          1           0        4.849538   -1.456862    0.495444
     98          1           0        5.187308   -2.331428    1.945196
     99          1           0        6.903236   -3.832720    0.467556
    100          1           0        6.387380   -2.796642   -0.938516
    101          1           0        7.316446   -0.775781    0.335781
    102          1           0        7.815451   -1.948344    1.698966
    103          1           0        8.812569   -1.639928   -1.150746
    104          1           0        8.773401   -4.227008   -0.503451
    105          1           0       10.498342   -3.812057   -0.343971
    106          1           0        9.529495   -3.689974    1.151962
    107          1           0        9.569382    0.192424    0.684720
    108          1           0       10.172560   -1.225655    1.643855
    109          1           0       11.740834   -1.619213   -0.195242
    110          1           0       10.907859   -0.571870   -1.217185
    111          1           0       11.704166    1.418166    0.008936
    112          1           0       12.307139    0.432314    1.270791
    113          1           0       13.393242    0.652274   -1.614763
    114          1           0       14.885885   -0.893245    0.518418
    115          1           0       13.802182   -1.681437   -0.580059
    116          1           0       15.108582   -0.880932   -1.170687
    117          1           0       13.480255    2.690004   -0.203938
    118          1           0       14.435855    1.764424    0.969759
    119          1           0       16.323678    1.427281   -0.667311
    120          1           0       15.287504    2.049178   -2.039400
    121          1           0       15.318768    4.333418   -1.122063
    122          1           0       16.207517    3.598074    0.348644
    123          1           0       17.981731    3.130825   -1.099826
    124          1           0       16.512460    4.790126   -3.230519
    125          1           0       18.093179    4.392463   -3.449570
    126          1           0       16.816100    3.118260   -3.452224
    127          1           0       17.909755    5.008678    0.313222
    128          1           0       18.973357    5.472771   -1.200446
    129          1           0       17.261021    6.005587   -1.016963
    130          1           0       -5.593457   -7.742380   -0.310868
    131          1           0       -6.739482   -6.855576    0.623539
    132          1           0       -5.166724   -7.116397    1.417989
    133          8           0       -7.652410    6.875728   -0.415906
    134          1           0       -9.356874    6.124178   -1.781301
 ---------------------------------------------------------------------

 SCF Done:  E(RCAM-B3LYP) =  -3043.39803679     A.U. after   16 cycles

 Excitation energies and oscillator strengths:

 Excited State   1:      Singlet-A      1.9858 eV  624.34 nm  f=0.1787  <S**2>=0.000
     243 -> 246        0.28164
     244 -> 245        0.64049
 This state for optimization and/or second-order correction.
 Total Energy, E(TD-HF/TD-KS) =  -3043.32505874
 Copying the excited state density for this state as the 1-particle RhoCI density.

 The electronic state is 1-A.
 Alpha  occ. eigenvalues --  -46.80267 -19.22909 -19.21570 -19.19033 -19.18125
 Alpha  occ. eigenvalues --  -19.17920 -19.17692 -19.16304 -14.39411 -14.37264
 Alpha  occ. eigenvalues --  -14.36871 -14.36489 -10.35725 -10.35354 -10.32469
 Alpha  occ. eigenvalues --  -10.32081 -10.29618 -10.27926 -10.27852 -10.27777
 Alpha  occ. eigenvalues --  -10.27768 -10.27357 -10.27054 -10.26675 -10.26602
 Alpha  occ. eigenvalues --  -10.26097 -10.25765 -10.25738 -10.25562 -10.25539
 Alpha  occ. eigenvalues --  -10.25379 -10.24855 -10.24535 -10.24456 -10.24365
 Alpha  occ. eigenvalues --  -10.24296 -10.24214 -10.24089 -10.23902 -10.23676
 Alpha  occ. eigenvalues --  -10.23488 -10.23469 -10.23342 -10.23215 -10.22965
 Alpha  occ. eigenvalues --  -10.22877 -10.22846 -10.22764 -10.22608 -10.22440
 Alpha  occ. eigenvalues --  -10.22399 -10.22250 -10.22133 -10.21952 -10.21693
 Alpha  occ. eigenvalues --  -10.21447 -10.21414 -10.21045 -10.20927 -10.20919
 Alpha  occ. eigenvalues --  -10.20877 -10.20789 -10.20644 -10.20144 -10.19167
 Alpha  occ. eigenvalues --  -10.18675  -3.09267  -1.84159  -1.83743  -1.83726
 Alpha  occ. eigenvalues --   -1.13768  -1.12888  -1.05608  -1.05535  -1.05188
 Alpha  occ. eigenvalues --   -1.05164  -1.04768  -1.01823  -1.00381  -0.98702
 Alpha  occ. eigenvalues --   -0.97730  -0.89190  -0.86461  -0.85850  -0.85347
 Alpha  occ. eigenvalues --   -0.85111  -0.84870  -0.84509  -0.84375  -0.83497
 Alpha  occ. eigenvalues --   -0.83368  -0.82569  -0.82272  -0.80801  -0.79769
 Alpha  occ. eigenvalues --   -0.79410  -0.78384  -0.77982  -0.77539  -0.76213
 Alpha  occ. eigenvalues --   -0.75166  -0.74716  -0.73786  -0.73413  -0.72442
 Alpha  occ. eigenvalues --   -0.70810  -0.70374  -0.69979  -0.69865  -0.69662
 Alpha  occ. eigenvalues --   -0.68675  -0.68309  -0.67714  -0.67123  -0.66323
 Alpha  occ. eigenvalues --   -0.66135  -0.65044  -0.64488  -0.62636  -0.62160
 Alpha  occ. eigenvalues --   -0.61675  -0.60884  -0.60644  -0.59661  -0.59432
 Alpha  occ. eigenvalues --   -0.59072  -0.58925  -0.58156  -0.57839  -0.57152
 Alpha  occ. eigenvalues --   -0.56313  -0.56104  -0.55608  -0.55330  -0.55087
 Alpha  occ. eigenvalues --   -0.54413  -0.53768  -0.53203  -0.52885  -0.52048
 Alpha  occ. eigenvalues --   -0.51733  -0.51497  -0.51290  -0.50865  -0.50777
 Alpha  occ. eigenvalues --   -0.50570  -0.50057  -0.49804  -0.49483  -0.49284
 Alpha  occ. eigenvalues --   -0.49124  -0.48480  -0.48432  -0.47821  -0.47727
 Alpha  occ. eigenvalues --   -0.47384  -0.47008  -0.46934  -0.46697  -0.46420
 Alpha  occ. eigenvalues --   -0.46337  -0.46295  -0.45871  -0.45806  -0.45658
 Alpha  occ. eigenvalues --   -0.45391  -0.45218  -0.45121  -0.44697  -0.44553
 Alpha  occ. eigenvalues --   -0.44521  -0.44280  -0.43928  -0.43443  -0.43308
 Alpha  occ. eigenvalues --   -0.43195  -0.43153  -0.42968  -0.42444  -0.42376
 Alpha  occ. eigenvalues --   -0.42241  -0.41993  -0.41846  -0.41718  -0.41499
 Alpha  occ. eigenvalues --   -0.41422  -0.41245  -0.41195  -0.41025  -0.40724
 Alpha  occ. eigenvalues --   -0.40597  -0.40558  -0.40382  -0.40135  -0.40034
 Alpha  occ. eigenvalues --   -0.39924  -0.39568  -0.39477  -0.39315  -0.39227
 Alpha  occ. eigenvalues --   -0.39141  -0.38763  -0.38579  -0.38310  -0.38267
 Alpha  occ. eigenvalues --   -0.37913  -0.37780  -0.37648  -0.37538  -0.37053
 Alpha  occ. eigenvalues --   -0.36707  -0.36701  -0.36369  -0.36265  -0.35730
 Alpha  occ. eigenvalues --   -0.35710  -0.35515  -0.35244  -0.35085  -0.34921
 Alpha  occ. eigenvalues --   -0.34454  -0.34424  -0.33931  -0.33223  -0.33214
 Alpha  occ. eigenvalues --   -0.32668  -0.32368  -0.31949  -0.31635  -0.31560
 Alpha  occ. eigenvalues --   -0.31445  -0.31240  -0.30600  -0.29976  -0.29313
 Alpha  occ. eigenvalues --   -0.28872  -0.28549  -0.28460  -0.28132  -0.27867
 Alpha  occ. eigenvalues --   -0.27208  -0.26137  -0.23074  -0.21744
 Alpha virt. eigenvalues --   -0.08863  -0.06881  -0.02405  -0.01337  -0.00274
 Alpha virt. eigenvalues --    0.01864   0.02464   0.03486   0.03669   0.03959
 Alpha virt. eigenvalues --    0.04774   0.05621   0.07202   0.07935   0.08150

 Mulliken charges:
               1
     1  Mg   0.844489
     2  C    0.056285
     3  C   -0.182218
     4  C   -0.195870
     5  C   -0.138278
     6  N   -0.626475
     7  C    0.361040
     8  C   -0.180001
     9  C   -0.110690
    10  C    0.301161
    11  C   -0.303049
    12  C   -0.191119
    13  C   -0.235325
    14  C    0.603958
    15  O   -0.449190
    16  O   -0.491123
    17  N   -0.737364
    18  C    0.277831
    19  C    0.089691
    20  C   -0.012519
    21  C    0.299057
    22  C   -0.409729
    23  C    0.218651
    24  O   -0.428543
    25  N   -0.712285
    26  C    0.334272
    27  C   -0.012935
    28  C    0.047467
    29  C    0.259933
    30  C    0.248237
    31  C   -0.243397
    32  C   -0.309651
    33  N   -0.704209
    34  C    0.291518
    35  C    0.012452
    36  C    0.027507
    37  C    0.307443
    38  C   -0.381487
    39  C    0.372085
    40  O   -0.474002
    41  C   -0.330744
    42  C    0.622576
    43  O   -0.466460
    44  O   -0.438693
    45  C   -0.086480
    46  C   -0.007270
    47  C   -0.101522
    48  C    0.121197
    49  C   -0.355758
    50  C   -0.212733
    51  C   -0.180517
    52  C   -0.162501
    53  C   -0.055082
    54  C   -0.312885
    55  C   -0.190731
    56  C   -0.121264
    57  C   -0.182019
    58  C   -0.044147
    59  C   -0.322974
    60  C   -0.182913
    61  C   -0.174903
    62  C   -0.174167
    63  C   -0.035488
    64  C   -0.309393
    65  C   -0.305736
    66  H    0.090465
    67  H    0.137296
    68  H    0.080041
    69  H    0.122536
    70  H    0.114010
    71  H    0.128004
    72  H    0.109086
    73  H    0.114058
    74  H    0.118492
    75  H    0.105382
    76  H    0.131207
    77  H    0.150739
    78  H    0.103000
    79  H    0.159735
    80  H    0.136612
    81  H    0.097462
    82  H    0.129780
    83  H    0.075812
    84  H    0.122230
    85  H    0.116701
    86  H    0.110465
    87  H    0.097509
    88  H    0.156952
    89  H    0.130289
    90  H    0.180357
    91  H    0.118592
    92  H    0.104886
    93  H    0.039429
    94  H    0.159124
    95  H    0.101038
    96  H    0.069598
    97  H    0.116183
    98  H    0.092830
    99  H    0.097131
   100  H    0.108067
   101  H    0.087798
   102  H    0.092322
   103  H    0.086124
   104  H    0.071711
   105  H    0.113934
   106  H    0.102162
   107  H    0.048337
   108  H    0.085756
   109  H    0.100024
   110  H    0.085447
   111  H    0.067262
   112  H    0.068329
   113  H    0.083469
   114  H    0.104788
   115  H    0.104008
   116  H    0.088310
   117  H    0.083664
   118  H    0.091148
   119  H    0.109486
   120  H    0.106066
   121  H    0.058250
   122  H    0.099914
   123  H    0.099977
   124  H    0.099695
   125  H    0.111995
   126  H    0.067652
   127  H    0.082195
   128  H    0.071324
   129  H    0.097309
   130  H    0.138743
   131  H    0.109716
   132  H    0.127494
   133  O   -0.432854
   134  H    0.050339
 Sum of Mulliken charges =   0.00000

 Dipole moment (field-independent basis, Debye):
    X=              1.1886    Y=             -5.1011    Z=             -1.0526  Tot=              5.3425
 Quadrupole moment (field-independent basis, Debye-Ang):
   XX=           -370.7112   YY=           -441.6979   ZZ=           -393.2227
   XY=              5.2065   XZ=             22.4867   YZ=            -33.7629

 Normal termination of Gaussian 09 at Tue Oct  8 14:22:24 2019.
