 Gaussian 09, Revision D.01,
 Gaussian 09:  ES64L-G09RevD.01 24-Apr-2013

 ----------------------------------------------------------------------
 # td=(NStates=1) iop(3/107=0140000000,3/108=0140000000) iop(3/107=0140
 000000,3/108=0140000000) CAM-B3LYP/6-31G(d,p)
 ----------------------------------------------------------------------

 --
 TD
 --
 Symbolic Z-matrix:
 Charge =  0 Multiplicity = 1

                         Standard orientation:
 ---------------------------------------------------------------------
 Center     Atomic      Atomic             Coordinates (Angstroms)
 Number     Number       Type             X           Y           Z
 ---------------------------------------------------------------------
      1         12           0       -5.711875    1.169578    0.208639
      2          6           0       -5.035973   -2.185229   -0.339017
      3          6           0       -3.360583    1.218112    2.842294
      4          6           0       -6.285406    4.529985    0.710473
      5          6           0       -7.973692    1.143480   -2.427506
      6          7           0       -4.505692   -0.273545    1.093864
      7          6           0       -4.344221   -1.689810    0.778498
      8          6           0       -3.203722   -2.273870    1.461795
      9          6           0       -2.851101   -1.207113    2.617628
     10          6           0       -3.601394   -0.020938    2.186173
     11          6           0       -3.306060   -1.781033    4.012288
     12          6           0       -2.010640   -2.679855    0.531232
     13          6           0       -0.864093   -3.482564    1.335404
     14          6           0        0.299296   -3.782411    0.555055
     15          8           0        0.523036   -3.387836   -0.487051
     16          8           0        1.116317   -4.658620    1.196671
     17          7           0       -5.021378    2.575835    1.461034
     18          6           0       -4.080541    2.466199    2.464208
     19          6           0       -3.844963    3.676554    3.167361
     20          6           0       -4.623629    4.689084    2.596035
     21          6           0       -5.299055    3.916317    1.512825
     22          6           0       -2.957125    3.735169    4.280519
     23          6           0       -4.894671    6.085512    2.850233
     24          8           0       -4.087569    6.617723    3.698831
     25          7           0       -6.937082    2.571554   -0.716658
     26          6           0       -7.086088    3.913016   -0.304798
     27          6           0       -7.948716    4.603646   -1.247868
     28          6           0       -8.607575    3.604733   -2.147167
     29          6           0       -7.928603    2.416914   -1.754562
     30          6           0       -8.279755    6.027294   -1.244488
     31          6           0       -9.588781    3.813323   -3.125474
     32          6           0       -8.944765    3.907615   -4.555360
     33          7           0       -6.367326   -0.132782   -1.070404
     34          6           0       -7.328212   -0.028832   -2.119247
     35          6           0       -7.476029   -1.355948   -2.726769
     36          6           0       -6.590093   -2.178862   -2.066618
     37          6           0       -5.998813   -1.534082   -0.997522
     38          6           0       -8.378440   -1.715345   -3.883644
     39          6           0       -6.094780   -3.620831   -2.025606
     40          8           0       -6.458330   -4.606162   -2.757094
     41          6           0       -5.045781   -3.567738   -0.867050
     42          6           0       -5.307631   -4.664912    0.246518
     43          8           0       -5.640255   -4.482125    1.394623
     44          8           0       -5.148192   -5.894531   -0.300113
     45          6           0       -5.440867   -6.882632    0.625746
     46          6           0        2.264695   -5.021648    0.569233
     47          6           0        3.442958   -4.131508    0.867677
     48          6           0        4.182851   -3.215039    0.127058
     49          6           0        3.839713   -3.113914   -1.327693
     50          6           0        5.244610   -2.317028    0.649253
     51          6           0        6.578702   -2.707961    0.091081
     52          6           0        7.667211   -1.823910    0.563891
     53          6           0        9.074824   -2.011210   -0.098305
     54          6           0        9.612660   -3.393105    0.094544
     55          6           0       10.069098   -0.938955    0.437067
     56          6           0       11.411884   -0.848846   -0.193572
     57          6           0       12.301947    0.330430    0.290059
     58          6           0       13.591722    0.457135   -0.494226
     59          6           0       14.491376   -0.703078   -0.239734
     60          6           0       14.230394    1.905475   -0.243119
     61          6           0       15.520778    2.172280   -0.998918
     62          6           0       16.156130    3.573829   -0.685105
     63          6           0       17.329853    3.983085   -1.420944
     64          6           0       17.119973    4.045399   -2.962226
     65          6           0       18.064496    5.225820   -0.761201
     66          1           0       -2.763219    1.333185    3.617590
     67          1           0       -6.382664    5.603414    0.940323
     68          1           0       -8.816556    1.064017   -3.383877
     69          1           0       -3.661121   -3.135392    2.069964
     70          1           0       -1.753621   -0.836879    2.788612
     71          1           0       -2.903442   -2.683275    4.355999
     72          1           0       -3.243489   -0.993617    4.702426
     73          1           0       -4.253722   -2.243795    3.909378
     74          1           0       -2.366613   -3.329559   -0.201565
     75          1           0       -1.665992   -1.889721    0.064432
     76          1           0       -0.526799   -2.929644    2.277169
     77          1           0       -1.270579   -4.414584    1.771024
     78          1           0       -1.835143    3.346689    4.017061
     79          1           0       -2.759655    4.700923    4.612676
     80          1           0       -3.212078    3.109961    5.318701
     81          1           0       -5.742986    6.359632    2.297246
     82          1           0      -10.168875    3.052504   -3.240544
     83          1           0      -10.296541    4.549633   -2.765417
     84          1           0       -9.698686    3.926471   -5.401518
     85          1           0       -8.372968    4.879603   -4.488301
     86          1           0       -8.396678    2.884967   -4.660462
     87          1           0       -7.995950   -1.270301   -4.757092
     88          1           0       -8.340354   -2.843389   -4.089862
     89          1           0       -9.397601   -1.348492   -3.696818
     90          1           0       -4.177143   -3.839364   -1.285577
     91          1           0        2.657202   -6.103365    1.027561
     92          1           0        2.190658   -5.153631   -0.526572
     93          1           0        3.707811   -4.101676    1.992293
     94          1           0        2.747677   -3.439460   -1.726049
     95          1           0        3.942132   -2.090989   -1.461215
     96          1           0        4.758046   -3.538136   -1.766769
     97          1           0        5.006513   -1.251017    0.315837
     98          1           0        5.270150   -2.434004    1.847073
     99          1           0        6.884502   -3.755333    0.310215
    100          1           0        6.696947   -2.728511   -0.940885
    101          1           0        7.493850   -0.591140    0.440749
    102          1           0        7.856835   -2.064783    1.578589
    103          1           0        8.946660   -1.857497   -1.288785
    104          1           0        8.759057   -4.208955   -0.172297
    105          1           0       10.608619   -3.673288   -0.403718
    106          1           0        9.672628   -3.522539    1.107705
    107          1           0        9.645720    0.140920    0.532433
    108          1           0       10.331398   -1.209748    1.549023
    109          1           0       11.882414   -1.708819   -0.029752
    110          1           0       11.384943   -0.580081   -1.335928
    111          1           0       11.637628    1.074157    0.402324
    112          1           0       12.562810   -0.036111    1.294169
    113          1           0       13.216000    0.300327   -1.451299
    114          1           0       14.646708   -0.754958    0.859806
    115          1           0       13.979069   -1.666530   -0.662783
    116          1           0       15.322348   -0.752984   -0.756206
    117          1           0       13.468453    2.650711   -0.316010
    118          1           0       14.408840    1.751096    0.896222
    119          1           0       16.396012    1.349215   -0.823337
    120          1           0       15.355615    1.956922   -2.109203
    121          1           0       15.452567    4.398224   -0.711192
    122          1           0       16.306088    3.597883    0.500919
    123          1           0       18.051307    3.150984   -1.238631
    124          1           0       16.490327    4.879305   -3.147806
    125          1           0       18.082150    4.300349   -3.498321
    126          1           0       16.772532    3.156289   -3.411494
    127          1           0       18.289909    5.029577    0.293332
    128          1           0       18.904012    5.619731   -1.365591
    129          1           0       17.213797    6.172306   -0.519991
    130          1           0       -5.125083   -7.906691    0.051541
    131          1           0       -6.559594   -6.930398    0.918610
    132          1           0       -4.741538   -6.962898    1.629728
    133          8           0       -7.880493    6.876537   -0.470663
    134          1           0       -9.084737    6.127110   -1.974468
 ---------------------------------------------------------------------

 SCF Done:  E(RCAM-B3LYP) =  -3043.44659734     A.U. after   16 cycles

 Excitation energies and oscillator strengths:

 Excited State   1:      Singlet-A      1.9584 eV  633.08 nm  f=0.1297  <S**2>=0.000
     243 -> 246       -0.30029
     244 -> 245        0.63031
 This state for optimization and/or second-order correction.
 Total Energy, E(TD-HF/TD-KS) =  -3043.37462588
 Copying the excited state density for this state as the 1-particle RhoCI density.

 The electronic state is 1-A.
 Alpha  occ. eigenvalues --  -46.79887 -19.24621 -19.21860 -19.19358 -19.18236
 Alpha  occ. eigenvalues --  -19.17856 -19.17666 -19.16818 -14.39579 -14.37745
 Alpha  occ. eigenvalues --  -14.37148 -14.36274 -10.36906 -10.34486 -10.33129
 Alpha  occ. eigenvalues --  -10.30939 -10.30056 -10.29532 -10.28783 -10.28278
 Alpha  occ. eigenvalues --  -10.28243 -10.27181 -10.26817 -10.26755 -10.26743
 Alpha  occ. eigenvalues --  -10.26692 -10.26680 -10.25770 -10.25748 -10.25692
 Alpha  occ. eigenvalues --  -10.25526 -10.25453 -10.24901 -10.24696 -10.24445
 Alpha  occ. eigenvalues --  -10.24268 -10.24016 -10.23841 -10.23623 -10.23516
 Alpha  occ. eigenvalues --  -10.23499 -10.23102 -10.23032 -10.22958 -10.22936
 Alpha  occ. eigenvalues --  -10.22840 -10.22726 -10.22719 -10.22682 -10.22369
 Alpha  occ. eigenvalues --  -10.21992 -10.21905 -10.21786 -10.21716 -10.21466
 Alpha  occ. eigenvalues --  -10.21458 -10.21175 -10.21137 -10.21006 -10.20797
 Alpha  occ. eigenvalues --  -10.20685 -10.20620 -10.19829 -10.19705 -10.19631
 Alpha  occ. eigenvalues --  -10.19133  -3.08760  -1.83669  -1.83238  -1.83199
 Alpha  occ. eigenvalues --   -1.16973  -1.16288  -1.08597  -1.07193  -1.06325
 Alpha  occ. eigenvalues --   -1.04315  -1.03755  -1.00114  -0.98399  -0.97040
 Alpha  occ. eigenvalues --   -0.96336  -0.90168  -0.86734  -0.86494  -0.85790
 Alpha  occ. eigenvalues --   -0.85581  -0.84751  -0.84235  -0.83946  -0.83556
 Alpha  occ. eigenvalues --   -0.83282  -0.82426  -0.82289  -0.80904  -0.80174
 Alpha  occ. eigenvalues --   -0.78991  -0.78165  -0.77700  -0.77147  -0.76902
 Alpha  occ. eigenvalues --   -0.75871  -0.75304  -0.74662  -0.73139  -0.72248
 Alpha  occ. eigenvalues --   -0.71231  -0.71035  -0.70876  -0.70794  -0.70424
 Alpha  occ. eigenvalues --   -0.69545  -0.69418  -0.68532  -0.67456  -0.67224
 Alpha  occ. eigenvalues --   -0.66809  -0.65239  -0.63822  -0.62755  -0.62215
 Alpha  occ. eigenvalues --   -0.62051  -0.60656  -0.60299  -0.59623  -0.59404
 Alpha  occ. eigenvalues --   -0.58967  -0.58119  -0.58050  -0.57634  -0.57442
 Alpha  occ. eigenvalues --   -0.56630  -0.55889  -0.55508  -0.55209  -0.55124
 Alpha  occ. eigenvalues --   -0.54515  -0.54143  -0.53270  -0.52983  -0.52621
 Alpha  occ. eigenvalues --   -0.52368  -0.52124  -0.52033  -0.51432  -0.51351
 Alpha  occ. eigenvalues --   -0.50463  -0.50275  -0.49900  -0.49764  -0.49363
 Alpha  occ. eigenvalues --   -0.48848  -0.48673  -0.48259  -0.48195  -0.47678
 Alpha  occ. eigenvalues --   -0.47600  -0.47487  -0.47404  -0.47309  -0.47097
 Alpha  occ. eigenvalues --   -0.46902  -0.46736  -0.46551  -0.46293  -0.46127
 Alpha  occ. eigenvalues --   -0.45733  -0.45613  -0.45480  -0.45100  -0.44896
 Alpha  occ. eigenvalues --   -0.44683  -0.44555  -0.44278  -0.44043  -0.43979
 Alpha  occ. eigenvalues --   -0.43560  -0.43476  -0.43208  -0.42889  -0.42704
 Alpha  occ. eigenvalues --   -0.42608  -0.42450  -0.42389  -0.42155  -0.41912
 Alpha  occ. eigenvalues --   -0.41791  -0.41356  -0.41192  -0.41096  -0.40917
 Alpha  occ. eigenvalues --   -0.40695  -0.40414  -0.40312  -0.40264  -0.40144
 Alpha  occ. eigenvalues --   -0.39846  -0.39714  -0.39631  -0.39407  -0.39228
 Alpha  occ. eigenvalues --   -0.39190  -0.39175  -0.38773  -0.38605  -0.38332
 Alpha  occ. eigenvalues --   -0.38120  -0.38061  -0.37843  -0.37767  -0.37640
 Alpha  occ. eigenvalues --   -0.37620  -0.36738  -0.36356  -0.36235  -0.35722
 Alpha  occ. eigenvalues --   -0.35476  -0.35463  -0.35232  -0.34949  -0.34844
 Alpha  occ. eigenvalues --   -0.34566  -0.34480  -0.34238  -0.33909  -0.33330
 Alpha  occ. eigenvalues --   -0.33016  -0.32834  -0.32616  -0.32502  -0.32234
 Alpha  occ. eigenvalues --   -0.31812  -0.31735  -0.31028  -0.31008  -0.29905
 Alpha  occ. eigenvalues --   -0.28642  -0.28513  -0.28102  -0.27809  -0.27620
 Alpha  occ. eigenvalues --   -0.26529  -0.25705  -0.23250  -0.22033
 Alpha virt. eigenvalues --   -0.08982  -0.07631  -0.03094  -0.01972  -0.00023
 Alpha virt. eigenvalues --    0.01928   0.02965   0.04063   0.04260   0.04616
 Alpha virt. eigenvalues --    0.04959   0.05201   0.06914   0.07462   0.08744

 Mulliken charges:
               1
     1  Mg   0.814346
     2  C    0.046679
     3  C   -0.151474
     4  C   -0.185218
     5  C   -0.187501
     6  N   -0.624054
     7  C    0.296778
     8  C   -0.188640
     9  C   -0.160249
    10  C    0.359762
    11  C   -0.321650
    12  C   -0.155736
    13  C   -0.297641
    14  C    0.612944
    15  O   -0.416727
    16  O   -0.443190
    17  N   -0.684421
    18  C    0.302342
    19  C    0.068290
    20  C    0.031494
    21  C    0.279985
    22  C   -0.410776
    23  C    0.261858
    24  O   -0.453309
    25  N   -0.655505
    26  C    0.298391
    27  C   -0.066978
    28  C    0.077292
    29  C    0.268685
    30  C    0.260153
    31  C   -0.269179
    32  C   -0.305925
    33  N   -0.733043
    34  C    0.318916
    35  C   -0.000233
    36  C    0.018232
    37  C    0.282948
    38  C   -0.388483
    39  C    0.380560
    40  O   -0.477546
    41  C   -0.300841
    42  C    0.607127
    43  O   -0.454335
    44  O   -0.396198
    45  C   -0.086389
    46  C    0.008368
    47  C   -0.144748
    48  C    0.123250
    49  C   -0.361718
    50  C   -0.221752
    51  C   -0.175633
    52  C   -0.156270
    53  C   -0.049136
    54  C   -0.307226
    55  C   -0.169240
    56  C   -0.173674
    57  C   -0.170081
    58  C   -0.068121
    59  C   -0.299091
    60  C   -0.161613
    61  C   -0.173138
    62  C   -0.153413
    63  C   -0.042296
    64  C   -0.317625
    65  C   -0.304532
    66  H    0.067341
    67  H    0.122854
    68  H    0.076128
    69  H    0.126221
    70  H    0.106482
    71  H    0.118763
    72  H    0.116935
    73  H    0.127924
    74  H    0.116427
    75  H    0.138235
    76  H    0.140098
    77  H    0.139561
    78  H    0.100553
    79  H    0.159163
    80  H    0.103208
    81  H    0.118305
    82  H    0.123988
    83  H    0.119384
    84  H    0.108338
    85  H    0.122357
    86  H    0.107966
    87  H    0.142224
    88  H    0.147280
    89  H    0.126766
    90  H    0.170201
    91  H    0.086402
    92  H    0.109896
    93  H    0.051027
    94  H    0.132187
    95  H    0.111701
    96  H    0.116579
    97  H    0.105830
    98  H    0.090467
    99  H    0.101266
   100  H    0.108885
   101  H    0.062608
   102  H    0.096082
   103  H    0.058912
   104  H    0.075153
   105  H    0.105450
   106  H    0.114171
   107  H    0.072940
   108  H    0.068854
   109  H    0.106556
   110  H    0.064487
   111  H    0.090958
   112  H    0.076916
   113  H    0.084486
   114  H    0.096624
   115  H    0.083403
   116  H    0.112451
   117  H    0.102016
   118  H    0.077897
   119  H    0.072819
   120  H    0.088117
   121  H    0.088804
   122  H    0.068242
   123  H    0.081461
   124  H    0.110488
   125  H    0.090832
   126  H    0.112880
   127  H    0.115498
   128  H    0.108112
   129  H    0.046457
   130  H    0.104262
   131  H    0.131600
   132  H    0.104401
   133  O   -0.440189
   134  H    0.051460
 Sum of Mulliken charges =   0.00000

 Dipole moment (field-independent basis, Debye):
    X=              1.1706    Y=             -5.1987    Z=             -0.6077  Tot=              5.3634
 Quadrupole moment (field-independent basis, Debye-Ang):
   XX=           -371.8037   YY=           -449.3698   ZZ=           -393.1352
   XY=              8.9539   XZ=             18.3471   YZ=            -32.4877

 Normal termination of Gaussian 09 at Sat Oct  5 12:46:22 2019.
