 Gaussian 09, Revision D.01,
 Gaussian 09:  ES64L-G09RevD.01 24-Apr-2013

 ----------------------------------------------------------------------
 # td=(NStates=1) iop(3/107=0140000000,3/108=0140000000) iop(3/107=0140
 000000,3/108=0140000000) CAM-B3LYP/6-31G(d,p)
 ----------------------------------------------------------------------

 --
 TD
 --
 Symbolic Z-matrix:
 Charge =  0 Multiplicity = 1

                         Standard orientation:
 ---------------------------------------------------------------------
 Center     Atomic      Atomic             Coordinates (Angstroms)
 Number     Number       Type             X           Y           Z
 ---------------------------------------------------------------------
      1         12           0       -5.711587    1.250768    0.204499
      2          6           0       -5.012221   -2.165013   -0.285957
      3          6           0       -3.441754    1.150036    2.839809
      4          6           0       -6.158052    4.550558    0.516605
      5          6           0       -8.001586    1.211744   -2.428350
      6          7           0       -4.481310   -0.327513    1.155620
      7          6           0       -4.301952   -1.650842    0.675844
      8          6           0       -3.222026   -2.332205    1.467739
      9          6           0       -2.977837   -1.333933    2.600101
     10          6           0       -3.640425   -0.040500    2.188937
     11          6           0       -3.318672   -1.896647    4.027884
     12          6           0       -1.976680   -2.658337    0.697534
     13          6           0       -0.842101   -3.471757    1.342812
     14          6           0        0.324502   -3.858699    0.539541
     15          8           0        0.562651   -3.418321   -0.575626
     16          8           0        1.140656   -4.711966    1.159088
     17          7           0       -4.863980    2.709287    1.487951
     18          6           0       -4.009404    2.358532    2.453103
     19          6           0       -3.709938    3.641086    3.182676
     20          6           0       -4.639691    4.586010    2.619259
     21          6           0       -5.214720    3.999471    1.417580
     22          6           0       -2.855433    3.760368    4.398834
     23          6           0       -4.691922    6.064574    2.958544
     24          8           0       -4.042903    6.641087    3.856966
     25          7           0       -6.842795    2.624754   -0.741027
     26          6           0       -6.834809    3.911793   -0.419144
     27          6           0       -7.837129    4.615729   -1.225392
     28          6           0       -8.329168    3.649878   -2.048210
     29          6           0       -7.787635    2.413614   -1.725105
     30          6           0       -8.214060    5.991611   -1.278685
     31          6           0       -9.432073    3.789499   -3.084296
     32          6           0       -8.868881    4.052059   -4.520556
     33          7           0       -6.382296   -0.122829   -1.149358
     34          6           0       -7.302836   -0.038497   -2.041156
     35          6           0       -7.629625   -1.476036   -2.681775
     36          6           0       -6.742161   -2.218671   -2.017142
     37          6           0       -6.000053   -1.440912   -1.047684
     38          6           0       -8.539654   -1.798253   -3.807470
     39          6           0       -6.248747   -3.539283   -1.928693
     40          8           0       -6.468762   -4.557990   -2.599447
     41          6           0       -5.102369   -3.525081   -0.782278
     42          6           0       -5.309840   -4.688814    0.120172
     43          8           0       -5.854195   -4.449712    1.224983
     44          8           0       -4.900956   -5.855149   -0.321258
     45          6           0       -5.239603   -6.941858    0.462242
     46          6           0        2.374653   -5.068354    0.599497
     47          6           0        3.314479   -3.944065    1.014434
     48          6           0        4.004413   -3.184523    0.109222
     49          6           0        3.656987   -3.086125   -1.386546
     50          6           0        5.184042   -2.314903    0.587866
     51          6           0        6.518102   -2.684068    0.040170
     52          6           0        7.594040   -1.733496    0.537907
     53          6           0        8.990951   -1.918675   -0.008537
     54          6           0        9.496246   -3.339362    0.168839
     55          6           0       10.025310   -1.040266    0.714802
     56          6           0       11.291328   -0.835767   -0.234287
     57          6           0       12.207713    0.208685    0.246384
     58          6           0       13.558386    0.418957   -0.549641
     59          6           0       14.473665   -0.737323   -0.230448
     60          6           0       14.223351    1.812469   -0.177965
     61          6           0       15.523807    2.024478   -1.053074
     62          6           0       15.936020    3.577324   -0.704251
     63          6           0       17.299283    3.855178   -1.464423
     64          6           0       17.081319    4.085799   -2.968021
     65          6           0       17.882163    5.194122   -0.715668
     66          1           0       -2.795402    1.285401    3.580337
     67          1           0       -6.267408    5.628517    0.764561
     68          1           0       -8.806959    0.998892   -3.108535
     69          1           0       -3.587908   -3.323446    1.887920
     70          1           0       -1.929695   -1.221917    2.768860
     71          1           0       -2.890343   -2.777587    4.283215
     72          1           0       -3.069879   -1.056682    4.738773
     73          1           0       -4.386757   -1.967721    4.111059
     74          1           0       -2.466214   -3.040745   -0.240260
     75          1           0       -1.633770   -1.782517    0.095116
     76          1           0       -0.866695   -2.918140    2.263165
     77          1           0       -1.468737   -4.330252    1.866657
     78          1           0       -1.851200    3.543185    4.212556
     79          1           0       -2.814343    4.822454    4.530828
     80          1           0       -3.227566    3.143203    5.008603
     81          1           0       -5.379342    6.700884    2.452063
     82          1           0       -9.750599    2.932504   -3.282370
     83          1           0      -10.164728    4.665086   -2.846026
     84          1           0       -9.716100    4.031949   -5.240058
     85          1           0       -8.252086    4.977428   -4.724867
     86          1           0       -8.098058    3.269605   -4.826663
     87          1           0       -8.475879   -1.194901   -4.885301
     88          1           0       -7.952483   -2.795394   -4.014678
     89          1           0       -9.698024   -2.028933   -3.405224
     90          1           0       -4.231243   -3.808765   -1.683800
     91          1           0        2.769562   -5.969185    0.924952
     92          1           0        2.316685   -5.186894   -0.439542
     93          1           0        3.474406   -3.957286    2.242370
     94          1           0        2.680093   -3.429602   -1.503665
     95          1           0        3.620073   -2.024427   -1.815773
     96          1           0        4.448294   -3.623909   -2.050108
     97          1           0        5.094966   -1.209902    0.401368
     98          1           0        5.012664   -2.441826    1.693338
     99          1           0        6.571991   -3.737818    0.493821
    100          1           0        6.634964   -2.647296   -0.987882
    101          1           0        7.490729   -0.753125    0.084488
    102          1           0        7.494822   -1.770852    1.642026
    103          1           0        9.032784   -1.634071   -1.165611
    104          1           0        8.975310   -4.147995   -0.638329
    105          1           0       10.612945   -3.345020   -0.170026
    106          1           0        9.514446   -3.610039    1.115416
    107          1           0        9.535817    0.004014    1.119796
    108          1           0       10.494270   -1.399820    1.691991
    109          1           0       11.703580   -1.985860   -0.394283
    110          1           0       10.876855   -0.438330   -1.295664
    111          1           0       11.707560    1.225688    0.328550
    112          1           0       12.536935   -0.036219    1.307846
    113          1           0       13.403053    0.510610   -1.674084
    114          1           0       15.035870   -0.540081    0.776933
    115          1           0       14.069759   -1.769921   -0.292849
    116          1           0       15.386240   -0.861740   -0.805005
    117          1           0       13.307206    2.384057   -0.465208
    118          1           0       14.564237    1.891232    0.637182
    119          1           0       16.393244    1.429477   -0.831731
    120          1           0       15.375778    1.819063   -2.131705
    121          1           0       15.341340    4.292149   -0.894170
    122          1           0       16.163725    3.703602    0.301713
    123          1           0       17.981732    3.094511   -1.404231
    124          1           0       16.382186    4.940358   -3.229664
    125          1           0       18.026547    4.423447   -3.291997
    126          1           0       16.834667    3.145110   -3.333914
    127          1           0       17.781512    5.025361    0.352787
    128          1           0       18.958926    5.319801   -1.023325
    129          1           0       17.250223    5.962302   -1.175846
    130          1           0       -4.655743   -7.930224    0.023484
    131          1           0       -6.337643   -6.830814    0.414368
    132          1           0       -4.896547   -6.758427    1.494845
    133          8           0       -7.780771    6.831051   -0.548600
    134          1           0       -9.064942    6.322810   -1.915234
 ---------------------------------------------------------------------

 SCF Done:  E(RCAM-B3LYP) =  -3043.37374646     A.U. after   16 cycles

 Excitation energies and oscillator strengths:

 Excited State   1:      Singlet-A      1.9817 eV  625.65 nm  f=0.2614  <S**2>=0.000
     243 -> 246        0.21359
     244 -> 245        0.66899
 This state for optimization and/or second-order correction.
 Total Energy, E(TD-HF/TD-KS) =  -3043.30092078
 Copying the excited state density for this state as the 1-particle RhoCI density.

 The electronic state is 1-A.
 Alpha  occ. eigenvalues --  -46.82502 -19.24047 -19.22672 -19.17542 -19.17199
 Alpha  occ. eigenvalues --  -19.16801 -19.16528 -19.16520 -14.39258 -14.38013
 Alpha  occ. eigenvalues --  -14.37008 -14.36502 -10.36017 -10.35647 -10.31924
 Alpha  occ. eigenvalues --  -10.29911 -10.29646 -10.28863 -10.27846 -10.27321
 Alpha  occ. eigenvalues --  -10.26971 -10.26935 -10.26900 -10.26624 -10.26432
 Alpha  occ. eigenvalues --  -10.26371 -10.26258 -10.26157 -10.26100 -10.25976
 Alpha  occ. eigenvalues --  -10.25385 -10.25051 -10.24880 -10.23998 -10.23878
 Alpha  occ. eigenvalues --  -10.23662 -10.23538 -10.23415 -10.23269 -10.23093
 Alpha  occ. eigenvalues --  -10.22999 -10.22981 -10.22887 -10.22842 -10.22732
 Alpha  occ. eigenvalues --  -10.22643 -10.22592 -10.22457 -10.22435 -10.22073
 Alpha  occ. eigenvalues --  -10.21798 -10.21575 -10.21277 -10.21257 -10.21231
 Alpha  occ. eigenvalues --  -10.21052 -10.20666 -10.20572 -10.20423 -10.20420
 Alpha  occ. eigenvalues --  -10.20158 -10.20147 -10.19466 -10.19172 -10.19002
 Alpha  occ. eigenvalues --  -10.18633  -3.10934  -1.85889  -1.85386  -1.85342
 Alpha  occ. eigenvalues --   -1.16271  -1.14795  -1.08007  -1.06365  -1.05067
 Alpha  occ. eigenvalues --   -1.04423  -1.04161  -1.02085  -1.01197  -1.00243
 Alpha  occ. eigenvalues --   -0.99037  -0.90131  -0.86685  -0.86420  -0.86036
 Alpha  occ. eigenvalues --   -0.85462  -0.84684  -0.84601  -0.83960  -0.83522
 Alpha  occ. eigenvalues --   -0.82602  -0.82498  -0.81943  -0.80973  -0.80085
 Alpha  occ. eigenvalues --   -0.79428  -0.78978  -0.78566  -0.78166  -0.76781
 Alpha  occ. eigenvalues --   -0.75912  -0.74921  -0.74450  -0.73629  -0.72619
 Alpha  occ. eigenvalues --   -0.71168  -0.71040  -0.70098  -0.69821  -0.69697
 Alpha  occ. eigenvalues --   -0.69286  -0.68892  -0.67887  -0.66942  -0.66456
 Alpha  occ. eigenvalues --   -0.65712  -0.65218  -0.64677  -0.63277  -0.62852
 Alpha  occ. eigenvalues --   -0.62490  -0.61878  -0.60847  -0.60265  -0.59885
 Alpha  occ. eigenvalues --   -0.59057  -0.58791  -0.58410  -0.58260  -0.57718
 Alpha  occ. eigenvalues --   -0.57714  -0.56569  -0.56016  -0.55470  -0.55262
 Alpha  occ. eigenvalues --   -0.54753  -0.54124  -0.53880  -0.53402  -0.52952
 Alpha  occ. eigenvalues --   -0.52347  -0.52077  -0.51268  -0.51187  -0.50932
 Alpha  occ. eigenvalues --   -0.50824  -0.50670  -0.49973  -0.49659  -0.49414
 Alpha  occ. eigenvalues --   -0.49190  -0.48691  -0.48486  -0.48059  -0.47796
 Alpha  occ. eigenvalues --   -0.47681  -0.47634  -0.47524  -0.47242  -0.46960
 Alpha  occ. eigenvalues --   -0.46539  -0.46463  -0.46347  -0.46166  -0.45820
 Alpha  occ. eigenvalues --   -0.45716  -0.45581  -0.45349  -0.45264  -0.45143
 Alpha  occ. eigenvalues --   -0.45000  -0.44665  -0.44502  -0.44355  -0.44071
 Alpha  occ. eigenvalues --   -0.43733  -0.43580  -0.43488  -0.43323  -0.42828
 Alpha  occ. eigenvalues --   -0.42773  -0.42554  -0.42219  -0.42113  -0.42053
 Alpha  occ. eigenvalues --   -0.41946  -0.41379  -0.41178  -0.41066  -0.40983
 Alpha  occ. eigenvalues --   -0.40798  -0.40656  -0.40571  -0.40313  -0.40171
 Alpha  occ. eigenvalues --   -0.39741  -0.39553  -0.39492  -0.39112  -0.38913
 Alpha  occ. eigenvalues --   -0.38676  -0.38453  -0.38381  -0.38021  -0.37886
 Alpha  occ. eigenvalues --   -0.37793  -0.37552  -0.37369  -0.37320  -0.37143
 Alpha  occ. eigenvalues --   -0.36833  -0.36794  -0.36076  -0.35893  -0.35475
 Alpha  occ. eigenvalues --   -0.35467  -0.34879  -0.34793  -0.34727  -0.34087
 Alpha  occ. eigenvalues --   -0.33714  -0.33619  -0.33365  -0.33258  -0.33037
 Alpha  occ. eigenvalues --   -0.32946  -0.32588  -0.32048  -0.31720  -0.31356
 Alpha  occ. eigenvalues --   -0.31211  -0.30950  -0.30824  -0.30263  -0.29458
 Alpha  occ. eigenvalues --   -0.28744  -0.28167  -0.28037  -0.27682  -0.27574
 Alpha  occ. eigenvalues --   -0.26871  -0.26839  -0.23578  -0.21539
 Alpha virt. eigenvalues --   -0.09081  -0.06389  -0.02229  -0.00649   0.00463
 Alpha virt. eigenvalues --    0.02176   0.02193   0.03120   0.03842   0.04124
 Alpha virt. eigenvalues --    0.04686   0.05472   0.08001   0.08298   0.09167

 Mulliken charges:
               1
     1  Mg   0.831383
     2  C    0.200297
     3  C   -0.132651
     4  C   -0.157072
     5  C   -0.157598
     6  N   -0.671936
     7  C    0.288134
     8  C   -0.161642
     9  C   -0.166120
    10  C    0.387492
    11  C   -0.317364
    12  C   -0.175463
    13  C   -0.270401
    14  C    0.629239
    15  O   -0.467324
    16  O   -0.444981
    17  N   -0.739191
    18  C    0.349967
    19  C   -0.029746
    20  C   -0.076519
    21  C    0.315075
    22  C   -0.366478
    23  C    0.244688
    24  O   -0.432556
    25  N   -0.742699
    26  C    0.365423
    27  C   -0.008108
    28  C    0.015920
    29  C    0.298322
    30  C    0.227227
    31  C   -0.192782
    32  C   -0.340073
    33  N   -0.684753
    34  C    0.231274
    35  C    0.011855
    36  C    0.128178
    37  C    0.217129
    38  C   -0.395977
    39  C    0.318576
    40  O   -0.474532
    41  C   -0.357016
    42  C    0.633725
    43  O   -0.512558
    44  O   -0.401177
    45  C   -0.086734
    46  C    0.004568
    47  C   -0.153374
    48  C    0.125627
    49  C   -0.372743
    50  C   -0.222728
    51  C   -0.153761
    52  C   -0.165817
    53  C   -0.055388
    54  C   -0.280149
    55  C   -0.173216
    56  C   -0.148764
    57  C   -0.166038
    58  C   -0.064875
    59  C   -0.313352
    60  C   -0.124408
    61  C   -0.215958
    62  C   -0.155533
    63  C   -0.086025
    64  C   -0.304377
    65  C   -0.326444
    66  H    0.071051
    67  H    0.135078
    68  H    0.106187
    69  H    0.115017
    70  H    0.110097
    71  H    0.120766
    72  H    0.097544
    73  H    0.127592
    74  H    0.096283
    75  H    0.114577
    76  H    0.148383
    77  H    0.117174
    78  H    0.124741
    79  H    0.163084
    80  H    0.134547
    81  H    0.092850
    82  H    0.108256
    83  H    0.110616
    84  H    0.108994
    85  H    0.110776
    86  H    0.104628
    87  H    0.121411
    88  H    0.149445
    89  H    0.122559
    90  H    0.139377
    91  H    0.126721
    92  H    0.126103
    93  H    0.077892
    94  H    0.153227
    95  H    0.109167
    96  H    0.099962
    97  H    0.087244
    98  H    0.087333
    99  H    0.088467
   100  H    0.099442
   101  H    0.097780
   102  H    0.089144
   103  H    0.072025
   104  H    0.067603
   105  H    0.074896
   106  H    0.117555
   107  H    0.061253
   108  H    0.092256
   109  H    0.081797
   110  H    0.069555
   111  H    0.081112
   112  H    0.080804
   113  H    0.074249
   114  H    0.080656
   115  H    0.097607
   116  H    0.097994
   117  H    0.089936
   118  H    0.090411
   119  H    0.102257
   120  H    0.090818
   121  H    0.098373
   122  H    0.087027
   123  H    0.087459
   124  H    0.089233
   125  H    0.104000
   126  H    0.107970
   127  H    0.103307
   128  H    0.090503
   129  H    0.105522
   130  H    0.115518
   131  H    0.139031
   132  H    0.130646
   133  O   -0.410247
   134  H    0.057655
 Sum of Mulliken charges =   0.00000

 Dipole moment (field-independent basis, Debye):
    X=              1.2580    Y=             -5.3643    Z=             -0.9883  Tot=              5.5978
 Quadrupole moment (field-independent basis, Debye-Ang):
   XX=           -370.7225   YY=           -440.8577   ZZ=           -395.5983
   XY=              5.9346   XZ=             25.7814   YZ=            -35.0744

 Normal termination of Gaussian 09 at Fri Oct  4 19:43:29 2019.
