 Gaussian 09, Revision D.01,
 Gaussian 09:  ES64L-G09RevD.01 24-Apr-2013

 ----------------------------------------------------------------------
 # td=(NStates=1) iop(3/107=0140000000,3/108=0140000000) iop(3/107=0140
 000000,3/108=0140000000) CAM-B3LYP/6-31G(d,p)
 ----------------------------------------------------------------------

 --
 TD
 --
 Symbolic Z-matrix:
 Charge =  0 Multiplicity = 1

                         Standard orientation:
 ---------------------------------------------------------------------
 Center     Atomic      Atomic             Coordinates (Angstroms)
 Number     Number       Type             X           Y           Z
 ---------------------------------------------------------------------
      1         12           0       -5.476537    1.184840    0.193674
      2          6           0       -4.953863   -2.166070   -0.422708
      3          6           0       -3.291554    1.155743    2.797684
      4          6           0       -6.243966    4.505583    0.617218
      5          6           0       -8.092868    1.109951   -2.282550
      6          7           0       -4.331954   -0.270346    0.988607
      7          6           0       -4.307699   -1.629392    0.633250
      8          6           0       -3.193281   -2.273930    1.460606
      9          6           0       -2.903500   -1.317575    2.610448
     10          6           0       -3.549582   -0.013069    2.126280
     11          6           0       -3.489980   -1.688971    3.929910
     12          6           0       -1.918813   -2.698774    0.688183
     13          6           0       -0.991835   -3.628053    1.402375
     14          6           0        0.327683   -3.904560    0.598668
     15          8           0        0.563319   -3.399500   -0.461349
     16          8           0        1.069044   -4.736875    1.317932
     17          7           0       -4.867074    2.584770    1.483835
     18          6           0       -3.868005    2.429303    2.441710
     19          6           0       -3.684057    3.686783    3.103585
     20          6           0       -4.462918    4.630489    2.464173
     21          6           0       -5.286458    3.835525    1.474051
     22          6           0       -2.748485    4.004929    4.248865
     23          6           0       -4.679546    5.954454    2.812487
     24          8           0       -3.889276    6.644809    3.573800
     25          7           0       -6.995889    2.555616   -0.599720
     26          6           0       -7.054558    3.853275   -0.292595
     27          6           0       -8.013110    4.482418   -1.152669
     28          6           0       -8.611037    3.583882   -2.056936
     29          6           0       -7.792671    2.310655   -1.712792
     30          6           0       -8.500435    5.928371   -1.130185
     31          6           0       -9.688776    3.828991   -3.063400
     32          6           0       -9.013229    3.986462   -4.407262
     33          7           0       -6.334804   -0.152245   -1.083812
     34          6           0       -7.376313   -0.180547   -1.985481
     35          6           0       -7.650303   -1.278771   -2.660073
     36          6           0       -6.730940   -2.203143   -2.056103
     37          6           0       -5.940499   -1.444059   -1.146320
     38          6           0       -8.660574   -1.650965   -3.660737
     39          6           0       -6.207573   -3.484375   -2.038466
     40          8           0       -6.567872   -4.512401   -2.590135
     41          6           0       -5.026934   -3.529132   -0.909732
     42          6           0       -5.228199   -4.580219    0.110688
     43          8           0       -5.767925   -4.408508    1.223364
     44          8           0       -4.918564   -5.809282   -0.358723
     45          6           0       -5.409127   -6.846440    0.549920
     46          6           0        2.401712   -5.023648    0.661734
     47          6           0        3.526801   -4.065927    1.032593
     48          6           0        4.071154   -3.260238    0.115460
     49          6           0        3.725234   -3.239521   -1.360170
     50          6           0        5.187337   -2.398271    0.611737
     51          6           0        6.603884   -2.686084   -0.084573
     52          6           0        7.662876   -1.814069    0.580321
     53          6           0        9.091752   -1.977990   -0.058529
     54          6           0        9.692368   -3.372004    0.301281
     55          6           0       10.055382   -0.948119    0.406160
     56          6           0       11.347858   -0.687407   -0.374434
     57          6           0       12.268685    0.361979    0.276638
     58          6           0       13.603981    0.410460   -0.479591
     59          6           0       14.592998   -0.834733   -0.185435
     60          6           0       14.246851    1.744430   -0.104271
     61          6           0       15.491283    2.182631   -0.907190
     62          6           0       16.033820    3.640877   -0.585659
     63          6           0       17.273258    3.923648   -1.403580
     64          6           0       16.986952    3.996276   -2.975013
     65          6           0       17.872511    5.374372   -1.008902
     66          1           0       -2.582466    1.235841    3.731217
     67          1           0       -6.452642    5.533332    0.782643
     68          1           0       -8.811203    0.845135   -3.203631
     69          1           0       -3.693381   -3.269712    1.892695
     70          1           0       -1.871005   -1.048102    2.486341
     71          1           0       -3.093238   -2.581203    4.347268
     72          1           0       -3.520351   -0.860208    4.664307
     73          1           0       -4.604148   -1.816671    3.858991
     74          1           0       -2.272734   -3.235366   -0.146561
     75          1           0       -1.529698   -1.610114    0.345785
     76          1           0       -0.654959   -3.344290    2.423919
     77          1           0       -1.486486   -4.637641    1.585440
     78          1           0       -1.840585    3.646467    3.983331
     79          1           0       -2.749508    5.090995    4.446818
     80          1           0       -3.019344    3.466456    5.087886
     81          1           0       -5.537158    6.395367    2.205856
     82          1           0      -10.374705    3.037021   -3.166981
     83          1           0      -10.146527    4.742405   -2.701785
     84          1           0       -9.723925    4.229247   -5.232882
     85          1           0       -8.412470    4.790343   -4.542543
     86          1           0       -8.381896    3.239201   -4.726306
     87          1           0       -8.550055   -1.114119   -4.572565
     88          1           0       -8.488544   -2.771993   -3.723782
     89          1           0       -9.526787   -1.482280   -3.160098
     90          1           0       -4.270338   -3.866835   -1.568108
     91          1           0        2.853318   -6.171097    1.060257
     92          1           0        2.134571   -5.289049   -0.511196
     93          1           0        3.933986   -3.882911    2.086168
     94          1           0        2.822899   -3.589026   -1.817321
     95          1           0        3.661737   -2.087454   -1.679475
     96          1           0        4.572483   -3.870223   -1.861700
     97          1           0        4.725283   -1.295836    0.337195
     98          1           0        5.368957   -2.410014    1.667581
     99          1           0        6.610419   -3.686948   -0.213641
    100          1           0        6.694228   -2.438512   -1.011968
    101          1           0        7.172460   -0.603253    0.401888
    102          1           0        7.767850   -2.072847    1.670489
    103          1           0        9.035936   -1.987881   -1.136203
    104          1           0        9.136503   -4.125387   -0.108782
    105          1           0       10.641157   -3.380869   -0.212745
    106          1           0        9.591126   -3.685998    1.333550
    107          1           0        9.556337    0.037563    0.518736
    108          1           0       10.478770   -1.225199    1.404663
    109          1           0       11.729328   -1.584459   -0.277142
    110          1           0       11.146679   -0.500524   -1.490948
    111          1           0       11.703814    1.292851    0.287130
    112          1           0       12.615463    0.097681    1.351222
    113          1           0       13.440844    0.374361   -1.474136
    114          1           0       14.929918   -0.786145    0.863328
    115          1           0       13.890968   -1.712144   -0.518464
    116          1           0       15.421611   -0.817635   -0.943887
    117          1           0       13.307560    2.704502   -0.110864
    118          1           0       14.474268    1.785367    0.925402
    119          1           0       16.220911    1.521551   -0.900393
    120          1           0       15.216556    2.240570   -2.027368
    121          1           0       15.481182    4.458423   -0.885897
    122          1           0       16.299652    3.651286    0.428677
    123          1           0       18.016185    3.185383   -1.249994
    124          1           0       15.959739    4.583840   -3.247174
    125          1           0       17.775188    4.236116   -3.689820
    126          1           0       16.658007    2.903530   -3.217348
    127          1           0       18.229025    5.215075    0.145123
    128          1           0       18.795777    5.372443   -1.587029
    129          1           0       17.169210    6.106312   -1.284104
    130          1           0       -5.284189   -7.724301   -0.074196
    131          1           0       -6.418985   -6.760847    0.752495
    132          1           0       -4.565492   -6.716902    1.223545
    133          8           0       -7.968661    6.719844   -0.371583
    134          1           0       -9.073283    6.225403   -1.839812
 ---------------------------------------------------------------------

 SCF Done:  E(RCAM-B3LYP) =  -3043.45509456     A.U. after   16 cycles

 Excitation energies and oscillator strengths:

 Excited State   1:      Singlet-A      1.9621 eV  631.89 nm  f=0.2879  <S**2>=0.000
     243 -> 245       -0.15194
     243 -> 246       -0.18286
     244 -> 245        0.65866
 This state for optimization and/or second-order correction.
 Total Energy, E(TD-HF/TD-KS) =  -3043.38298775
 Copying the excited state density for this state as the 1-particle RhoCI density.

 The electronic state is 1-A.
 Alpha  occ. eigenvalues --  -46.81399 -19.22941 -19.21694 -19.17690 -19.16915
 Alpha  occ. eigenvalues --  -19.16360 -19.15808 -19.15461 -14.39106 -14.37754
 Alpha  occ. eigenvalues --  -14.37454 -14.36035 -10.34608 -10.33993 -10.30981
 Alpha  occ. eigenvalues --  -10.30011 -10.29817 -10.29815 -10.28059 -10.27764
 Alpha  occ. eigenvalues --  -10.27668 -10.27161 -10.26870 -10.26668 -10.26002
 Alpha  occ. eigenvalues --  -10.25982 -10.25873 -10.24903 -10.24872 -10.24845
 Alpha  occ. eigenvalues --  -10.24751 -10.24455 -10.23796 -10.23596 -10.23584
 Alpha  occ. eigenvalues --  -10.23479 -10.23382 -10.23258 -10.23234 -10.23142
 Alpha  occ. eigenvalues --  -10.23089 -10.23083 -10.22977 -10.22898 -10.22707
 Alpha  occ. eigenvalues --  -10.22600 -10.22156 -10.22025 -10.21763 -10.21746
 Alpha  occ. eigenvalues --  -10.21731 -10.21708 -10.21678 -10.21435 -10.21152
 Alpha  occ. eigenvalues --  -10.21101 -10.20903 -10.20736 -10.20714 -10.20188
 Alpha  occ. eigenvalues --  -10.20007 -10.19957 -10.19749 -10.19662 -10.19450
 Alpha  occ. eigenvalues --  -10.19400  -3.10061  -1.84993  -1.84531  -1.84478
 Alpha  occ. eigenvalues --   -1.13386  -1.12226  -1.07512  -1.05461  -1.05205
 Alpha  occ. eigenvalues --   -1.02296  -1.02240  -1.00973  -1.00455  -0.99595
 Alpha  occ. eigenvalues --   -0.98101  -0.88929  -0.86368  -0.86267  -0.85420
 Alpha  occ. eigenvalues --   -0.85293  -0.84918  -0.84576  -0.84157  -0.83920
 Alpha  occ. eigenvalues --   -0.83518  -0.82862  -0.81292  -0.80258  -0.79454
 Alpha  occ. eigenvalues --   -0.79369  -0.78492  -0.77643  -0.77298  -0.76082
 Alpha  occ. eigenvalues --   -0.75818  -0.74997  -0.73947  -0.72852  -0.72567
 Alpha  occ. eigenvalues --   -0.71432  -0.71102  -0.70512  -0.70342  -0.69757
 Alpha  occ. eigenvalues --   -0.69286  -0.68729  -0.68544  -0.67874  -0.67182
 Alpha  occ. eigenvalues --   -0.66532  -0.64640  -0.64340  -0.63374  -0.62415
 Alpha  occ. eigenvalues --   -0.61030  -0.60795  -0.60596  -0.59662  -0.59410
 Alpha  occ. eigenvalues --   -0.58798  -0.58281  -0.57952  -0.57589  -0.56759
 Alpha  occ. eigenvalues --   -0.56381  -0.55887  -0.55178  -0.55028  -0.54490
 Alpha  occ. eigenvalues --   -0.53869  -0.53179  -0.52840  -0.52322  -0.52197
 Alpha  occ. eigenvalues --   -0.52128  -0.51437  -0.51184  -0.50816  -0.50442
 Alpha  occ. eigenvalues --   -0.50413  -0.50263  -0.49752  -0.49661  -0.49353
 Alpha  occ. eigenvalues --   -0.49014  -0.48831  -0.48259  -0.47933  -0.47842
 Alpha  occ. eigenvalues --   -0.47686  -0.47528  -0.47014  -0.46742  -0.46558
 Alpha  occ. eigenvalues --   -0.46480  -0.46362  -0.46125  -0.45777  -0.45725
 Alpha  occ. eigenvalues --   -0.45461  -0.45111  -0.45003  -0.44824  -0.44573
 Alpha  occ. eigenvalues --   -0.44489  -0.44375  -0.44004  -0.43961  -0.43881
 Alpha  occ. eigenvalues --   -0.43592  -0.43438  -0.43263  -0.43150  -0.42934
 Alpha  occ. eigenvalues --   -0.42819  -0.42457  -0.42376  -0.42253  -0.42124
 Alpha  occ. eigenvalues --   -0.41938  -0.41626  -0.41380  -0.41216  -0.41076
 Alpha  occ. eigenvalues --   -0.40809  -0.40646  -0.40282  -0.40252  -0.39978
 Alpha  occ. eigenvalues --   -0.39935  -0.39840  -0.39578  -0.39136  -0.38990
 Alpha  occ. eigenvalues --   -0.38871  -0.38592  -0.38418  -0.38130  -0.38058
 Alpha  occ. eigenvalues --   -0.37863  -0.37604  -0.37198  -0.37145  -0.37018
 Alpha  occ. eigenvalues --   -0.36869  -0.36102  -0.35764  -0.35619  -0.35473
 Alpha  occ. eigenvalues --   -0.35420  -0.35349  -0.35209  -0.35127  -0.34885
 Alpha  occ. eigenvalues --   -0.34708  -0.34547  -0.33941  -0.33638  -0.33255
 Alpha  occ. eigenvalues --   -0.32354  -0.32161  -0.31846  -0.31811  -0.31761
 Alpha  occ. eigenvalues --   -0.31056  -0.30547  -0.30242  -0.29877  -0.29449
 Alpha  occ. eigenvalues --   -0.28743  -0.28427  -0.28332  -0.27483  -0.27220
 Alpha  occ. eigenvalues --   -0.27169  -0.26545  -0.23077  -0.22130
 Alpha virt. eigenvalues --   -0.09939  -0.05749  -0.01782  -0.01156   0.00894
 Alpha virt. eigenvalues --    0.02826   0.03232   0.03829   0.04900   0.05072
 Alpha virt. eigenvalues --    0.05334   0.05906   0.08368   0.08655   0.09299

 Mulliken charges:
               1
     1  Mg   0.830414
     2  C    0.140373
     3  C   -0.178217
     4  C   -0.160005
     5  C   -0.152463
     6  N   -0.672228
     7  C    0.315765
     8  C   -0.189148
     9  C   -0.111363
    10  C    0.321432
    11  C   -0.319647
    12  C   -0.137320
    13  C   -0.279732
    14  C    0.613232
    15  O   -0.459539
    16  O   -0.454584
    17  N   -0.725885
    18  C    0.298682
    19  C    0.022763
    20  C    0.010076
    21  C    0.330279
    22  C   -0.384263
    23  C    0.202471
    24  O   -0.464607
    25  N   -0.672851
    26  C    0.365609
    27  C   -0.098690
    28  C    0.048742
    29  C    0.248651
    30  C    0.286013
    31  C   -0.230279
    32  C   -0.333070
    33  N   -0.711424
    34  C    0.225919
    35  C    0.066479
    36  C    0.051246
    37  C    0.250520
    38  C   -0.375600
    39  C    0.277033
    40  O   -0.476278
    41  C   -0.331027
    42  C    0.626709
    43  O   -0.512095
    44  O   -0.462887
    45  C   -0.075052
    46  C   -0.003437
    47  C   -0.140094
    48  C    0.158295
    49  C   -0.351314
    50  C   -0.223802
    51  C   -0.167010
    52  C   -0.156319
    53  C   -0.065942
    54  C   -0.325944
    55  C   -0.170489
    56  C   -0.181536
    57  C   -0.161860
    58  C   -0.056546
    59  C   -0.321511
    60  C   -0.146474
    61  C   -0.186395
    62  C   -0.142543
    63  C   -0.081022
    64  C   -0.315086
    65  C   -0.300695
    66  H    0.105872
    67  H    0.132910
    68  H    0.091562
    69  H    0.104333
    70  H    0.112296
    71  H    0.120360
    72  H    0.106065
    73  H    0.127717
    74  H    0.117389
    75  H    0.092805
    76  H    0.129373
    77  H    0.127276
    78  H    0.128659
    79  H    0.172548
    80  H    0.126276
    81  H    0.087312
    82  H    0.131347
    83  H    0.114676
    84  H    0.101193
    85  H    0.127123
    86  H    0.128308
    87  H    0.130377
    88  H    0.151262
    89  H    0.142851
    90  H    0.155699
    91  H    0.079517
    92  H    0.125250
    93  H    0.088243
    94  H    0.150282
    95  H    0.097695
    96  H    0.101852
    97  H    0.074134
    98  H    0.105034
    99  H    0.101994
   100  H    0.114357
   101  H    0.052972
   102  H    0.087120
   103  H    0.082851
   104  H    0.104162
   105  H    0.107736
   106  H    0.104624
   107  H    0.075661
   108  H    0.082997
   109  H    0.104965
   110  H    0.076187
   111  H    0.099715
   112  H    0.077420
   113  H    0.093353
   114  H    0.109312
   115  H    0.096211
   116  H    0.107170
   117  H    0.022367
   118  H    0.093116
   119  H    0.101698
   120  H    0.080502
   121  H    0.097819
   122  H    0.093130
   123  H    0.087955
   124  H    0.078012
   125  H    0.109123
   126  H    0.086333
   127  H    0.074176
   128  H    0.105159
   129  H    0.114289
   130  H    0.123066
   131  H    0.152212
   132  H    0.133709
   133  O   -0.418902
   134  H    0.075406
 Sum of Mulliken charges =   0.00000

 Dipole moment (field-independent basis, Debye):
    X=              1.7490    Y=             -3.7449    Z=             -2.2247  Tot=              4.6939
 Quadrupole moment (field-independent basis, Debye-Ang):
   XX=           -353.4941   YY=           -443.6051   ZZ=           -390.0754
   XY=            -22.5761   XZ=             25.1463   YZ=            -37.8655

 Normal termination of Gaussian 09 at Thu Oct  3 13:54:48 2019.
