 Gaussian 09, Revision D.01,
 Gaussian 09:  ES64L-G09RevD.01 24-Apr-2013

 ----------------------------------------------------------------------
 # td=(NStates=1) iop(3/107=0140000000,3/108=0140000000) iop(3/107=0140
 000000,3/108=0140000000) CAM-B3LYP/6-31G(d,p)
 ----------------------------------------------------------------------

 --
 TD
 --
 Symbolic Z-matrix:
 Charge =  0 Multiplicity = 1

                         Standard orientation:
 ---------------------------------------------------------------------
 Center     Atomic      Atomic             Coordinates (Angstroms)
 Number     Number       Type             X           Y           Z
 ---------------------------------------------------------------------
      1         12           0       -5.633678    1.188002    0.251792
      2          6           0       -5.031222   -2.115898   -0.287157
      3          6           0       -3.438801    1.195862    2.710467
      4          6           0       -6.360425    4.555360    0.620527
      5          6           0       -7.962990    1.154995   -2.454866
      6          7           0       -4.491784   -0.268573    1.058354
      7          6           0       -4.253710   -1.635965    0.616820
      8          6           0       -3.182503   -2.300221    1.457437
      9          6           0       -2.916518   -1.266070    2.582808
     10          6           0       -3.582732   -0.040042    2.077488
     11          6           0       -3.584720   -1.694189    3.955757
     12          6           0       -1.925322   -2.534135    0.608615
     13          6           0       -0.947722   -3.610991    1.268240
     14          6           0        0.240217   -3.877969    0.451488
     15          8           0        0.500022   -3.554327   -0.652262
     16          8           0        1.168145   -4.621077    1.191162
     17          7           0       -5.167375    2.548263    1.607664
     18          6           0       -4.127786    2.414396    2.508198
     19          6           0       -3.929645    3.590909    3.229801
     20          6           0       -4.724481    4.625304    2.647850
     21          6           0       -5.483184    3.899568    1.568562
     22          6           0       -2.914634    3.785682    4.329496
     23          6           0       -4.755528    5.951340    2.860308
     24          8           0       -4.189450    6.599512    3.775207
     25          7           0       -7.002630    2.550371   -0.702822
     26          6           0       -6.986840    3.920619   -0.411700
     27          6           0       -7.961447    4.616864   -1.236134
     28          6           0       -8.423074    3.607832   -2.081189
     29          6           0       -7.774854    2.383515   -1.784817
     30          6           0       -8.323441    5.978316   -1.201089
     31          6           0       -9.428486    3.827706   -3.271132
     32          6           0       -8.734358    3.902288   -4.652280
     33          7           0       -6.500469   -0.103199   -1.038951
     34          6           0       -7.387803   -0.082660   -2.132011
     35          6           0       -7.603341   -1.423837   -2.632973
     36          6           0       -6.684099   -2.218633   -2.030781
     37          6           0       -6.090460   -1.504588   -1.096153
     38          6           0       -8.624384   -1.676007   -3.771392
     39          6           0       -6.222698   -3.594041   -1.952172
     40          8           0       -6.485648   -4.604038   -2.652440
     41          6           0       -5.057088   -3.650899   -0.833140
     42          6           0       -5.387746   -4.608359    0.183620
     43          8           0       -5.748126   -4.367142    1.318738
     44          8           0       -5.071696   -5.762467   -0.299173
     45          6           0       -5.292444   -6.997253    0.545049
     46          6           0        2.394639   -5.019989    0.520615
     47          6           0        3.561919   -4.153721    1.001859
     48          6           0        4.129489   -3.284625    0.229139
     49          6           0        3.806480   -3.047987   -1.356906
     50          6           0        5.371210   -2.459006    0.768759
     51          6           0        6.701029   -2.839889    0.109304
     52          6           0        7.787981   -1.791089    0.606246
     53          6           0        9.184877   -1.999219    0.005526
     54          6           0        9.690231   -3.451484    0.305256
     55          6           0       10.022482   -0.901108    0.416173
     56          6           0       11.425663   -0.781723   -0.352032
     57          6           0       12.241724    0.387550    0.084973
     58          6           0       13.590295    0.491619   -0.546538
     59          6           0       14.575251   -0.648989   -0.240150
     60          6           0       14.307584    1.863279   -0.170758
     61          6           0       15.469449    2.137028   -1.065160
     62          6           0       16.192883    3.456097   -0.564212
     63          6           0       17.401547    3.877302   -1.326430
     64          6           0       17.125999    4.109619   -2.913043
     65          6           0       17.932157    5.247245   -0.788576
     66          1           0       -2.878474    1.138784    3.638884
     67          1           0       -6.359711    5.651189    0.685476
     68          1           0       -8.558837    1.149693   -3.469770
     69          1           0       -3.483317   -3.227655    1.691335
     70          1           0       -1.914595   -1.093858    2.725642
     71          1           0       -3.262731   -2.662608    4.393368
     72          1           0       -3.399592   -0.937428    4.667115
     73          1           0       -4.585930   -1.801612    3.995167
     74          1           0       -2.154362   -2.974280   -0.368165
     75          1           0       -1.360732   -1.584691    0.299474
     76          1           0       -0.441770   -3.288438    2.330883
     77          1           0       -1.512643   -4.518186    1.564651
     78          1           0       -1.995069    3.386884    4.099177
     79          1           0       -2.808137    4.971820    4.245740
     80          1           0       -3.400152    3.493172    5.416388
     81          1           0       -5.478576    6.599921    2.235084
     82          1           0      -10.061491    2.953576   -3.337299
     83          1           0       -9.955338    4.665147   -3.003382
     84          1           0       -9.385424    4.014805   -5.486344
     85          1           0       -8.130303    4.842319   -4.397643
     86          1           0       -7.878614    2.986551   -4.655798
     87          1           0       -8.134438   -1.223696   -4.583073
     88          1           0       -8.534563   -2.827895   -3.766544
     89          1           0       -9.596234   -1.172758   -3.386536
     90          1           0       -4.101102   -3.820799   -1.438124
     91          1           0        2.680149   -6.149325    0.772028
     92          1           0        2.475214   -5.149846   -0.645507
     93          1           0        3.798239   -4.258614    2.008005
     94          1           0        2.733631   -3.182070   -1.585401
     95          1           0        3.893292   -2.021264   -1.235567
     96          1           0        4.501494   -3.724461   -1.816326
     97          1           0        5.166192   -1.413322    0.620430
     98          1           0        5.423853   -2.694035    1.918362
     99          1           0        6.992542   -3.846822    0.288268
    100          1           0        6.742572   -2.789132   -0.967550
    101          1           0        7.639501   -0.714852    0.438365
    102          1           0        7.854455   -1.719187    1.691834
    103          1           0        8.992683   -1.967808   -1.086818
    104          1           0        8.999603   -4.174108    0.048249
    105          1           0       10.607560   -3.673824   -0.222592
    106          1           0        9.728424   -3.644226    1.407787
    107          1           0        9.357749    0.097595    0.134877
    108          1           0       10.142665   -0.639906    1.504423
    109          1           0       12.041323   -1.725161   -0.177785
    110          1           0       11.254806   -0.580212   -1.326436
    111          1           0       11.614260    1.280528    0.074630
    112          1           0       12.053976    0.228332    1.333313
    113          1           0       13.554991    0.492480   -1.536345
    114          1           0       14.673091   -0.665023    0.876135
    115          1           0       14.141953   -1.701324   -0.268192
    116          1           0       15.549448   -0.438995   -0.565680
    117          1           0       13.578509    2.873408   -0.441332
    118          1           0       14.543932    1.860758    0.985846
    119          1           0       16.278032    1.551504   -0.806917
    120          1           0       15.059448    2.302301   -2.102291
    121          1           0       15.425947    4.253607   -0.541251
    122          1           0       16.610096    3.322206    0.441167
    123          1           0       18.062409    3.145354   -1.168952
    124          1           0       16.426846    5.102230   -2.855948
    125          1           0       18.066043    4.330979   -3.532420
    126          1           0       16.655401    3.380301   -3.502526
    127          1           0       18.494277    5.010897    0.156170
    128          1           0       18.837380    5.601620   -1.563323
    129          1           0       17.124362    6.039186   -1.012891
    130          1           0       -5.236002   -7.805119   -0.260553
    131          1           0       -6.395434   -6.895375    0.886152
    132          1           0       -4.657056   -6.835335    1.389589
    133          8           0       -7.886476    6.875761   -0.441659
    134          1           0       -8.961689    6.324020   -1.962065
 ---------------------------------------------------------------------

 SCF Done:  E(RCAM-B3LYP) =  -3043.46227937     A.U. after   16 cycles

 Excitation energies and oscillator strengths:

 Excited State   1:      Singlet-A      1.8781 eV  660.15 nm  f=0.2248  <S**2>=0.000
     243 -> 246       -0.20183
     244 -> 245        0.66189
 This state for optimization and/or second-order correction.
 Total Energy, E(TD-HF/TD-KS) =  -3043.39325944
 Copying the excited state density for this state as the 1-particle RhoCI density.

 The electronic state is 1-A.
 Alpha  occ. eigenvalues --  -46.80715 -19.22924 -19.21460 -19.18188 -19.18004
 Alpha  occ. eigenvalues --  -19.16820 -19.16733 -19.15584 -14.38953 -14.37344
 Alpha  occ. eigenvalues --  -14.37133 -14.36671 -10.35226 -10.34622 -10.32849
 Alpha  occ. eigenvalues --  -10.29697 -10.29693 -10.28783 -10.28255 -10.27887
 Alpha  occ. eigenvalues --  -10.27562 -10.26713 -10.26655 -10.26489 -10.26402
 Alpha  occ. eigenvalues --  -10.26389 -10.26351 -10.26153 -10.25993 -10.25537
 Alpha  occ. eigenvalues --  -10.25507 -10.25116 -10.24823 -10.24660 -10.24545
 Alpha  occ. eigenvalues --  -10.24098 -10.23956 -10.23920 -10.23888 -10.23817
 Alpha  occ. eigenvalues --  -10.23051 -10.23011 -10.23011 -10.23004 -10.22691
 Alpha  occ. eigenvalues --  -10.22658 -10.22609 -10.22446 -10.22392 -10.22250
 Alpha  occ. eigenvalues --  -10.21971 -10.21460 -10.21324 -10.21314 -10.21209
 Alpha  occ. eigenvalues --  -10.21133 -10.20964 -10.20877 -10.20558 -10.20536
 Alpha  occ. eigenvalues --  -10.20475 -10.20205 -10.20101 -10.20061 -10.19717
 Alpha  occ. eigenvalues --  -10.19540  -3.09485  -1.84402  -1.83957  -1.83917
 Alpha  occ. eigenvalues --   -1.14907  -1.13430  -1.05723  -1.04950  -1.04890
 Alpha  occ. eigenvalues --   -1.04774  -1.03691  -1.00421  -0.99375  -0.98961
 Alpha  occ. eigenvalues --   -0.97934  -0.88616  -0.86216  -0.85964  -0.85212
 Alpha  occ. eigenvalues --   -0.85159  -0.84862  -0.84599  -0.84101  -0.83458
 Alpha  occ. eigenvalues --   -0.83277  -0.82808  -0.81976  -0.80989  -0.80167
 Alpha  occ. eigenvalues --   -0.79623  -0.78361  -0.78105  -0.77972  -0.76381
 Alpha  occ. eigenvalues --   -0.75600  -0.75430  -0.73822  -0.73474  -0.72150
 Alpha  occ. eigenvalues --   -0.71602  -0.70899  -0.70352  -0.69907  -0.69643
 Alpha  occ. eigenvalues --   -0.69341  -0.68875  -0.67986  -0.67520  -0.66435
 Alpha  occ. eigenvalues --   -0.66143  -0.65117  -0.64908  -0.63302  -0.62655
 Alpha  occ. eigenvalues --   -0.62546  -0.60521  -0.59880  -0.59396  -0.58925
 Alpha  occ. eigenvalues --   -0.58690  -0.58543  -0.58190  -0.57984  -0.57398
 Alpha  occ. eigenvalues --   -0.56373  -0.55595  -0.55156  -0.55067  -0.54643
 Alpha  occ. eigenvalues --   -0.54028  -0.53565  -0.53097  -0.52776  -0.52417
 Alpha  occ. eigenvalues --   -0.51894  -0.51662  -0.51643  -0.50821  -0.50614
 Alpha  occ. eigenvalues --   -0.50567  -0.50249  -0.50041  -0.49423  -0.49292
 Alpha  occ. eigenvalues --   -0.48961  -0.48729  -0.48439  -0.48417  -0.48278
 Alpha  occ. eigenvalues --   -0.48076  -0.47575  -0.47551  -0.47315  -0.47179
 Alpha  occ. eigenvalues --   -0.46917  -0.46696  -0.46624  -0.46130  -0.46011
 Alpha  occ. eigenvalues --   -0.45611  -0.45514  -0.45086  -0.44946  -0.44862
 Alpha  occ. eigenvalues --   -0.44612  -0.44408  -0.44224  -0.43885  -0.43787
 Alpha  occ. eigenvalues --   -0.43294  -0.43102  -0.42961  -0.42905  -0.42714
 Alpha  occ. eigenvalues --   -0.42565  -0.42429  -0.42321  -0.42149  -0.41895
 Alpha  occ. eigenvalues --   -0.41424  -0.41150  -0.41073  -0.41019  -0.40829
 Alpha  occ. eigenvalues --   -0.40597  -0.40487  -0.40440  -0.40248  -0.40111
 Alpha  occ. eigenvalues --   -0.39904  -0.39475  -0.39419  -0.39244  -0.39141
 Alpha  occ. eigenvalues --   -0.38992  -0.38657  -0.38492  -0.38484  -0.37594
 Alpha  occ. eigenvalues --   -0.37533  -0.37284  -0.37207  -0.37149  -0.36979
 Alpha  occ. eigenvalues --   -0.36629  -0.36543  -0.36162  -0.36103  -0.35700
 Alpha  occ. eigenvalues --   -0.35514  -0.35348  -0.35191  -0.34669  -0.34571
 Alpha  occ. eigenvalues --   -0.34464  -0.34107  -0.33947  -0.33908  -0.33158
 Alpha  occ. eigenvalues --   -0.32850  -0.32548  -0.32442  -0.31604  -0.31586
 Alpha  occ. eigenvalues --   -0.31360  -0.31209  -0.30898  -0.30786  -0.30116
 Alpha  occ. eigenvalues --   -0.28657  -0.28585  -0.28306  -0.28038  -0.28019
 Alpha  occ. eigenvalues --   -0.27773  -0.26421  -0.23817  -0.21888
 Alpha virt. eigenvalues --   -0.09902  -0.07317  -0.02184  -0.01674   0.00068
 Alpha virt. eigenvalues --    0.02901   0.03205   0.03428   0.04255   0.05165
 Alpha virt. eigenvalues --    0.06030   0.06149   0.07866   0.08044   0.09285

 Mulliken charges:
               1
     1  Mg   0.823258
     2  C    0.027008
     3  C   -0.211459
     4  C   -0.156085
     5  C   -0.201129
     6  N   -0.650932
     7  C    0.273012
     8  C   -0.107031
     9  C   -0.131218
    10  C    0.359863
    11  C   -0.324314
    12  C   -0.195885
    13  C   -0.277839
    14  C    0.617508
    15  O   -0.437134
    16  O   -0.486776
    17  N   -0.722616
    18  C    0.335177
    19  C    0.038070
    20  C    0.073454
    21  C    0.272813
    22  C   -0.378571
    23  C    0.149291
    24  O   -0.452959
    25  N   -0.674066
    26  C    0.285397
    27  C    0.041555
    28  C   -0.037089
    29  C    0.351039
    30  C    0.224069
    31  C   -0.228906
    32  C   -0.295109
    33  N   -0.693275
    34  C    0.295234
    35  C   -0.052454
    36  C    0.118300
    37  C    0.259277
    38  C   -0.353148
    39  C    0.336708
    40  O   -0.469347
    41  C   -0.320615
    42  C    0.633874
    43  O   -0.496281
    44  O   -0.434584
    45  C   -0.100264
    46  C   -0.001167
    47  C   -0.112941
    48  C    0.075513
    49  C   -0.366030
    50  C   -0.223194
    51  C   -0.176927
    52  C   -0.184156
    53  C   -0.037148
    54  C   -0.318152
    55  C   -0.182210
    56  C   -0.165078
    57  C   -0.165847
    58  C   -0.035346
    59  C   -0.332872
    60  C   -0.158392
    61  C   -0.168052
    62  C   -0.172802
    63  C   -0.055421
    64  C   -0.306573
    65  C   -0.295164
    66  H    0.086615
    67  H    0.145604
    68  H    0.094317
    69  H    0.111614
    70  H    0.115337
    71  H    0.107072
    72  H    0.113535
    73  H    0.144440
    74  H    0.122982
    75  H    0.115122
    76  H    0.127249
    77  H    0.145963
    78  H    0.128241
    79  H    0.151995
    80  H    0.115968
    81  H    0.078913
    82  H    0.109715
    83  H    0.115459
    84  H    0.126876
    85  H    0.106982
    86  H    0.087599
    87  H    0.148872
    88  H    0.144522
    89  H    0.128674
    90  H    0.166804
    91  H    0.085704
    92  H    0.116034
    93  H    0.078886
    94  H    0.144572
    95  H    0.122488
    96  H    0.130599
    97  H    0.105222
    98  H    0.086419
    99  H    0.107778
   100  H    0.101155
   101  H    0.082728
   102  H    0.086675
   103  H    0.084327
   104  H    0.105354
   105  H    0.102022
   106  H    0.093294
   107  H    0.053903
   108  H    0.090112
   109  H    0.088367
   110  H    0.103067
   111  H    0.095782
   112  H    0.037640
   113  H    0.097931
   114  H    0.094967
   115  H    0.099419
   116  H    0.112864
   117  H    0.045300
   118  H    0.081212
   119  H    0.105585
   120  H    0.103461
   121  H    0.075662
   122  H    0.085849
   123  H    0.091490
   124  H    0.070278
   125  H    0.091769
   126  H    0.106649
   127  H    0.106377
   128  H    0.068793
   129  H    0.109644
   130  H    0.151104
   131  H    0.140744
   132  H    0.150287
   133  O   -0.447345
   134  H    0.071500
 Sum of Mulliken charges =   0.00000

 Dipole moment (field-independent basis, Debye):
    X=              1.6438    Y=             -7.1484    Z=             -2.2378  Tot=              7.6687
 Quadrupole moment (field-independent basis, Debye-Ang):
   XX=           -377.0694   YY=           -443.2894   ZZ=           -397.3514
   XY=             17.9677   XZ=             25.1679   YZ=            -39.4586

 Normal termination of Gaussian 09 at Wed Oct  9 04:46:49 2019.
