 Gaussian 09, Revision D.01,
 Gaussian 09:  ES64L-G09RevD.01 24-Apr-2013

 ----------------------------------------------------------------------
 # td=(NStates=1) iop(3/107=0140000000,3/108=0140000000) iop(3/107=0140
 000000,3/108=0140000000) CAM-B3LYP/6-31G(d,p)
 ----------------------------------------------------------------------

 --
 TD
 --
 Symbolic Z-matrix:
 Charge =  0 Multiplicity = 1

                         Standard orientation:
 ---------------------------------------------------------------------
 Center     Atomic      Atomic             Coordinates (Angstroms)
 Number     Number       Type             X           Y           Z
 ---------------------------------------------------------------------
      1         12           0        5.562136    1.221351   -0.172396
      2          6           0        4.956632   -2.124413    0.405768
      3          6           0        3.407420    1.185028   -2.857794
      4          6           0        6.279398    4.485590   -0.742135
      5          6           0        7.966965    1.153148    2.406489
      6          7           0        4.395426   -0.268460   -1.129674
      7          6           0        4.260613   -1.578641   -0.675656
      8          6           0        3.292746   -2.311506   -1.540531
      9          6           0        2.978088   -1.356895   -2.602944
     10          6           0        3.638233   -0.048542   -2.187970
     11          6           0        3.590507   -1.764632   -4.003304
     12          6           0        2.037075   -2.795078   -0.636333
     13          6           0        0.974767   -3.595389   -1.446374
     14          6           0       -0.282298   -3.862413   -0.702083
     15          8           0       -0.582128   -3.384272    0.424490
     16          8           0       -1.019498   -4.790260   -1.362891
     17          7           0        4.832556    2.614985   -1.487543
     18          6           0        3.893219    2.484429   -2.485404
     19          6           0        3.664383    3.748295   -3.107542
     20          6           0        4.577181    4.634410   -2.512941
     21          6           0        5.346811    3.950210   -1.474998
     22          6           0        2.692871    3.958931   -4.244001
     23          6           0        4.706908    6.067615   -3.018296
     24          8           0        3.922816    6.685759   -3.728717
     25          7           0        6.790723    2.666449    0.744987
     26          6           0        6.928382    3.929803    0.340208
     27          6           0        7.890901    4.628188    1.197034
     28          6           0        8.493730    3.588241    2.021261
     29          6           0        7.780432    2.465725    1.757683
     30          6           0        8.333557    5.994959    1.176593
     31          6           0        9.505900    3.742431    3.173910
     32          6           0        8.871248    3.692690    4.639354
     33          7           0        6.288673   -0.060824    1.104833
     34          6           0        7.259556   -0.029568    2.105974
     35          6           0        7.414246   -1.293019    2.829230
     36          6           0        6.609902   -2.202044    2.087796
     37          6           0        5.919705   -1.355980    1.072302
     38          6           0        8.293632   -1.630846    3.998726
     39          6           0        6.045176   -3.551877    2.022837
     40          8           0        6.389729   -4.505495    2.705393
     41          6           0        4.894527   -3.630810    0.933185
     42          6           0        5.307949   -4.650305   -0.081578
     43          8           0        5.779667   -4.449310   -1.148012
     44          8           0        5.037978   -5.825722    0.396027
     45          6           0        5.392556   -6.928088   -0.446486
     46          6           0       -2.195145   -5.081022   -0.571137
     47          6           0       -3.300422   -4.221474   -0.958132
     48          6           0       -3.986928   -3.295600   -0.319579
     49          6           0       -3.802049   -3.120853    1.213136
     50          6           0       -5.138807   -2.503755   -0.843076
     51          6           0       -6.452009   -2.531147   -0.057122
     52          6           0       -7.510697   -1.722385   -0.678725
     53          6           0       -8.953991   -1.977717   -0.003394
     54          6           0       -9.542305   -3.278873   -0.283015
     55          6           0       -9.938699   -0.770573   -0.544131
     56          6           0      -11.313010   -0.845275    0.113879
     57          6           0      -12.231383    0.245489   -0.247153
     58          6           0      -13.578572    0.439628    0.497212
     59          6           0      -14.573303   -0.759553    0.097119
     60          6           0      -14.241235    1.796767    0.232925
     61          6           0      -15.403731    2.166841    1.085791
     62          6           0      -16.097895    3.476131    0.663025
     63          6           0      -17.274730    3.872962    1.619281
     64          6           0      -16.968943    3.946930    3.085209
     65          6           0      -17.953628    5.208568    0.978057
     66          1           0        2.473870    1.065998   -3.544531
     67          1           0        6.665561    5.431554   -0.995885
     68          1           0        8.736513    0.860377    2.996705
     69          1           0        3.700450   -3.320022   -1.773038
     70          1           0        1.823520   -1.197011   -2.681716
     71          1           0        3.243657   -2.740937   -4.118692
     72          1           0        3.173531   -1.114786   -4.716647
     73          1           0        4.684564   -1.843343   -3.944877
     74          1           0        2.417247   -3.585053    0.319417
     75          1           0        1.475545   -1.914871   -0.164150
     76          1           0        0.603800   -2.852043   -2.286930
     77          1           0        1.372014   -4.520394   -1.600655
     78          1           0        1.576951    3.765855   -4.076825
     79          1           0        2.770310    4.952779   -4.714997
     80          1           0        2.929774    3.137332   -5.183725
     81          1           0        5.539002    6.623814   -2.447771
     82          1           0       10.463467    2.953131    3.058022
     83          1           0        9.823961    4.787808    2.962394
     84          1           0        9.528748    3.684855    5.482904
     85          1           0        8.266040    4.474176    4.704188
     86          1           0        8.219914    2.762131    4.909291
     87          1           0        8.103353   -0.880588    4.783315
     88          1           0        7.959000   -2.636920    4.288170
     89          1           0        9.255343   -1.819161    3.796139
     90          1           0        3.837319   -3.862991    1.202280
     91          1           0       -2.530899   -6.247782   -0.951695
     92          1           0       -2.210025   -5.090311    0.578043
     93          1           0       -3.614397   -4.033441   -1.971000
     94          1           0       -2.925828   -3.422697    1.465452
     95          1           0       -3.743240   -2.003573    1.260375
     96          1           0       -4.447091   -3.577432    1.903332
     97          1           0       -4.704524   -1.297838   -0.951597
     98          1           0       -5.230770   -2.707530   -1.940447
     99          1           0       -6.742804   -3.491992   -0.124354
    100          1           0       -6.428864   -2.168663    0.983516
    101          1           0       -7.269485   -0.519426   -0.791703
    102          1           0       -7.381991   -2.040934   -1.831533
    103          1           0       -8.698412   -1.663407    1.141679
    104          1           0       -8.838046   -4.051284    0.212597
    105          1           0      -10.419206   -3.527206    0.377203
    106          1           0       -9.760101   -3.451412   -1.349510
    107          1           0       -9.386074    0.176945   -0.600365
    108          1           0      -10.012411   -0.962760   -1.528482
    109          1           0      -11.807384   -1.913746    0.044371
    110          1           0      -10.846881   -0.897185    1.264642
    111          1           0      -11.770541    1.309259   -0.248851
    112          1           0      -12.631215    0.349253   -1.244187
    113          1           0      -13.424432    0.400934    1.628636
    114          1           0      -14.786638   -0.580989   -0.893022
    115          1           0      -13.912908   -1.712763    0.310426
    116          1           0      -15.508741   -0.787781    0.768828
    117          1           0      -13.403339    2.568516    0.295556
    118          1           0      -14.508804    1.741491   -0.805860
    119          1           0      -16.206833    1.407974    1.260311
    120          1           0      -14.947793    2.200679    2.247750
    121          1           0      -15.253065    4.281927    0.680269
    122          1           0      -16.274442    3.376316   -0.503022
    123          1           0      -18.075508    3.050892    1.729429
    124          1           0      -16.272786    4.526060    3.398600
    125          1           0      -17.901538    4.236020    3.691864
    126          1           0      -16.616818    3.019319    3.236198
    127          1           0      -17.914283    5.233599   -0.136788
    128          1           0      -18.916526    5.405339    1.497226
    129          1           0      -17.302519    6.067187    1.213667
    130          1           0        4.987044   -7.895057    0.036182
    131          1           0        6.576622   -7.016793   -0.506474
    132          1           0        5.036483   -6.724689   -1.489503
    133          8           0        8.053000    6.793248    0.322433
    134          1           0        9.041149    6.442024    2.067707
 ---------------------------------------------------------------------

 SCF Done:  E(RCAM-B3LYP) =  -3043.45996876     A.U. after   15 cycles

 Excitation energies and oscillator strengths:

 Excited State   1:      Singlet-A      2.1268 eV  582.96 nm  f=0.0863  <S**2>=0.000
     243 -> 245        0.10784
     243 -> 246       -0.35307
     244 -> 245        0.58836
 This state for optimization and/or second-order correction.
 Total Energy, E(TD-HF/TD-KS) =  -3043.38180998
 Copying the excited state density for this state as the 1-particle RhoCI density.

 The electronic state is 1-A.
 Alpha  occ. eigenvalues --  -46.81064 -19.24546 -19.23825 -19.17782 -19.17772
 Alpha  occ. eigenvalues --  -19.17629 -19.17466 -19.16132 -14.38842 -14.37425
 Alpha  occ. eigenvalues --  -14.36698 -14.36672 -10.35958 -10.35212 -10.32269
 Alpha  occ. eigenvalues --  -10.31129 -10.30046 -10.29893 -10.29656 -10.28014
 Alpha  occ. eigenvalues --  -10.27914 -10.27402 -10.26884 -10.26699 -10.26585
 Alpha  occ. eigenvalues --  -10.26359 -10.26174 -10.26118 -10.25775 -10.25773
 Alpha  occ. eigenvalues --  -10.25327 -10.25058 -10.24873 -10.24866 -10.24676
 Alpha  occ. eigenvalues --  -10.24487 -10.24339 -10.23933 -10.23859 -10.23830
 Alpha  occ. eigenvalues --  -10.23820 -10.23737 -10.23699 -10.23447 -10.23085
 Alpha  occ. eigenvalues --  -10.23033 -10.22730 -10.22703 -10.22645 -10.22572
 Alpha  occ. eigenvalues --  -10.22456 -10.22245 -10.22118 -10.21889 -10.21817
 Alpha  occ. eigenvalues --  -10.21651 -10.21460 -10.21172 -10.20857 -10.20695
 Alpha  occ. eigenvalues --  -10.20659 -10.20465 -10.20352 -10.20137 -10.18421
 Alpha  occ. eigenvalues --  -10.18098  -3.09732  -1.84667  -1.84229  -1.84126
 Alpha  occ. eigenvalues --   -1.17044  -1.14325  -1.07195  -1.07111  -1.06919
 Alpha  occ. eigenvalues --   -1.06478  -1.03841  -1.01327  -0.99947  -0.99095
 Alpha  occ. eigenvalues --   -0.97909  -0.88254  -0.86732  -0.86139  -0.85836
 Alpha  occ. eigenvalues --   -0.85199  -0.84440  -0.84316  -0.83418  -0.83078
 Alpha  occ. eigenvalues --   -0.82677  -0.82262  -0.81994  -0.81285  -0.80769
 Alpha  occ. eigenvalues --   -0.78841  -0.78538  -0.77750  -0.77207  -0.76563
 Alpha  occ. eigenvalues --   -0.75534  -0.75218  -0.74351  -0.73380  -0.72536
 Alpha  occ. eigenvalues --   -0.72132  -0.71785  -0.70513  -0.69961  -0.69636
 Alpha  occ. eigenvalues --   -0.69422  -0.69094  -0.67312  -0.66740  -0.66218
 Alpha  occ. eigenvalues --   -0.65675  -0.64401  -0.63634  -0.62307  -0.61924
 Alpha  occ. eigenvalues --   -0.61510  -0.61319  -0.60091  -0.59489  -0.59282
 Alpha  occ. eigenvalues --   -0.58687  -0.58346  -0.57602  -0.57404  -0.57047
 Alpha  occ. eigenvalues --   -0.56533  -0.56066  -0.55787  -0.55320  -0.55080
 Alpha  occ. eigenvalues --   -0.54221  -0.53985  -0.53117  -0.52668  -0.52043
 Alpha  occ. eigenvalues --   -0.51884  -0.51733  -0.51417  -0.51192  -0.50789
 Alpha  occ. eigenvalues --   -0.50253  -0.49967  -0.49778  -0.49525  -0.48992
 Alpha  occ. eigenvalues --   -0.48870  -0.48670  -0.48469  -0.48220  -0.47945
 Alpha  occ. eigenvalues --   -0.47812  -0.47488  -0.47163  -0.47091  -0.46751
 Alpha  occ. eigenvalues --   -0.46653  -0.46605  -0.46326  -0.45965  -0.45655
 Alpha  occ. eigenvalues --   -0.45633  -0.45399  -0.45272  -0.45040  -0.44598
 Alpha  occ. eigenvalues --   -0.44538  -0.44495  -0.44275  -0.44103  -0.43844
 Alpha  occ. eigenvalues --   -0.43565  -0.43441  -0.43164  -0.43103  -0.42945
 Alpha  occ. eigenvalues --   -0.42808  -0.42640  -0.42338  -0.42064  -0.41916
 Alpha  occ. eigenvalues --   -0.41681  -0.41518  -0.41370  -0.41304  -0.41207
 Alpha  occ. eigenvalues --   -0.41150  -0.41033  -0.40706  -0.40500  -0.40361
 Alpha  occ. eigenvalues --   -0.40084  -0.39804  -0.39693  -0.39589  -0.39469
 Alpha  occ. eigenvalues --   -0.39300  -0.39014  -0.38783  -0.38633  -0.38605
 Alpha  occ. eigenvalues --   -0.38340  -0.37731  -0.37718  -0.37556  -0.37374
 Alpha  occ. eigenvalues --   -0.37087  -0.36823  -0.36435  -0.36350  -0.35790
 Alpha  occ. eigenvalues --   -0.35239  -0.34958  -0.34466  -0.34369  -0.34302
 Alpha  occ. eigenvalues --   -0.34125  -0.34030  -0.33894  -0.33764  -0.33556
 Alpha  occ. eigenvalues --   -0.32951  -0.32435  -0.32288  -0.32178  -0.32038
 Alpha  occ. eigenvalues --   -0.31379  -0.31165  -0.30993  -0.30708  -0.29903
 Alpha  occ. eigenvalues --   -0.29198  -0.28234  -0.27845  -0.27478  -0.27433
 Alpha  occ. eigenvalues --   -0.27132  -0.26951  -0.23091  -0.22172
 Alpha virt. eigenvalues --   -0.08200  -0.07295  -0.02335  -0.00529   0.00732
 Alpha virt. eigenvalues --    0.02180   0.03573   0.03893   0.03977   0.04338
 Alpha virt. eigenvalues --    0.04885   0.05304   0.07119   0.07983   0.09189

 Mulliken charges:
               1
     1  Mg   0.817463
     2  C    0.029507
     3  C   -0.196187
     4  C   -0.149695
     5  C   -0.131314
     6  N   -0.646388
     7  C    0.323830
     8  C   -0.132621
     9  C   -0.182322
    10  C    0.362807
    11  C   -0.298871
    12  C   -0.187520
    13  C   -0.241954
    14  C    0.602443
    15  O   -0.484942
    16  O   -0.439495
    17  N   -0.728192
    18  C    0.324071
    19  C    0.074015
    20  C   -0.073155
    21  C    0.360150
    22  C   -0.386389
    23  C    0.256465
    24  O   -0.408137
    25  N   -0.690481
    26  C    0.333904
    27  C   -0.042130
    28  C    0.030102
    29  C    0.260592
    30  C    0.214198
    31  C   -0.230297
    32  C   -0.310398
    33  N   -0.725919
    34  C    0.239457
    35  C    0.019551
    36  C    0.018368
    37  C    0.323506
    38  C   -0.380177
    39  C    0.359520
    40  O   -0.458709
    41  C   -0.301648
    42  C    0.616664
    43  O   -0.464457
    44  O   -0.404833
    45  C   -0.097066
    46  C   -0.015925
    47  C   -0.084658
    48  C    0.116076
    49  C   -0.363125
    50  C   -0.225609
    51  C   -0.142373
    52  C   -0.170415
    53  C   -0.057549
    54  C   -0.304188
    55  C   -0.177940
    56  C   -0.159189
    57  C   -0.161754
    58  C   -0.077885
    59  C   -0.303277
    60  C   -0.166940
    61  C   -0.166152
    62  C   -0.159791
    63  C   -0.053868
    64  C   -0.298944
    65  C   -0.323134
    66  H    0.081655
    67  H    0.129725
    68  H    0.087440
    69  H    0.125824
    70  H    0.094284
    71  H    0.117121
    72  H    0.122101
    73  H    0.132579
    74  H    0.067112
    75  H    0.125961
    76  H    0.133634
    77  H    0.143832
    78  H    0.125083
    79  H    0.161873
    80  H    0.085144
    81  H    0.077145
    82  H    0.088891
    83  H    0.111545
    84  H    0.116395
    85  H    0.131843
    86  H    0.091461
    87  H    0.127879
    88  H    0.151033
    89  H    0.150960
    90  H    0.161443
    91  H    0.085364
    92  H    0.141809
    93  H    0.060492
    94  H    0.128889
    95  H    0.101079
    96  H    0.115031
    97  H    0.059089
    98  H    0.091839
    99  H    0.119091
   100  H    0.104055
   101  H    0.066189
   102  H    0.058815
   103  H    0.067338
   104  H    0.092086
   105  H    0.108933
   106  H    0.119421
   107  H    0.090678
   108  H    0.102263
   109  H    0.088572
   110  H    0.066131
   111  H    0.075459
   112  H    0.094621
   113  H    0.068168
   114  H    0.110399
   115  H    0.087265
   116  H    0.096613
   117  H    0.084485
   118  H    0.083424
   119  H    0.094248
   120  H    0.058111
   121  H    0.081683
   122  H    0.083733
   123  H    0.077788
   124  H    0.109977
   125  H    0.088062
   126  H    0.112479
   127  H    0.101155
   128  H    0.096997
   129  H    0.100052
   130  H    0.128391
   131  H    0.124948
   132  H    0.134415
   133  O   -0.417504
   134  H    0.039224
 Sum of Mulliken charges =   0.00000

 Dipole moment (field-independent basis, Debye):
    X=             -1.9714    Y=             -7.0570    Z=              0.5291  Tot=              7.3463
 Quadrupole moment (field-independent basis, Debye-Ang):
   XX=           -396.8675   YY=           -438.7815   ZZ=           -393.6361
   XY=            -22.1767   XZ=             21.9033   YZ=             29.6513

 Normal termination of Gaussian 09 at Wed Oct  9 11:11:00 2019.
