 Gaussian 09, Revision D.01,
 Gaussian 09:  ES64L-G09RevD.01 24-Apr-2013

 ----------------------------------------------------------------------
 # td=(NStates=1) iop(3/107=0140000000,3/108=0140000000) iop(3/107=0140
 000000,3/108=0140000000) CAM-B3LYP/6-31G(d,p)
 ----------------------------------------------------------------------

 --
 TD
 --
 Symbolic Z-matrix:
 Charge =  0 Multiplicity = 1

                         Standard orientation:
 ---------------------------------------------------------------------
 Center     Atomic      Atomic             Coordinates (Angstroms)
 Number     Number       Type             X           Y           Z
 ---------------------------------------------------------------------
      1         12           0       -5.622274    1.281910    0.156399
      2          6           0       -5.143769   -2.158917   -0.346909
      3          6           0       -3.398087    1.072124    2.711001
      4          6           0       -6.122738    4.611025    0.778012
      5          6           0       -7.987196    1.333870   -2.394850
      6          7           0       -4.471952   -0.322140    1.122259
      7          6           0       -4.292444   -1.656054    0.655391
      8          6           0       -3.325011   -2.336748    1.408938
      9          6           0       -3.088591   -1.485027    2.609295
     10          6           0       -3.601566   -0.116986    2.144097
     11          6           0       -3.847881   -1.897815    3.849093
     12          6           0       -2.110730   -2.789970    0.594671
     13          6           0       -0.936123   -3.412530    1.500511
     14          6           0        0.246981   -3.758494    0.605893
     15          8           0        0.370924   -3.317199   -0.484236
     16          8           0        1.117276   -4.610136    1.243308
     17          7           0       -4.782044    2.584501    1.414171
     18          6           0       -3.884822    2.363110    2.462664
     19          6           0       -3.625502    3.596976    3.215566
     20          6           0       -4.351263    4.508539    2.579215
     21          6           0       -5.207772    3.892531    1.515392
     22          6           0       -2.746521    3.586882    4.460793
     23          6           0       -4.508708    5.957202    3.013655
     24          8           0       -3.856200    6.491352    3.980234
     25          7           0       -6.793168    2.656119   -0.666962
     26          6           0       -6.867958    3.927065   -0.278162
     27          6           0       -7.757417    4.667326   -1.178464
     28          6           0       -8.238290    3.747555   -2.125772
     29          6           0       -7.634836    2.499289   -1.778591
     30          6           0       -8.063573    6.146358   -1.120739
     31          6           0       -9.261011    3.922747   -3.089645
     32          6           0       -8.670981    4.075560   -4.525710
     33          7           0       -6.492806   -0.097356   -1.213581
     34          6           0       -7.380275    0.082181   -2.096118
     35          6           0       -7.775995   -1.319013   -2.650587
     36          6           0       -6.816369   -2.082812   -2.067084
     37          6           0       -6.073810   -1.404414   -1.127809
     38          6           0       -8.561125   -1.512902   -3.777275
     39          6           0       -6.469242   -3.474571   -2.014902
     40          8           0       -6.820036   -4.389972   -2.673259
     41          6           0       -5.230107   -3.591586   -0.968430
     42          6           0       -5.437090   -4.690611    0.044871
     43          8           0       -5.755641   -4.573427    1.197123
     44          8           0       -5.141739   -5.851639   -0.469046
     45          6           0       -5.525639   -6.987390    0.447855
     46          6           0        2.290035   -4.904515    0.524376
     47          6           0        3.426724   -4.130158    0.956001
     48          6           0        4.096114   -3.224978    0.131541
     49          6           0        3.705958   -3.077815   -1.332881
     50          6           0        5.227891   -2.342398    0.668625
     51          6           0        6.672938   -2.618744    0.063843
     52          6           0        7.697708   -1.778847    0.683063
     53          6           0        9.020951   -1.923360    0.046842
     54          6           0        9.552738   -3.394363    0.289896
     55          6           0       10.038555   -0.888447    0.444881
     56          6           0       11.311573   -0.999629   -0.255790
     57          6           0       12.310981    0.144615    0.228179
     58          6           0       13.538710    0.380524   -0.650236
     59          6           0       14.505930   -0.880658   -0.611967
     60          6           0       14.391776    1.580283   -0.091034
     61          6           0       15.561318    2.011541   -1.043172
     62          6           0       16.016954    3.435238   -0.594473
     63          6           0       17.316805    3.928551   -1.352840
     64          6           0       16.964543    4.093852   -2.897931
     65          6           0       17.906603    5.260067   -0.818585
     66          1           0       -2.640440    0.958006    3.557796
     67          1           0       -6.278694    5.714753    0.908966
     68          1           0       -8.620797    1.444093   -3.256396
     69          1           0       -3.879664   -3.335393    1.714883
     70          1           0       -2.014681   -1.274656    3.053792
     71          1           0       -3.600920   -3.012069    4.089776
     72          1           0       -3.560954   -1.561631    4.831974
     73          1           0       -4.732852   -2.066969    3.882068
     74          1           0       -2.358984   -3.575558   -0.168336
     75          1           0       -1.577179   -1.869676   -0.073450
     76          1           0       -0.367995   -2.602073    2.210267
     77          1           0       -1.277445   -4.348410    2.144743
     78          1           0       -1.751119    3.416674    4.309096
     79          1           0       -2.750486    4.592246    4.624783
     80          1           0       -3.240280    2.794151    5.164227
     81          1           0       -4.824096    6.730980    2.361450
     82          1           0       -9.761271    2.964668   -3.019514
     83          1           0      -10.062526    4.723301   -2.923523
     84          1           0       -9.555860    4.071276   -5.234986
     85          1           0       -8.212417    5.007450   -4.728490
     86          1           0       -7.846762    3.487899   -4.689676
     87          1           0       -8.378451   -0.963651   -4.752783
     88          1           0       -8.798464   -2.462256   -4.120528
     89          1           0       -9.668609   -1.219040   -3.763750
     90          1           0       -4.338845   -4.027437   -1.539863
     91          1           0        2.421229   -6.065211    0.862094
     92          1           0        2.022253   -4.831655   -0.414600
     93          1           0        3.940928   -4.370418    1.875251
     94          1           0        2.809577   -3.488067   -1.815136
     95          1           0        3.655593   -1.870411   -1.489646
     96          1           0        4.507364   -3.538726   -2.093453
     97          1           0        5.002020   -1.313160    0.690235
     98          1           0        5.537310   -2.680677    1.656048
     99          1           0        6.770356   -3.638756    0.387076
    100          1           0        6.458889   -2.409340   -1.038077
    101          1           0        7.637943   -0.700287    0.595395
    102          1           0        7.931878   -2.127221    1.749529
    103          1           0        8.931522   -2.009215   -1.149567
    104          1           0        8.865379   -4.041686   -0.045836
    105          1           0       10.676462   -3.934275   -0.163115
    106          1           0        9.441200   -3.510296    1.495447
    107          1           0        9.882306    0.245893    0.245426
    108          1           0       10.133643   -1.126528    1.535385
    109          1           0       11.881683   -1.887386   -0.222546
    110          1           0       11.210826   -0.876762   -1.328920
    111          1           0       11.747993    1.273699    0.165130
    112          1           0       12.637895   -0.037503    1.288609
    113          1           0       13.367732    0.567078   -1.575327
    114          1           0       14.830837   -0.879039    0.555880
    115          1           0       14.081768   -1.883672   -0.958472
    116          1           0       15.449693   -0.831935   -1.144749
    117          1           0       13.632970    2.373879    0.264934
    118          1           0       14.908458    1.319827    0.900490
    119          1           0       16.418492    1.343945   -1.182315
    120          1           0       15.229715    2.098007   -2.099256
    121          1           0       15.023814    4.145392   -0.696458
    122          1           0       16.372936    3.264588    0.580113
    123          1           0       17.974804    3.270783   -1.193439
    124          1           0       16.171598    4.751577   -3.090322
    125          1           0       17.761618    4.552371   -3.452822
    126          1           0       16.834024    3.064965   -3.449215
    127          1           0       17.992784    5.134330    0.368156
    128          1           0       18.713233    5.540339   -1.324431
    129          1           0       17.227750    6.019495   -1.008935
    130          1           0       -5.409531   -7.833969   -0.406888
    131          1           0       -6.517308   -6.913206    0.919820
    132          1           0       -4.741261   -7.214306    1.341496
    133          8           0       -7.709325    7.017941   -0.319427
    134          1           0       -8.879649    6.283151   -1.646302
 ---------------------------------------------------------------------

 SCF Done:  E(RCAM-B3LYP) =  -3043.35997415     A.U. after   16 cycles

 Excitation energies and oscillator strengths:

 Excited State   1:      Singlet-A      1.9960 eV  621.17 nm  f=0.1991  <S**2>=0.000
     243 -> 246        0.24936
     244 -> 245        0.65682
 This state for optimization and/or second-order correction.
 Total Energy, E(TD-HF/TD-KS) =  -3043.28662318
 Copying the excited state density for this state as the 1-particle RhoCI density.

 The electronic state is 1-A.
 Alpha  occ. eigenvalues --  -46.81283 -19.23223 -19.21412 -19.17534 -19.17321
 Alpha  occ. eigenvalues --  -19.17202 -19.17108 -19.16424 -14.38288 -14.36993
 Alpha  occ. eigenvalues --  -14.36896 -14.36167 -10.34698 -10.34234 -10.30938
 Alpha  occ. eigenvalues --  -10.30426 -10.30009 -10.29426 -10.27127 -10.27072
 Alpha  occ. eigenvalues --  -10.26690 -10.26561 -10.26556 -10.26400 -10.25882
 Alpha  occ. eigenvalues --  -10.25757 -10.25612 -10.25405 -10.25391 -10.25223
 Alpha  occ. eigenvalues --  -10.25085 -10.24755 -10.24587 -10.24476 -10.24151
 Alpha  occ. eigenvalues --  -10.23931 -10.23914 -10.23896 -10.23876 -10.23719
 Alpha  occ. eigenvalues --  -10.23584 -10.23433 -10.23066 -10.22614 -10.22569
 Alpha  occ. eigenvalues --  -10.22549 -10.22474 -10.22427 -10.21858 -10.21829
 Alpha  occ. eigenvalues --  -10.21765 -10.21637 -10.21586 -10.21524 -10.21308
 Alpha  occ. eigenvalues --  -10.21255 -10.21253 -10.21151 -10.21115 -10.21095
 Alpha  occ. eigenvalues --  -10.20688 -10.20521 -10.20370 -10.20236 -10.19904
 Alpha  occ. eigenvalues --  -10.19186  -3.09874  -1.84816  -1.84362  -1.84261
 Alpha  occ. eigenvalues --   -1.14937  -1.13894  -1.09034  -1.06440  -1.05691
 Alpha  occ. eigenvalues --   -1.04621  -1.03401  -1.01766  -0.99915  -0.99696
 Alpha  occ. eigenvalues --   -0.98551  -0.88497  -0.87234  -0.86797  -0.85905
 Alpha  occ. eigenvalues --   -0.84987  -0.84461  -0.84061  -0.84008  -0.83303
 Alpha  occ. eigenvalues --   -0.83097  -0.82694  -0.81465  -0.80831  -0.79818
 Alpha  occ. eigenvalues --   -0.78914  -0.78345  -0.77930  -0.77095  -0.76351
 Alpha  occ. eigenvalues --   -0.75451  -0.75307  -0.74239  -0.73099  -0.72297
 Alpha  occ. eigenvalues --   -0.70863  -0.70808  -0.70399  -0.69823  -0.69368
 Alpha  occ. eigenvalues --   -0.69217  -0.68463  -0.67951  -0.67527  -0.66494
 Alpha  occ. eigenvalues --   -0.66128  -0.65177  -0.65066  -0.63093  -0.62458
 Alpha  occ. eigenvalues --   -0.61278  -0.60665  -0.60428  -0.59738  -0.59308
 Alpha  occ. eigenvalues --   -0.58865  -0.58750  -0.57994  -0.57526  -0.57393
 Alpha  occ. eigenvalues --   -0.56442  -0.56372  -0.55800  -0.55644  -0.55097
 Alpha  occ. eigenvalues --   -0.54011  -0.53094  -0.53076  -0.52971  -0.52474
 Alpha  occ. eigenvalues --   -0.52168  -0.52010  -0.51242  -0.51019  -0.50810
 Alpha  occ. eigenvalues --   -0.50206  -0.49883  -0.49321  -0.49197  -0.48886
 Alpha  occ. eigenvalues --   -0.48791  -0.48484  -0.48286  -0.48140  -0.47874
 Alpha  occ. eigenvalues --   -0.47847  -0.47564  -0.47399  -0.46943  -0.46744
 Alpha  occ. eigenvalues --   -0.46445  -0.46163  -0.46089  -0.45738  -0.45659
 Alpha  occ. eigenvalues --   -0.45342  -0.45275  -0.45097  -0.44752  -0.44563
 Alpha  occ. eigenvalues --   -0.44348  -0.44000  -0.43806  -0.43669  -0.43510
 Alpha  occ. eigenvalues --   -0.43401  -0.43339  -0.43123  -0.42963  -0.42859
 Alpha  occ. eigenvalues --   -0.42522  -0.42260  -0.42061  -0.41916  -0.41749
 Alpha  occ. eigenvalues --   -0.41574  -0.41421  -0.41191  -0.41143  -0.40996
 Alpha  occ. eigenvalues --   -0.40727  -0.40466  -0.40316  -0.40276  -0.39928
 Alpha  occ. eigenvalues --   -0.39794  -0.39646  -0.39435  -0.39154  -0.38997
 Alpha  occ. eigenvalues --   -0.38905  -0.38702  -0.38457  -0.38314  -0.37879
 Alpha  occ. eigenvalues --   -0.37700  -0.37614  -0.37535  -0.37204  -0.37192
 Alpha  occ. eigenvalues --   -0.36889  -0.36479  -0.36288  -0.35881  -0.35828
 Alpha  occ. eigenvalues --   -0.35547  -0.35437  -0.35228  -0.35050  -0.34527
 Alpha  occ. eigenvalues --   -0.34292  -0.34026  -0.33607  -0.33486  -0.33421
 Alpha  occ. eigenvalues --   -0.33046  -0.32553  -0.32358  -0.31884  -0.31409
 Alpha  occ. eigenvalues --   -0.31148  -0.30871  -0.30721  -0.30663  -0.29945
 Alpha  occ. eigenvalues --   -0.28877  -0.28243  -0.27888  -0.27592  -0.27455
 Alpha  occ. eigenvalues --   -0.27352  -0.26626  -0.23116  -0.20822
 Alpha virt. eigenvalues --   -0.08064  -0.06653  -0.01760  -0.00975   0.00244
 Alpha virt. eigenvalues --    0.02077   0.03408   0.03942   0.04406   0.04641
 Alpha virt. eigenvalues --    0.05082   0.05421   0.07747   0.08175   0.09421

 Mulliken charges:
               1
     1  Mg   0.832687
     2  C    0.095807
     3  C   -0.223103
     4  C   -0.173664
     5  C   -0.162911
     6  N   -0.634344
     7  C    0.327588
     8  C   -0.187778
     9  C   -0.133898
    10  C    0.380136
    11  C   -0.296108
    12  C   -0.165573
    13  C   -0.253755
    14  C    0.594115
    15  O   -0.445670
    16  O   -0.465554
    17  N   -0.734035
    18  C    0.308658
    19  C    0.067704
    20  C   -0.087915
    21  C    0.358916
    22  C   -0.353543
    23  C    0.231669
    24  O   -0.434125
    25  N   -0.734477
    26  C    0.318095
    27  C   -0.099233
    28  C    0.073014
    29  C    0.308856
    30  C    0.282332
    31  C   -0.276427
    32  C   -0.324664
    33  N   -0.704689
    34  C    0.272131
    35  C    0.042840
    36  C    0.029260
    37  C    0.271219
    38  C   -0.426073
    39  C    0.363566
    40  O   -0.426311
    41  C   -0.354769
    42  C    0.620078
    43  O   -0.485508
    44  O   -0.430636
    45  C   -0.094036
    46  C    0.027747
    47  C   -0.117362
    48  C    0.132723
    49  C   -0.363214
    50  C   -0.249866
    51  C   -0.183022
    52  C   -0.149146
    53  C   -0.073984
    54  C   -0.293079
    55  C   -0.136066
    56  C   -0.179049
    57  C   -0.165694
    58  C   -0.040042
    59  C   -0.312102
    60  C   -0.172072
    61  C   -0.183886
    62  C   -0.151019
    63  C   -0.035697
    64  C   -0.329546
    65  C   -0.308117
    66  H    0.070260
    67  H    0.147296
    68  H    0.097808
    69  H    0.139451
    70  H    0.093452
    71  H    0.084509
    72  H    0.113792
    73  H    0.134296
    74  H    0.118193
    75  H    0.107542
    76  H    0.122985
    77  H    0.122494
    78  H    0.133782
    79  H    0.159175
    80  H    0.121526
    81  H    0.110719
    82  H    0.121294
    83  H    0.114193
    84  H    0.105540
    85  H    0.122077
    86  H    0.124846
    87  H    0.129025
    88  H    0.148096
    89  H    0.107498
    90  H    0.155900
    91  H    0.083042
    92  H    0.114028
    93  H    0.084138
    94  H    0.145837
    95  H    0.090178
    96  H    0.101778
    97  H    0.114015
    98  H    0.098523
    99  H    0.111276
   100  H    0.099586
   101  H    0.104557
   102  H    0.082064
   103  H    0.061689
   104  H    0.125579
   105  H    0.067485
   106  H    0.059913
   107  H    0.083346
   108  H    0.083248
   109  H    0.106225
   110  H    0.092369
   111  H    0.043715
   112  H    0.091599
   113  H    0.093730
   114  H    0.075428
   115  H    0.088608
   116  H    0.103827
   117  H    0.080825
   118  H    0.082189
   119  H    0.098801
   120  H    0.093303
   121  H    0.072169
   122  H    0.054067
   123  H    0.097281
   124  H    0.113740
   125  H    0.096911
   126  H    0.085477
   127  H    0.078906
   128  H    0.109795
   129  H    0.108541
   130  H    0.120543
   131  H    0.157755
   132  H    0.117277
   133  O   -0.435058
   134  H    0.068568
 Sum of Mulliken charges =   0.00000

 Dipole moment (field-independent basis, Debye):
    X=              1.8548    Y=             -4.8627    Z=             -2.1993  Tot=              5.6500
 Quadrupole moment (field-independent basis, Debye-Ang):
   XX=           -374.8297   YY=           -435.6471   ZZ=           -393.4840
   XY=              9.4295   XZ=             14.4416   YZ=            -39.0244

 Normal termination of Gaussian 09 at Wed Oct  9 00:29:56 2019.
