 Gaussian 09, Revision D.01,
 Gaussian 09:  ES64L-G09RevD.01 24-Apr-2013

 ----------------------------------------------------------------------
 # td=(NStates=1) iop(3/107=0140000000,3/108=0140000000) iop(3/107=0140
 000000,3/108=0140000000) CAM-B3LYP/6-31G(d,p)
 ----------------------------------------------------------------------

 --
 TD
 --
 Symbolic Z-matrix:
 Charge =  0 Multiplicity = 1

                         Standard orientation:
 ---------------------------------------------------------------------
 Center     Atomic      Atomic             Coordinates (Angstroms)
 Number     Number       Type             X           Y           Z
 ---------------------------------------------------------------------
      1         12           0       -5.583372    1.232560    0.224847
      2          6           0       -5.113822   -2.122429   -0.336171
      3          6           0       -3.370719    1.127855    2.756139
      4          6           0       -6.192943    4.581228    0.823062
      5          6           0       -7.956044    1.166561   -2.409226
      6          7           0       -4.329722   -0.257726    1.089303
      7          6           0       -4.375714   -1.581655    0.696542
      8          6           0       -3.325326   -2.286179    1.462269
      9          6           0       -2.964318   -1.403884    2.624188
     10          6           0       -3.544268   -0.066080    2.174838
     11          6           0       -3.520047   -1.822934    3.939994
     12          6           0       -1.982998   -2.734242    0.639920
     13          6           0       -1.025296   -3.495893    1.576268
     14          6           0        0.266276   -3.901003    0.694660
     15          8           0        0.473937   -3.385701   -0.410914
     16          8           0        1.035001   -4.887332    1.327107
     17          7           0       -4.964242    2.639579    1.579689
     18          6           0       -4.011761    2.392141    2.505134
     19          6           0       -3.610346    3.583794    3.189712
     20          6           0       -4.385839    4.635259    2.589074
     21          6           0       -5.240690    3.981452    1.614421
     22          6           0       -2.675990    3.805422    4.293494
     23          6           0       -4.427942    6.040866    2.888743
     24          8           0       -3.882364    6.598358    3.812546
     25          7           0       -6.867987    2.591308   -0.658910
     26          6           0       -6.845578    3.959791   -0.318759
     27          6           0       -7.722605    4.669253   -1.202931
     28          6           0       -8.272802    3.723160   -2.064693
     29          6           0       -7.668081    2.416671   -1.748060
     30          6           0       -8.206876    6.020348   -1.262217
     31          6           0       -9.351044    3.899350   -3.275123
     32          6           0       -8.525134    3.864324   -4.591060
     33          7           0       -6.300734   -0.063502   -1.089068
     34          6           0       -7.296233    0.041461   -2.068048
     35          6           0       -7.569119   -1.224682   -2.800731
     36          6           0       -6.682458   -2.083920   -2.046876
     37          6           0       -6.024607   -1.315739   -1.160890
     38          6           0       -8.713211   -1.468728   -3.776088
     39          6           0       -6.280092   -3.501397   -2.101419
     40          8           0       -6.549523   -4.471886   -2.623351
     41          6           0       -5.143379   -3.522902   -0.926069
     42          6           0       -5.581595   -4.612634    0.073105
     43          8           0       -5.840784   -4.425853    1.208666
     44          8           0       -5.319326   -5.833827   -0.399963
     45          6           0       -5.602978   -6.811122    0.518970
     46          6           0        2.327234   -5.125576    0.579967
     47          6           0        3.304157   -4.074278    0.908529
     48          6           0        3.965621   -3.177245    0.076068
     49          6           0        3.729043   -3.167931   -1.382351
     50          6           0        5.113593   -2.358118    0.726447
     51          6           0        6.521860   -2.746718    0.152179
     52          6           0        7.631492   -1.945103    0.583070
     53          6           0        8.943975   -2.184218   -0.187863
     54          6           0        9.503473   -3.565896    0.080924
     55          6           0        9.973908   -0.957793    0.384606
     56          6           0       11.376786   -0.946352   -0.376565
     57          6           0       12.150239    0.308820    0.037267
     58          6           0       13.560546    0.393434   -0.540848
     59          6           0       14.505896   -0.732201   -0.374170
     60          6           0       14.211517    1.759903   -0.142376
     61          6           0       15.384693    2.189412   -1.105974
     62          6           0       15.987158    3.515843   -0.599941
     63          6           0       17.355672    3.880961   -1.231249
     64          6           0       17.256137    3.973746   -2.736283
     65          6           0       17.994860    5.170449   -0.657202
     66          1           0       -2.703904    1.022678    3.695806
     67          1           0       -6.204718    5.777749    0.525525
     68          1           0       -8.720813    1.111211   -3.025249
     69          1           0       -3.902223   -3.435919    1.863464
     70          1           0       -1.768930   -1.326569    2.671086
     71          1           0       -3.068503   -2.531180    4.356716
     72          1           0       -3.358668   -1.064747    4.832252
     73          1           0       -4.614345   -1.840920    3.923890
     74          1           0       -2.194914   -3.365590   -0.223759
     75          1           0       -1.480685   -1.817849    0.336628
     76          1           0       -0.670367   -2.944285    2.529710
     77          1           0       -1.280317   -4.545159    1.967756
     78          1           0       -1.586392    3.412345    4.006748
     79          1           0       -2.604290    4.823436    4.730711
     80          1           0       -2.930126    3.200415    5.167330
     81          1           0       -5.214677    6.530421    2.273115
     82          1           0      -10.188819    3.284890   -3.153488
     83          1           0       -9.807254    4.992802   -3.049153
     84          1           0       -9.004887    3.973389   -5.605906
     85          1           0       -7.695775    4.592462   -4.555542
     86          1           0       -8.091987    2.866648   -4.581627
     87          1           0       -8.330250   -0.718038   -4.556450
     88          1           0       -8.753005   -2.568488   -4.169605
     89          1           0       -9.758490   -1.209508   -3.481280
     90          1           0       -4.199748   -3.872892   -1.474711
     91          1           0        2.415337   -6.053811    1.080217
     92          1           0        1.827506   -5.304917   -0.483024
     93          1           0        3.641179   -4.094902    1.877414
     94          1           0        2.686227   -3.232127   -1.542874
     95          1           0        3.904279   -2.171970   -1.734360
     96          1           0        4.377030   -3.878115   -1.852310
     97          1           0        5.077142   -1.328740    0.355917
     98          1           0        5.251787   -2.248844    1.828022
     99          1           0        6.834750   -3.801461    0.265818
    100          1           0        6.504453   -2.651577   -1.014136
    101          1           0        7.297033   -0.759628    0.518118
    102          1           0        7.808997   -2.160277    1.670609
    103          1           0        8.817435   -1.971241   -1.421085
    104          1           0        8.766384   -4.334524   -0.204823
    105          1           0       10.524870   -3.593514   -0.461892
    106          1           0        9.723604   -3.714433    1.090813
    107          1           0        9.604280    0.009184   -0.060757
    108          1           0       10.275831   -0.979263    1.408233
    109          1           0       11.832273   -1.887484   -0.159023
    110          1           0       11.157561   -0.783189   -1.438379
    111          1           0       11.569119    1.215226   -0.136983
    112          1           0       12.419466    0.198280    1.089288
    113          1           0       13.386584    0.660834   -1.601228
    114          1           0       14.609573   -0.766104    0.717975
    115          1           0       14.111397   -1.852350   -0.705630
    116          1           0       15.206139   -0.508055   -0.804422
    117          1           0       13.498724    2.645329   -0.223993
    118          1           0       14.541635    1.594516    0.859227
    119          1           0       16.046064    1.375483   -1.119698
    120          1           0       14.992801    2.188279   -2.171336
    121          1           0       15.272989    4.412033   -0.860964
    122          1           0       16.010707    3.650244    0.442682
    123          1           0       17.987495    2.933712   -1.174715
    124          1           0       16.427458    4.554838   -3.041798
    125          1           0       18.231035    4.206867   -3.154170
    126          1           0       17.022598    2.983818   -3.243456
    127          1           0       18.236019    5.105412    0.398828
    128          1           0       18.957078    5.328576   -1.241368
    129          1           0       17.362981    6.036072   -0.894678
    130          1           0       -5.151301   -7.840793    0.103954
    131          1           0       -6.536562   -6.863042    1.073403
    132          1           0       -5.057050   -6.764323    1.512079
    133          8           0       -7.787757    6.866394   -0.495452
    134          1           0       -9.258710    6.271176   -2.042287
 ---------------------------------------------------------------------

 SCF Done:  E(RCAM-B3LYP) =  -3043.45358272     A.U. after   15 cycles

 Excitation energies and oscillator strengths:

 Excited State   1:      Singlet-A      2.0561 eV  603.00 nm  f=0.1408  <S**2>=0.000
     243 -> 245       -0.16792
     243 -> 246        0.28202
     244 -> 245        0.60762
     244 -> 246        0.11956
 This state for optimization and/or second-order correction.
 Total Energy, E(TD-HF/TD-KS) =  -3043.37802212
 Copying the excited state density for this state as the 1-particle RhoCI density.

 The electronic state is 1-A.
 Alpha  occ. eigenvalues --  -46.81368 -19.23194 -19.21491 -19.18694 -19.17658
 Alpha  occ. eigenvalues --  -19.17535 -19.17362 -19.16405 -14.38100 -14.37246
 Alpha  occ. eigenvalues --  -14.37164 -14.37006 -10.35148 -10.34653 -10.31824
 Alpha  occ. eigenvalues --  -10.31643 -10.29151 -10.27634 -10.27434 -10.27103
 Alpha  occ. eigenvalues --  -10.27063 -10.26979 -10.26913 -10.26551 -10.26500
 Alpha  occ. eigenvalues --  -10.26261 -10.26154 -10.25887 -10.25809 -10.25015
 Alpha  occ. eigenvalues --  -10.24863 -10.24833 -10.24816 -10.24694 -10.24468
 Alpha  occ. eigenvalues --  -10.24440 -10.24430 -10.24237 -10.24168 -10.23815
 Alpha  occ. eigenvalues --  -10.23659 -10.23571 -10.22829 -10.22810 -10.22781
 Alpha  occ. eigenvalues --  -10.22689 -10.22526 -10.22470 -10.22265 -10.21786
 Alpha  occ. eigenvalues --  -10.21632 -10.21451 -10.21330 -10.21073 -10.20971
 Alpha  occ. eigenvalues --  -10.20941 -10.20932 -10.20855 -10.20628 -10.20613
 Alpha  occ. eigenvalues --  -10.20513 -10.20104 -10.20046 -10.19985 -10.19372
 Alpha  occ. eigenvalues --  -10.19226  -3.10007  -1.84948  -1.84476  -1.84422
 Alpha  occ. eigenvalues --   -1.16373  -1.13037  -1.10329  -1.07279  -1.06846
 Alpha  occ. eigenvalues --   -1.06430  -1.03382  -1.02669  -1.00362  -0.99525
 Alpha  occ. eigenvalues --   -0.98372  -0.88201  -0.85909  -0.85564  -0.85479
 Alpha  occ. eigenvalues --   -0.84696  -0.84196  -0.83814  -0.83536  -0.83323
 Alpha  occ. eigenvalues --   -0.83268  -0.82809  -0.80956  -0.80169  -0.79616
 Alpha  occ. eigenvalues --   -0.78932  -0.78005  -0.77431  -0.76988  -0.76796
 Alpha  occ. eigenvalues --   -0.76225  -0.75391  -0.73887  -0.72386  -0.72066
 Alpha  occ. eigenvalues --   -0.71871  -0.71668  -0.70873  -0.69572  -0.69343
 Alpha  occ. eigenvalues --   -0.68961  -0.68784  -0.66937  -0.66466  -0.66036
 Alpha  occ. eigenvalues --   -0.65654  -0.64588  -0.63948  -0.62197  -0.62128
 Alpha  occ. eigenvalues --   -0.61470  -0.60816  -0.59859  -0.59514  -0.58540
 Alpha  occ. eigenvalues --   -0.57955  -0.57767  -0.57503  -0.57091  -0.56963
 Alpha  occ. eigenvalues --   -0.56174  -0.55822  -0.55507  -0.55171  -0.54357
 Alpha  occ. eigenvalues --   -0.53531  -0.53094  -0.52606  -0.52377  -0.51924
 Alpha  occ. eigenvalues --   -0.51806  -0.51627  -0.51158  -0.50602  -0.50389
 Alpha  occ. eigenvalues --   -0.50260  -0.49816  -0.49426  -0.49059  -0.48909
 Alpha  occ. eigenvalues --   -0.48745  -0.48663  -0.48584  -0.48269  -0.48157
 Alpha  occ. eigenvalues --   -0.47794  -0.47686  -0.47487  -0.47259  -0.46938
 Alpha  occ. eigenvalues --   -0.46663  -0.46399  -0.46344  -0.46188  -0.45908
 Alpha  occ. eigenvalues --   -0.45884  -0.45682  -0.45117  -0.45049  -0.44851
 Alpha  occ. eigenvalues --   -0.44709  -0.44466  -0.44317  -0.44179  -0.43765
 Alpha  occ. eigenvalues --   -0.43682  -0.43535  -0.43382  -0.42875  -0.42830
 Alpha  occ. eigenvalues --   -0.42630  -0.42456  -0.42332  -0.42172  -0.41825
 Alpha  occ. eigenvalues --   -0.41554  -0.41370  -0.41337  -0.41284  -0.41197
 Alpha  occ. eigenvalues --   -0.41081  -0.41004  -0.40458  -0.40440  -0.40262
 Alpha  occ. eigenvalues --   -0.39822  -0.39758  -0.39479  -0.39400  -0.39319
 Alpha  occ. eigenvalues --   -0.39117  -0.38984  -0.38862  -0.38768  -0.38691
 Alpha  occ. eigenvalues --   -0.38286  -0.37759  -0.37279  -0.37173  -0.36981
 Alpha  occ. eigenvalues --   -0.36708  -0.36604  -0.36225  -0.35988  -0.35733
 Alpha  occ. eigenvalues --   -0.35604  -0.35460  -0.35128  -0.34879  -0.34833
 Alpha  occ. eigenvalues --   -0.34623  -0.33822  -0.33722  -0.33174  -0.32812
 Alpha  occ. eigenvalues --   -0.32726  -0.32417  -0.32393  -0.31971  -0.31725
 Alpha  occ. eigenvalues --   -0.31417  -0.31115  -0.30122  -0.29770  -0.29537
 Alpha  occ. eigenvalues --   -0.29142  -0.28453  -0.27763  -0.27593  -0.27433
 Alpha  occ. eigenvalues --   -0.26920  -0.26662  -0.22872  -0.22052
 Alpha virt. eigenvalues --   -0.08775  -0.06722  -0.00755  -0.00634   0.01258
 Alpha virt. eigenvalues --    0.02084   0.03157   0.03398   0.03627   0.04336
 Alpha virt. eigenvalues --    0.05224   0.05705   0.07734   0.08086   0.08490

 Mulliken charges:
               1
     1  Mg   0.822152
     2  C    0.087725
     3  C   -0.203996
     4  C   -0.183968
     5  C   -0.128761
     6  N   -0.666766
     7  C    0.336313
     8  C   -0.162305
     9  C   -0.148222
    10  C    0.371495
    11  C   -0.284648
    12  C   -0.163104
    13  C   -0.261231
    14  C    0.592796
    15  O   -0.465902
    16  O   -0.498951
    17  N   -0.703262
    18  C    0.327497
    19  C    0.073028
    20  C   -0.025319
    21  C    0.316463
    22  C   -0.405343
    23  C    0.238266
    24  O   -0.419844
    25  N   -0.682845
    26  C    0.262703
    27  C    0.005040
    28  C   -0.022157
    29  C    0.280710
    30  C    0.231834
    31  C   -0.220277
    32  C   -0.308577
    33  N   -0.725645
    34  C    0.251487
    35  C    0.039179
    36  C   -0.030012
    37  C    0.360112
    38  C   -0.365719
    39  C    0.357460
    40  O   -0.375820
    41  C   -0.390428
    42  C    0.625049
    43  O   -0.449061
    44  O   -0.396516
    45  C   -0.104334
    46  C   -0.015983
    47  C   -0.096635
    48  C    0.115166
    49  C   -0.379534
    50  C   -0.230584
    51  C   -0.172893
    52  C   -0.137277
    53  C   -0.050518
    54  C   -0.312210
    55  C   -0.178452
    56  C   -0.197302
    57  C   -0.161305
    58  C   -0.082406
    59  C   -0.245271
    60  C   -0.188772
    61  C   -0.187171
    62  C   -0.158458
    63  C   -0.054474
    64  C   -0.308553
    65  C   -0.313077
    66  H    0.082534
    67  H    0.149686
    68  H    0.079618
    69  H    0.089678
    70  H    0.090992
    71  H    0.122080
    72  H    0.078464
    73  H    0.129656
    74  H    0.119724
    75  H    0.130447
    76  H    0.125971
    77  H    0.128739
    78  H    0.104917
    79  H    0.164745
    80  H    0.127116
    81  H    0.069188
    82  H    0.122923
    83  H    0.082390
    84  H    0.105652
    85  H    0.123198
    86  H    0.108502
    87  H    0.131030
    88  H    0.143353
    89  H    0.145109
    90  H    0.152074
    91  H    0.126629
    92  H    0.125049
    93  H    0.082891
    94  H    0.157495
    95  H    0.110254
    96  H    0.133108
    97  H    0.104446
    98  H    0.101695
    99  H    0.090050
   100  H    0.075221
   101  H    0.057220
   102  H    0.084004
   103  H    0.055524
   104  H    0.105956
   105  H    0.098828
   106  H    0.114543
   107  H    0.089813
   108  H    0.099072
   109  H    0.092910
   110  H    0.089192
   111  H    0.089649
   112  H    0.074759
   113  H    0.067546
   114  H    0.092377
   115  H    0.075615
   116  H    0.097907
   117  H    0.084627
   118  H    0.088856
   119  H    0.101866
   120  H    0.092078
   121  H    0.065667
   122  H    0.098740
   123  H    0.076552
   124  H    0.103693
   125  H    0.098834
   126  H    0.087332
   127  H    0.106317
   128  H    0.093420
   129  H    0.106212
   130  H    0.102763
   131  H    0.134359
   132  H    0.102772
   133  O   -0.412610
   134  H    0.038392
 Sum of Mulliken charges =   0.00000

 Dipole moment (field-independent basis, Debye):
    X=              2.2754    Y=             -5.6852    Z=             -2.0081  Tot=              6.4445
 Quadrupole moment (field-independent basis, Debye-Ang):
   XX=           -362.9253   YY=           -449.8648   ZZ=           -390.8101
   XY=             15.7931   XZ=             31.2306   YZ=            -32.3462

 Normal termination of Gaussian 09 at Wed Oct  9 07:08:55 2019.
