 Gaussian 09, Revision D.01,
 Gaussian 09:  ES64L-G09RevD.01 24-Apr-2013

 ----------------------------------------------------------------------
 # td=(NStates=1) iop(3/107=0140000000,3/108=0140000000) iop(3/107=0140
 000000,3/108=0140000000) CAM-B3LYP/6-31G(d,p)
 ----------------------------------------------------------------------

 --
 TD
 --
 Symbolic Z-matrix:
 Charge =  0 Multiplicity = 1

                         Standard orientation:
 ---------------------------------------------------------------------
 Center     Atomic      Atomic             Coordinates (Angstroms)
 Number     Number       Type             X           Y           Z
 ---------------------------------------------------------------------
      1         12           0       -5.615365    1.175160    0.274777
      2          6           0       -5.081546   -2.222374   -0.326266
      3          6           0       -3.360898    1.224728    2.766255
      4          6           0       -6.076236    4.573954    0.672791
      5          6           0       -8.009567    1.146468   -2.366335
      6          7           0       -4.469109   -0.259627    1.120811
      7          6           0       -4.366731   -1.634919    0.759544
      8          6           0       -3.266664   -2.287160    1.490513
      9          6           0       -2.945402   -1.355924    2.668515
     10          6           0       -3.573170   -0.024957    2.197004
     11          6           0       -3.669553   -1.781424    4.023118
     12          6           0       -1.960828   -2.587713    0.691015
     13          6           0       -1.015379   -3.577654    1.484431
     14          6           0        0.224760   -3.882333    0.586682
     15          8           0        0.444636   -3.413096   -0.494219
     16          8           0        1.041848   -4.730003    1.295310
     17          7           0       -4.922587    2.640529    1.578766
     18          6           0       -3.956517    2.461041    2.512649
     19          6           0       -3.669831    3.644305    3.165601
     20          6           0       -4.461968    4.654615    2.505638
     21          6           0       -5.151604    3.945167    1.483702
     22          6           0       -2.662830    3.761534    4.244925
     23          6           0       -4.445943    6.062764    2.793101
     24          8           0       -3.948355    6.599464    3.801381
     25          7           0       -6.755786    2.590939   -0.714438
     26          6           0       -6.818771    3.985625   -0.426370
     27          6           0       -7.777627    4.708839   -1.243706
     28          6           0       -8.341626    3.661721   -2.119629
     29          6           0       -7.652080    2.394567   -1.766314
     30          6           0       -8.197871    6.115390   -1.161962
     31          6           0       -9.327545    3.950128   -3.236104
     32          6           0       -8.738466    3.844440   -4.628851
     33          7           0       -6.430661   -0.118850   -1.002086
     34          6           0       -7.386690    0.013114   -2.049580
     35          6           0       -7.572480   -1.353459   -2.729519
     36          6           0       -6.782354   -2.194868   -2.033517
     37          6           0       -6.097665   -1.419055   -1.049644
     38          6           0       -8.469561   -1.555173   -3.911281
     39          6           0       -6.277222   -3.601790   -2.015307
     40          8           0       -6.616752   -4.524489   -2.712477
     41          6           0       -5.157235   -3.626701   -0.877203
     42          6           0       -5.471596   -4.637108    0.112315
     43          8           0       -5.873589   -4.474893    1.302786
     44          8           0       -5.101702   -5.776447   -0.315180
     45          6           0       -5.325694   -6.859854    0.498779
     46          6           0        2.295144   -5.017772    0.648901
     47          6           0        3.316725   -3.964809    0.946883
     48          6           0        3.952770   -3.188292    0.088178
     49          6           0        3.703206   -3.088957   -1.381422
     50          6           0        5.144578   -2.339144    0.572125
     51          6           0        6.380017   -2.692171   -0.090506
     52          6           0        7.610436   -1.941253    0.551116
     53          6           0        9.014127   -2.127322   -0.157578
     54          6           0        9.547388   -3.508082    0.037834
     55          6           0       10.001931   -1.003344    0.455718
     56          6           0       11.290205   -0.898046   -0.334690
     57          6           0       12.229450    0.203187    0.173849
     58          6           0       13.516626    0.423225   -0.424677
     59          6           0       14.434801   -0.708408   -0.137717
     60          6           0       14.326045    1.756606   -0.038679
     61          6           0       15.572553    1.987138   -0.926663
     62          6           0       16.175701    3.406613   -0.688377
     63          6           0       17.384711    3.868421   -1.492451
     64          6           0       16.945861    4.174277   -2.926478
     65          6           0       17.998238    5.127554   -0.868814
     66          1           0       -2.725143    1.265831    3.624543
     67          1           0       -6.371183    5.642151    0.543199
     68          1           0       -8.789981    1.149682   -3.076669
     69          1           0       -3.830754   -3.163509    1.627638
     70          1           0       -1.837616   -1.251561    2.940461
     71          1           0       -3.213284   -2.590417    4.394748
     72          1           0       -3.711078   -0.913105    4.823505
     73          1           0       -4.712472   -1.784840    4.058901
     74          1           0       -2.193612   -3.229301   -0.278740
     75          1           0       -1.375906   -1.729573    0.238094
     76          1           0       -0.641658   -2.869802    2.166264
     77          1           0       -1.477622   -4.472541    1.731678
     78          1           0       -1.603713    3.701999    3.968988
     79          1           0       -2.560240    4.887782    4.270915
     80          1           0       -2.976629    3.192978    5.210216
     81          1           0       -5.050379    6.603884    2.149992
     82          1           0      -10.080215    3.299933   -2.955245
     83          1           0       -9.938780    4.999659   -3.250272
     84          1           0       -9.426939    3.783596   -5.366673
     85          1           0       -7.983008    4.685926   -4.752598
     86          1           0       -8.154905    2.985777   -4.764733
     87          1           0       -7.984380   -1.096836   -4.931192
     88          1           0       -8.315622   -2.654509   -4.020023
     89          1           0       -9.534341   -1.037335   -3.681597
     90          1           0       -4.354667   -4.010406   -1.566197
     91          1           0        2.592339   -5.973774    1.143327
     92          1           0        2.198493   -5.076431   -0.410897
     93          1           0        3.825489   -3.866567    2.054031
     94          1           0        2.577789   -3.311921   -1.365143
     95          1           0        3.827429   -1.995392   -1.655097
     96          1           0        4.251957   -4.017064   -1.871685
     97          1           0        4.859566   -1.206549    0.670455
     98          1           0        5.307207   -2.678078    1.643869
     99          1           0        6.419775   -3.740508   -0.025257
    100          1           0        6.400541   -2.314945   -1.244879
    101          1           0        7.264465   -0.862355    0.494910
    102          1           0        7.713648   -2.172688    1.660708
    103          1           0        9.147946   -1.842417   -1.285400
    104          1           0        8.759238   -4.176620   -0.174166
    105          1           0       10.586329   -3.537127   -0.390553
    106          1           0        9.706309   -3.810254    1.084009
    107          1           0        9.559799   -0.023101    0.297774
    108          1           0       10.029835   -1.213441    1.494781
    109          1           0       11.838763   -1.897425   -0.260142
    110          1           0       11.017999   -0.765132   -1.312093
    111          1           0       11.672423    1.322898   -0.003534
    112          1           0       12.357610    0.279572    1.206634
    113          1           0       13.327326    0.315643   -1.521128
    114          1           0       14.827140   -0.517046    1.026762
    115          1           0       14.069377   -1.731053   -0.300252
    116          1           0       15.351526   -0.729717   -0.552253
    117          1           0       13.654813    2.770461   -0.248576
    118          1           0       14.543998    1.782653    1.076980
    119          1           0       16.241459    1.135261   -0.602607
    120          1           0       15.322023    1.968891   -1.949422
    121          1           0       15.303661    4.170052   -0.733469
    122          1           0       16.323280    3.292180    0.426576
    123          1           0       18.042825    2.993804   -1.173913
    124          1           0       16.293996    4.830518   -2.933116
    125          1           0       17.897417    4.421743   -3.540595
    126          1           0       16.689288    3.270661   -3.455929
    127          1           0       18.217028    5.198485    0.203336
    128          1           0       18.883884    5.337178   -1.429609
    129          1           0       17.099033    5.737791   -0.813835
    130          1           0       -4.956602   -7.771961   -0.039978
    131          1           0       -6.449172   -6.887274    0.657919
    132          1           0       -4.876477   -6.684179    1.414118
    133          8           0       -7.759172    6.817553   -0.260338
    134          1           0       -8.917294    6.430067   -1.813909
 ---------------------------------------------------------------------

 SCF Done:  E(RCAM-B3LYP) =  -3043.49321988     A.U. after   16 cycles

 Excitation energies and oscillator strengths:

 Excited State   1:      Singlet-A      2.0067 eV  617.84 nm  f=0.1575  <S**2>=0.000
     243 -> 245       -0.11193
     243 -> 246        0.26187
     244 -> 245        0.63414
 This state for optimization and/or second-order correction.
 Total Energy, E(TD-HF/TD-KS) =  -3043.41947376
 Copying the excited state density for this state as the 1-particle RhoCI density.

 The electronic state is 1-A.
 Alpha  occ. eigenvalues --  -46.80441 -19.24205 -19.22587 -19.19256 -19.18632
 Alpha  occ. eigenvalues --  -19.17246 -19.16703 -19.15640 -14.38643 -14.37344
 Alpha  occ. eigenvalues --  -14.37244 -14.35756 -10.35598 -10.35332 -10.33360
 Alpha  occ. eigenvalues --  -10.30097 -10.28377 -10.28253 -10.27809 -10.27696
 Alpha  occ. eigenvalues --  -10.27683 -10.27095 -10.26780 -10.26430 -10.26272
 Alpha  occ. eigenvalues --  -10.26188 -10.25930 -10.25760 -10.25593 -10.25204
 Alpha  occ. eigenvalues --  -10.25156 -10.24793 -10.24742 -10.24408 -10.24137
 Alpha  occ. eigenvalues --  -10.23940 -10.23548 -10.23503 -10.23443 -10.23112
 Alpha  occ. eigenvalues --  -10.23109 -10.22916 -10.22744 -10.22554 -10.22463
 Alpha  occ. eigenvalues --  -10.22304 -10.22210 -10.21950 -10.21925 -10.21830
 Alpha  occ. eigenvalues --  -10.21820 -10.21815 -10.21739 -10.21421 -10.21304
 Alpha  occ. eigenvalues --  -10.21302 -10.21134 -10.20905 -10.20886 -10.20766
 Alpha  occ. eigenvalues --  -10.20711 -10.20000 -10.19894 -10.19843 -10.19468
 Alpha  occ. eigenvalues --  -10.19439  -3.09179  -1.84110  -1.83640  -1.83613
 Alpha  occ. eigenvalues --   -1.18383  -1.13695  -1.09490  -1.06979  -1.06287
 Alpha  occ. eigenvalues --   -1.03863  -1.03221  -1.00605  -0.99884  -0.97459
 Alpha  occ. eigenvalues --   -0.96582  -0.88802  -0.86552  -0.85888  -0.85357
 Alpha  occ. eigenvalues --   -0.85068  -0.84363  -0.84318  -0.83891  -0.83510
 Alpha  occ. eigenvalues --   -0.83410  -0.82325  -0.81850  -0.81456  -0.80231
 Alpha  occ. eigenvalues --   -0.79224  -0.78656  -0.78627  -0.77244  -0.76680
 Alpha  occ. eigenvalues --   -0.75766  -0.74731  -0.74453  -0.73362  -0.72205
 Alpha  occ. eigenvalues --   -0.72085  -0.70971  -0.70623  -0.69827  -0.69459
 Alpha  occ. eigenvalues --   -0.69007  -0.68814  -0.67553  -0.67145  -0.66790
 Alpha  occ. eigenvalues --   -0.65937  -0.64613  -0.64439  -0.62415  -0.61739
 Alpha  occ. eigenvalues --   -0.61597  -0.61208  -0.60596  -0.59839  -0.58998
 Alpha  occ. eigenvalues --   -0.58882  -0.58256  -0.58202  -0.57519  -0.57076
 Alpha  occ. eigenvalues --   -0.56927  -0.56098  -0.55764  -0.55326  -0.54729
 Alpha  occ. eigenvalues --   -0.54414  -0.54038  -0.53210  -0.52993  -0.52883
 Alpha  occ. eigenvalues --   -0.52449  -0.52001  -0.51250  -0.51180  -0.50910
 Alpha  occ. eigenvalues --   -0.50613  -0.50354  -0.49907  -0.49660  -0.49499
 Alpha  occ. eigenvalues --   -0.49187  -0.49088  -0.48575  -0.48320  -0.48212
 Alpha  occ. eigenvalues --   -0.47843  -0.47642  -0.47584  -0.47427  -0.47084
 Alpha  occ. eigenvalues --   -0.46825  -0.46724  -0.46497  -0.46396  -0.45974
 Alpha  occ. eigenvalues --   -0.45834  -0.45638  -0.45511  -0.45239  -0.45011
 Alpha  occ. eigenvalues --   -0.44822  -0.44759  -0.44584  -0.44267  -0.43911
 Alpha  occ. eigenvalues --   -0.43797  -0.43518  -0.43186  -0.42868  -0.42739
 Alpha  occ. eigenvalues --   -0.42608  -0.42390  -0.42192  -0.42085  -0.42052
 Alpha  occ. eigenvalues --   -0.41854  -0.41523  -0.41174  -0.41109  -0.40990
 Alpha  occ. eigenvalues --   -0.40653  -0.40596  -0.40303  -0.39995  -0.39853
 Alpha  occ. eigenvalues --   -0.39764  -0.39315  -0.39205  -0.39093  -0.38993
 Alpha  occ. eigenvalues --   -0.38670  -0.38432  -0.38314  -0.38279  -0.37917
 Alpha  occ. eigenvalues --   -0.37734  -0.37685  -0.37312  -0.37210  -0.37005
 Alpha  occ. eigenvalues --   -0.36778  -0.36571  -0.36377  -0.36060  -0.35402
 Alpha  occ. eigenvalues --   -0.35117  -0.35076  -0.34646  -0.34309  -0.34073
 Alpha  occ. eigenvalues --   -0.34024  -0.33830  -0.33622  -0.33487  -0.32870
 Alpha  occ. eigenvalues --   -0.32718  -0.32520  -0.32024  -0.31927  -0.31528
 Alpha  occ. eigenvalues --   -0.31404  -0.31336  -0.30850  -0.30389  -0.29782
 Alpha  occ. eigenvalues --   -0.29283  -0.28865  -0.28338  -0.27693  -0.27405
 Alpha  occ. eigenvalues --   -0.26703  -0.26452  -0.22903  -0.21474
 Alpha virt. eigenvalues --   -0.08405  -0.06681  -0.01820  -0.00821   0.00420
 Alpha virt. eigenvalues --    0.02349   0.03354   0.03751   0.04325   0.04688
 Alpha virt. eigenvalues --    0.04953   0.05835   0.07449   0.08377   0.09171

 Mulliken charges:
               1
     1  Mg   0.816708
     2  C    0.063961
     3  C   -0.204822
     4  C   -0.159104
     5  C   -0.161648
     6  N   -0.653421
     7  C    0.289760
     8  C   -0.120384
     9  C   -0.151172
    10  C    0.341201
    11  C   -0.310677
    12  C   -0.198319
    13  C   -0.244655
    14  C    0.585672
    15  O   -0.441714
    16  O   -0.461827
    17  N   -0.704547
    18  C    0.346205
    19  C    0.034050
    20  C   -0.025634
    21  C    0.327755
    22  C   -0.403160
    23  C    0.238500
    24  O   -0.441408
    25  N   -0.665022
    26  C    0.231132
    27  C   -0.036705
    28  C   -0.018666
    29  C    0.282766
    30  C    0.276273
    31  C   -0.242027
    32  C   -0.309061
    33  N   -0.719870
    34  C    0.280329
    35  C    0.015022
    36  C    0.045539
    37  C    0.311600
    38  C   -0.377066
    39  C    0.361857
    40  O   -0.433137
    41  C   -0.339403
    42  C    0.627903
    43  O   -0.527497
    44  O   -0.372932
    45  C   -0.090032
    46  C   -0.011939
    47  C   -0.122377
    48  C    0.122458
    49  C   -0.373826
    50  C   -0.218664
    51  C   -0.154865
    52  C   -0.176665
    53  C   -0.062022
    54  C   -0.304105
    55  C   -0.170914
    56  C   -0.182149
    57  C   -0.142498
    58  C   -0.040879
    59  C   -0.298635
    60  C   -0.176497
    61  C   -0.169169
    62  C   -0.179687
    63  C   -0.070202
    64  C   -0.286925
    65  C   -0.297965
    66  H    0.079655
    67  H    0.150626
    68  H    0.089820
    69  H    0.125209
    70  H    0.105307
    71  H    0.123594
    72  H    0.086004
    73  H    0.138122
    74  H    0.089128
    75  H    0.128052
    76  H    0.148513
    77  H    0.140535
    78  H    0.125014
    79  H    0.150287
    80  H    0.120621
    81  H    0.085483
    82  H    0.124063
    83  H    0.091267
    84  H    0.119558
    85  H    0.111291
    86  H    0.114671
    87  H    0.121876
    88  H    0.153810
    89  H    0.123399
    90  H    0.173701
    91  H    0.118366
    92  H    0.125849
    93  H    0.060203
    94  H    0.142100
    95  H    0.116878
    96  H    0.117993
    97  H    0.088790
    98  H    0.081937
    99  H    0.101924
   100  H    0.077678
   101  H    0.088263
   102  H    0.085644
   103  H    0.068152
   104  H    0.108435
   105  H    0.100571
   106  H    0.093428
   107  H    0.091392
   108  H    0.093170
   109  H    0.083348
   110  H    0.105373
   111  H    0.038707
   112  H    0.094110
   113  H    0.074418
   114  H    0.050259
   115  H    0.095845
   116  H    0.115296
   117  H    0.057587
   118  H    0.090233
   119  H    0.091224
   120  H    0.102355
   121  H    0.064125
   122  H    0.078983
   123  H    0.081570
   124  H    0.116419
   125  H    0.086291
   126  H    0.109699
   127  H    0.097383
   128  H    0.105260
   129  H    0.097098
   130  H    0.122213
   131  H    0.126789
   132  H    0.137043
   133  O   -0.428851
   134  H    0.082048
 Sum of Mulliken charges =   0.00000

 Dipole moment (field-independent basis, Debye):
    X=              1.2737    Y=             -6.6307    Z=             -3.8015  Tot=              7.7486
 Quadrupole moment (field-independent basis, Debye-Ang):
   XX=           -371.9030   YY=           -433.3554   ZZ=           -397.7637
   XY=              9.1093   XZ=             32.8846   YZ=            -39.4249

 Normal termination of Gaussian 09 at Wed Oct  9 12:02:17 2019.
