 Gaussian 09, Revision D.01,
 Gaussian 09:  ES64L-G09RevD.01 24-Apr-2013

 ----------------------------------------------------------------------
 # td=(NStates=1) iop(3/107=0140000000,3/108=0140000000) iop(3/107=0140
 000000,3/108=0140000000) CAM-B3LYP/6-31G(d,p)
 ----------------------------------------------------------------------

 --
 TD
 --
 Symbolic Z-matrix:
 Charge =  0 Multiplicity = 1

                         Standard orientation:
 ---------------------------------------------------------------------
 Center     Atomic      Atomic             Coordinates (Angstroms)
 Number     Number       Type             X           Y           Z
 ---------------------------------------------------------------------
      1         12           0       -5.675705    1.174406    0.140787
      2          6           0       -5.005916   -2.208330   -0.344586
      3          6           0       -3.294978    1.246065    2.692474
      4          6           0       -6.257270    4.601047    0.721677
      5          6           0       -7.943204    1.180557   -2.375218
      6          7           0       -4.351716   -0.257715    1.056306
      7          6           0       -4.243095   -1.597957    0.628005
      8          6           0       -3.294921   -2.281815    1.560129
      9          6           0       -2.987474   -1.317841    2.672423
     10          6           0       -3.560851   -0.040581    2.061133
     11          6           0       -3.692006   -1.860589    3.985446
     12          6           0       -2.027090   -2.641307    0.710204
     13          6           0       -0.969662   -3.560861    1.380795
     14          6           0        0.232198   -3.906613    0.551392
     15          8           0        0.419600   -3.342256   -0.513450
     16          8           0        1.034365   -4.762981    1.204155
     17          7           0       -4.855834    2.616796    1.475839
     18          6           0       -3.891767    2.512890    2.419324
     19          6           0       -3.676265    3.698807    3.158194
     20          6           0       -4.465219    4.640997    2.590608
     21          6           0       -5.190513    4.037779    1.580747
     22          6           0       -2.784881    3.811323    4.328472
     23          6           0       -4.556261    5.981238    2.983715
     24          8           0       -3.991768    6.630019    3.870044
     25          7           0       -6.898463    2.639363   -0.648828
     26          6           0       -7.037022    3.994100   -0.281415
     27          6           0       -7.839461    4.588278   -1.149896
     28          6           0       -8.409103    3.724903   -2.036176
     29          6           0       -7.789493    2.411192   -1.654212
     30          6           0       -8.220258    5.977104   -1.180467
     31          6           0       -9.405375    3.814410   -3.151655
     32          6           0       -8.744569    4.000558   -4.506819
     33          7           0       -6.384723   -0.152065   -1.102966
     34          6           0       -7.281290    0.042448   -1.982672
     35          6           0       -7.481570   -1.295531   -2.741462
     36          6           0       -6.653423   -2.153197   -2.052870
     37          6           0       -5.880012   -1.385715   -1.110473
     38          6           0       -8.348340   -1.508924   -3.899929
     39          6           0       -6.099565   -3.562957   -2.071690
     40          8           0       -6.574695   -4.566857   -2.650215
     41          6           0       -5.022289   -3.512815   -0.879152
     42          6           0       -5.408620   -4.629142    0.079838
     43          8           0       -5.768171   -4.560324    1.255640
     44          8           0       -4.987553   -5.883881   -0.305549
     45          6           0       -5.317023   -6.948422    0.513544
     46          6           0        2.249526   -5.137307    0.601703
     47          6           0        3.365913   -4.244135    0.987436
     48          6           0        4.041022   -3.365510    0.138987
     49          6           0        3.706851   -3.304658   -1.375228
     50          6           0        5.135226   -2.471203    0.745813
     51          6           0        6.449653   -2.718659   -0.043387
     52          6           0        7.624189   -1.929227    0.588256
     53          6           0        8.976612   -2.022524   -0.080041
     54          6           0        9.530587   -3.416884    0.143221
     55          6           0        9.933981   -0.922619    0.452351
     56          6           0       11.355411   -0.879690   -0.248253
     57          6           0       12.276907    0.316258    0.259229
     58          6           0       13.599306    0.431302   -0.557439
     59          6           0       14.518308   -0.754554   -0.363752
     60          6           0       14.299311    1.631674   -0.126945
     61          6           0       15.557137    2.126236   -0.983282
     62          6           0       16.041619    3.520348   -0.547315
     63          6           0       17.238341    3.993426   -1.398079
     64          6           0       17.004341    4.115780   -2.906472
     65          6           0       17.660653    5.442263   -0.816470
     66          1           0       -2.422496    1.175704    3.370615
     67          1           0       -6.422767    5.601843    0.873107
     68          1           0       -8.578946    1.183506   -3.207025
     69          1           0       -3.724543   -3.215179    1.799528
     70          1           0       -1.892604   -1.361844    2.759339
     71          1           0       -3.551625   -2.853324    4.288758
     72          1           0       -3.587426   -1.137493    4.933117
     73          1           0       -4.705407   -1.984478    3.966832
     74          1           0       -2.389361   -2.795579   -0.342354
     75          1           0       -1.602234   -1.618591    0.677771
     76          1           0       -0.670866   -3.215832    2.521588
     77          1           0       -1.515389   -4.471372    1.725420
     78          1           0       -1.587876    3.834512    4.058246
     79          1           0       -2.988569    4.953484    4.691326
     80          1           0       -3.000469    3.209083    5.196629
     81          1           0       -5.227606    6.528247    2.028251
     82          1           0       -9.992044    3.050060   -3.229987
     83          1           0      -10.048423    4.707302   -3.143076
     84          1           0       -9.266495    4.164906   -5.342997
     85          1           0       -7.998587    4.811375   -4.738607
     86          1           0       -8.080178    3.128687   -4.688489
     87          1           0       -8.231155   -0.796800   -4.648009
     88          1           0       -8.163263   -2.431388   -4.182089
     89          1           0       -9.573587   -1.496459   -3.600734
     90          1           0       -4.284447   -4.052147   -1.418692
     91          1           0        2.423873   -6.112351    1.069009
     92          1           0        1.859051   -5.351887   -0.413236
     93          1           0        3.725197   -4.193266    1.914514
     94          1           0        2.712975   -3.704692   -1.569546
     95          1           0        3.939745   -2.057660   -1.845524
     96          1           0        4.391102   -3.925235   -1.945671
     97          1           0        4.947283   -1.466950    0.546888
     98          1           0        5.527321   -2.622096    1.931733
     99          1           0        6.548148   -3.761332    0.148749
    100          1           0        6.315092   -2.402588   -1.171684
    101          1           0        7.353892   -0.746040    0.546654
    102          1           0        7.682168   -1.960241    1.623610
    103          1           0        8.885721   -1.870076   -1.282963
    104          1           0        8.935819   -4.131593   -0.042425
    105          1           0       10.501561   -3.365762   -0.116727
    106          1           0        9.743027   -3.642740    1.178152
    107          1           0        9.575938    0.073643    0.340237
    108          1           0       10.223193   -1.105285    1.568247
    109          1           0       11.895296   -1.637786   -0.113404
    110          1           0       11.108772   -0.838909   -1.300331
    111          1           0       11.703142    1.213514    0.071407
    112          1           0       12.581246   -0.097595    1.312251
    113          1           0       13.147513    0.526976   -1.629496
    114          1           0       14.460394   -0.787024    0.740678
    115          1           0       14.040840   -1.707410   -0.827004
    116          1           0       15.560175   -0.626344   -0.891846
    117          1           0       13.626691    2.419474   -0.165743
    118          1           0       14.751750    1.685165    0.947012
    119          1           0       16.332835    1.367537   -0.559697
    120          1           0       15.399611    1.732296   -2.200770
    121          1           0       15.152960    4.200504   -0.549027
    122          1           0       16.221250    3.258774    0.544011
    123          1           0       17.979919    3.248524   -1.338750
    124          1           0       16.273489    5.031967   -3.181118
    125          1           0       18.061057    4.538246   -3.373492
    126          1           0       16.683641    3.299496   -3.465403
    127          1           0       17.773190    5.377274    0.329621
    128          1           0       18.671237    5.569475   -1.189325
    129          1           0       17.004787    6.200871   -1.120732
    130          1           0       -5.246114   -7.760811   -0.116529
    131          1           0       -6.482734   -6.965550    0.430122
    132          1           0       -4.931692   -7.064926    1.631547
    133          8           0       -7.772679    6.909798   -0.593927
    134          1           0       -8.993021    6.270029   -2.116537
 ---------------------------------------------------------------------

 SCF Done:  E(RCAM-B3LYP) =  -3043.35725664     A.U. after   16 cycles

 Excitation energies and oscillator strengths:

 Excited State   1:      Singlet-A      1.9615 eV  632.08 nm  f=0.1831  <S**2>=0.000
     243 -> 246       -0.23457
     244 -> 245        0.64378
     244 -> 246        0.11956
 This state for optimization and/or second-order correction.
 Total Energy, E(TD-HF/TD-KS) =  -3043.28517147
 Copying the excited state density for this state as the 1-particle RhoCI density.

 The electronic state is 1-A.
 Alpha  occ. eigenvalues --  -46.82149 -19.22525 -19.22359 -19.19054 -19.17899
 Alpha  occ. eigenvalues --  -19.17531 -19.17447 -19.17428 -14.39566 -14.37742
 Alpha  occ. eigenvalues --  -14.37066 -14.36944 -10.35935 -10.35388 -10.33694
 Alpha  occ. eigenvalues --  -10.31141 -10.30675 -10.28266 -10.28024 -10.27948
 Alpha  occ. eigenvalues --  -10.27463 -10.27306 -10.27002 -10.26855 -10.26735
 Alpha  occ. eigenvalues --  -10.26565 -10.25802 -10.25778 -10.25731 -10.25328
 Alpha  occ. eigenvalues --  -10.25265 -10.24763 -10.24712 -10.24637 -10.24562
 Alpha  occ. eigenvalues --  -10.24127 -10.23780 -10.23568 -10.23544 -10.23282
 Alpha  occ. eigenvalues --  -10.23234 -10.23035 -10.22945 -10.22935 -10.22880
 Alpha  occ. eigenvalues --  -10.22787 -10.22664 -10.22584 -10.22390 -10.22148
 Alpha  occ. eigenvalues --  -10.22042 -10.22025 -10.21956 -10.21753 -10.21663
 Alpha  occ. eigenvalues --  -10.21595 -10.21571 -10.21519 -10.21308 -10.21172
 Alpha  occ. eigenvalues --  -10.21169 -10.21139 -10.20421 -10.20131 -10.19037
 Alpha  occ. eigenvalues --  -10.17355  -3.10721  -1.85663  -1.85169  -1.85153
 Alpha  occ. eigenvalues --   -1.14228  -1.14076  -1.08548  -1.06600  -1.06107
 Alpha  occ. eigenvalues --   -1.05618  -1.04172  -1.03749  -1.01453  -0.99847
 Alpha  occ. eigenvalues --   -0.98854  -0.91489  -0.86281  -0.85917  -0.85578
 Alpha  occ. eigenvalues --   -0.85452  -0.85342  -0.84688  -0.84555  -0.84227
 Alpha  occ. eigenvalues --   -0.82911  -0.82802  -0.81822  -0.81494  -0.80690
 Alpha  occ. eigenvalues --   -0.79577  -0.78610  -0.78162  -0.77883  -0.76491
 Alpha  occ. eigenvalues --   -0.75673  -0.75451  -0.74198  -0.74104  -0.72389
 Alpha  occ. eigenvalues --   -0.71890  -0.70771  -0.70511  -0.70149  -0.70039
 Alpha  occ. eigenvalues --   -0.69475  -0.69055  -0.68300  -0.67528  -0.66846
 Alpha  occ. eigenvalues --   -0.66517  -0.65528  -0.64928  -0.62843  -0.62840
 Alpha  occ. eigenvalues --   -0.62225  -0.61933  -0.60467  -0.59477  -0.59053
 Alpha  occ. eigenvalues --   -0.58948  -0.58796  -0.58314  -0.57532  -0.57059
 Alpha  occ. eigenvalues --   -0.56828  -0.56597  -0.56375  -0.55379  -0.54604
 Alpha  occ. eigenvalues --   -0.54144  -0.53977  -0.53435  -0.52945  -0.52394
 Alpha  occ. eigenvalues --   -0.52113  -0.51921  -0.51715  -0.51371  -0.51050
 Alpha  occ. eigenvalues --   -0.50678  -0.50416  -0.50205  -0.49811  -0.49627
 Alpha  occ. eigenvalues --   -0.49420  -0.49302  -0.48966  -0.48764  -0.48649
 Alpha  occ. eigenvalues --   -0.48070  -0.47759  -0.47543  -0.47317  -0.47209
 Alpha  occ. eigenvalues --   -0.46959  -0.46884  -0.46682  -0.46659  -0.46474
 Alpha  occ. eigenvalues --   -0.46199  -0.45968  -0.45520  -0.45389  -0.44986
 Alpha  occ. eigenvalues --   -0.44654  -0.44513  -0.44240  -0.44006  -0.43949
 Alpha  occ. eigenvalues --   -0.43532  -0.43448  -0.43273  -0.42989  -0.42920
 Alpha  occ. eigenvalues --   -0.42861  -0.42549  -0.42472  -0.42338  -0.42135
 Alpha  occ. eigenvalues --   -0.41975  -0.41527  -0.41319  -0.41249  -0.41163
 Alpha  occ. eigenvalues --   -0.40911  -0.40663  -0.40625  -0.40552  -0.40204
 Alpha  occ. eigenvalues --   -0.39967  -0.39853  -0.39707  -0.39475  -0.39151
 Alpha  occ. eigenvalues --   -0.38897  -0.38521  -0.38294  -0.38034  -0.37981
 Alpha  occ. eigenvalues --   -0.37913  -0.37578  -0.37193  -0.37025  -0.36876
 Alpha  occ. eigenvalues --   -0.36712  -0.36537  -0.36414  -0.35916  -0.35716
 Alpha  occ. eigenvalues --   -0.35412  -0.35358  -0.35272  -0.35225  -0.34726
 Alpha  occ. eigenvalues --   -0.34410  -0.34198  -0.33750  -0.33531  -0.33117
 Alpha  occ. eigenvalues --   -0.32884  -0.32621  -0.32530  -0.32242  -0.32088
 Alpha  occ. eigenvalues --   -0.31835  -0.31187  -0.30969  -0.30333  -0.30032
 Alpha  occ. eigenvalues --   -0.29423  -0.29067  -0.28982  -0.27718  -0.27483
 Alpha  occ. eigenvalues --   -0.27087  -0.26952  -0.23468  -0.21467
 Alpha virt. eigenvalues --   -0.08949  -0.06892  -0.02987  -0.00914   0.00244
 Alpha virt. eigenvalues --    0.01495   0.02171   0.02998   0.03358   0.03739
 Alpha virt. eigenvalues --    0.04387   0.04904   0.07290   0.08234   0.09048

 Mulliken charges:
               1
     1  Mg   0.832742
     2  C    0.181019
     3  C   -0.201819
     4  C   -0.166658
     5  C   -0.132468
     6  N   -0.618974
     7  C    0.286272
     8  C   -0.173118
     9  C   -0.122005
    10  C    0.333917
    11  C   -0.324741
    12  C   -0.176396
    13  C   -0.277262
    14  C    0.620620
    15  O   -0.465397
    16  O   -0.450379
    17  N   -0.673738
    18  C    0.327032
    19  C    0.087914
    20  C    0.071804
    21  C    0.235422
    22  C   -0.417406
    23  C    0.230681
    24  O   -0.425905
    25  N   -0.704111
    26  C    0.309170
    27  C    0.016565
    28  C    0.029921
    29  C    0.268045
    30  C    0.236269
    31  C   -0.230475
    32  C   -0.333376
    33  N   -0.757298
    34  C    0.331350
    35  C   -0.014840
    36  C    0.009649
    37  C    0.270034
    38  C   -0.365800
    39  C    0.362057
    40  O   -0.451604
    41  C   -0.384930
    42  C    0.619946
    43  O   -0.470127
    44  O   -0.442837
    45  C   -0.071107
    46  C   -0.002379
    47  C   -0.118366
    48  C    0.132671
    49  C   -0.350825
    50  C   -0.224283
    51  C   -0.178840
    52  C   -0.161639
    53  C   -0.042236
    54  C   -0.295366
    55  C   -0.177809
    56  C   -0.191269
    57  C   -0.182314
    58  C   -0.059046
    59  C   -0.295716
    60  C   -0.149465
    61  C   -0.186130
    62  C   -0.153204
    63  C   -0.047749
    64  C   -0.292979
    65  C   -0.316721
    66  H    0.087109
    67  H    0.111765
    68  H    0.093321
    69  H    0.124797
    70  H    0.110170
    71  H    0.121742
    72  H    0.087614
    73  H    0.136731
    74  H    0.114769
    75  H    0.110639
    76  H    0.121013
    77  H    0.130472
    78  H    0.108844
    79  H    0.146346
    80  H    0.136059
    81  H    0.026540
    82  H    0.122837
    83  H    0.120275
    84  H    0.121430
    85  H    0.109635
    86  H    0.095754
    87  H    0.136257
    88  H    0.153041
    89  H    0.101053
    90  H    0.184438
    91  H    0.114118
    92  H    0.118344
    93  H    0.082902
    94  H    0.147719
    95  H    0.062978
    96  H    0.129598
    97  H    0.121012
    98  H    0.075191
    99  H    0.107072
   100  H    0.091907
   101  H    0.048455
   102  H    0.098863
   103  H    0.056965
   104  H    0.106762
   105  H    0.105730
   106  H    0.087095
   107  H    0.095725
   108  H    0.072445
   109  H    0.104747
   110  H    0.084126
   111  H    0.097372
   112  H    0.077011
   113  H    0.073612
   114  H    0.099590
   115  H    0.088334
   116  H    0.101369
   117  H    0.089699
   118  H    0.071256
   119  H    0.080523
   120  H    0.050810
   121  H    0.088747
   122  H    0.090057
   123  H    0.098835
   124  H    0.076518
   125  H    0.072531
   126  H    0.118371
   127  H    0.090748
   128  H    0.103020
   129  H    0.118341
   130  H    0.128656
   131  H    0.102936
   132  H    0.121060
   133  O   -0.395160
   134  H    0.017370
 Sum of Mulliken charges =   0.00000

 Dipole moment (field-independent basis, Debye):
    X=              1.8806    Y=             -6.3387    Z=             -1.8018  Tot=              6.8529
 Quadrupole moment (field-independent basis, Debye-Ang):
   XX=           -374.8312   YY=           -448.4626   ZZ=           -392.3844
   XY=             12.9315   XZ=             31.1727   YZ=            -33.6699

 Normal termination of Gaussian 09 at Sat Oct  5 09:42:41 2019.
