 Gaussian 09, Revision D.01,
 Gaussian 09:  ES64L-G09RevD.01 24-Apr-2013

 ----------------------------------------------------------------------
 # td=(NStates=1) iop(3/107=0140000000,3/108=0140000000) iop(3/107=0140
 000000,3/108=0140000000) CAM-B3LYP/6-31G(d,p)
 ----------------------------------------------------------------------

 --
 TD
 --
 Symbolic Z-matrix:
 Charge =  0 Multiplicity = 1

                         Standard orientation:
 ---------------------------------------------------------------------
 Center     Atomic      Atomic             Coordinates (Angstroms)
 Number     Number       Type             X           Y           Z
 ---------------------------------------------------------------------
      1         12           0       -5.585883    1.251269    0.235620
      2          6           0       -5.124343   -2.140847   -0.384883
      3          6           0       -3.390647    1.056980    2.827479
      4          6           0       -6.121144    4.563902    0.705584
      5          6           0       -7.907404    1.282045   -2.443902
      6          7           0       -4.399382   -0.392667    1.112395
      7          6           0       -4.370620   -1.627556    0.789524
      8          6           0       -3.296258   -2.330475    1.521342
      9          6           0       -2.973650   -1.381448    2.742929
     10          6           0       -3.545173   -0.091304    2.251589
     11          6           0       -3.573304   -1.879252    4.014703
     12          6           0       -1.976252   -2.715711    0.697261
     13          6           0       -0.954198   -3.559955    1.517997
     14          6           0        0.166951   -3.920429    0.538026
     15          8           0        0.458832   -3.449283   -0.493600
     16          8           0        0.935102   -4.808822    1.299382
     17          7           0       -4.863042    2.602132    1.517175
     18          6           0       -3.943312    2.307486    2.440300
     19          6           0       -3.691886    3.576169    3.245396
     20          6           0       -4.548767    4.547426    2.569921
     21          6           0       -5.232634    3.970840    1.543005
     22          6           0       -2.796661    3.786945    4.491494
     23          6           0       -4.674873    5.943253    2.986894
     24          8           0       -4.065540    6.546811    3.935731
     25          7           0       -6.809868    2.668802   -0.745701
     26          6           0       -6.858532    4.052377   -0.355026
     27          6           0       -7.833852    4.755922   -1.226006
     28          6           0       -8.287583    3.842177   -2.131941
     29          6           0       -7.648176    2.504331   -1.772633
     30          6           0       -8.254836    6.092318   -1.159261
     31          6           0       -9.377715    3.972993   -3.242218
     32          6           0       -8.572527    4.047820   -4.660766
     33          7           0       -6.330591   -0.053569   -1.125347
     34          6           0       -7.277125    0.070100   -2.118276
     35          6           0       -7.400890   -1.241211   -2.799589
     36          6           0       -6.508720   -2.055464   -2.186193
     37          6           0       -5.934597   -1.292200   -1.129418
     38          6           0       -8.415180   -1.652203   -3.884340
     39          6           0       -6.086261   -3.525994   -2.109975
     40          8           0       -6.429059   -4.497071   -2.705706
     41          6           0       -5.120621   -3.509674   -0.934010
     42          6           0       -5.330855   -4.650580    0.012128
     43          8           0       -5.631336   -4.452643    1.151130
     44          8           0       -5.158524   -5.812037   -0.579308
     45          6           0       -5.541849   -7.009073    0.259745
     46          6           0        2.218755   -5.064783    0.736815
     47          6           0        3.311002   -4.112474    1.036880
     48          6           0        4.027132   -3.367502    0.265627
     49          6           0        3.642025   -3.241420   -1.149239
     50          6           0        5.197560   -2.524094    0.659766
     51          6           0        6.430401   -2.748316   -0.145534
     52          6           0        7.674507   -1.936622    0.597963
     53          6           0        9.016860   -1.981409   -0.141287
     54          6           0        9.507315   -3.513681   -0.070560
     55          6           0        9.942154   -0.978727    0.540537
     56          6           0       11.305675   -0.898877   -0.094623
     57          6           0       12.267093    0.210108    0.284878
     58          6           0       13.489294    0.452067   -0.499955
     59          6           0       14.525956   -0.679134   -0.276354
     60          6           0       14.210541    1.838234   -0.170058
     61          6           0       15.308130    2.139580   -1.051276
     62          6           0       15.975076    3.572341   -0.688889
     63          6           0       17.235052    4.055521   -1.346543
     64          6           0       17.211493    4.015224   -2.869298
     65          6           0       17.799047    5.396905   -0.895311
     66          1           0       -2.897993    0.840230    3.823984
     67          1           0       -6.042279    5.589682    0.751387
     68          1           0       -8.679286    1.170371   -3.182705
     69          1           0       -3.763277   -3.481408    1.775002
     70          1           0       -1.925692   -1.376830    2.951047
     71          1           0       -3.275315   -2.954844    4.304890
     72          1           0       -3.441460   -1.156495    4.860753
     73          1           0       -4.653102   -1.841892    3.819584
     74          1           0       -2.148353   -3.185425   -0.162060
     75          1           0       -1.547227   -1.836182    0.477442
     76          1           0       -0.697522   -2.964985    2.338772
     77          1           0       -1.330925   -4.537407    1.906203
     78          1           0       -1.655969    3.699997    4.140016
     79          1           0       -2.802878    4.752980    4.926645
     80          1           0       -3.049465    2.835526    5.036298
     81          1           0       -5.234777    6.558408    2.249421
     82          1           0       -9.935023    3.110418   -3.326722
     83          1           0       -9.885424    4.894072   -3.022569
     84          1           0       -9.311829    4.206130   -5.477183
     85          1           0       -7.810269    4.911828   -4.499935
     86          1           0       -7.891543    3.164969   -4.958600
     87          1           0       -8.147164   -0.983976   -4.727255
     88          1           0       -8.460323   -2.665768   -4.155312
     89          1           0       -9.427345   -1.604877   -3.410210
     90          1           0       -4.146475   -3.664739   -1.498641
     91          1           0        2.570815   -6.077950    1.113774
     92          1           0        2.100941   -5.322796   -0.320695
     93          1           0        3.641483   -4.220750    2.119525
     94          1           0        2.726238   -3.782128   -1.609685
     95          1           0        3.835028   -2.217267   -1.589838
     96          1           0        4.376988   -3.970857   -1.537902
     97          1           0        4.743008   -1.395998    0.560083
     98          1           0        5.513751   -2.602759    1.815443
     99          1           0        6.519885   -3.905084    0.012476
    100          1           0        6.468689   -2.455976   -1.158793
    101          1           0        7.113564   -0.876033    0.481077
    102          1           0        7.551312   -2.180335    1.609708
    103          1           0        8.807050   -1.777920   -1.153168
    104          1           0        8.768896   -4.257022   -0.362856
    105          1           0       10.756199   -3.724265   -0.500193
    106          1           0        9.869138   -3.675342    0.891603
    107          1           0        9.413923    0.137672    0.383644
    108          1           0        9.946511   -1.194707    1.628136
    109          1           0       11.883526   -1.738713   -0.178813
    110          1           0       11.124801   -0.594271   -1.149167
    111          1           0       11.806755    1.199372    0.289774
    112          1           0       12.566766    0.000154    1.243951
    113          1           0       13.147950    0.596193   -1.538240
    114          1           0       14.897233   -0.468018    0.916532
    115          1           0       13.974025   -1.711010   -0.549349
    116          1           0       15.414176   -0.450282   -0.845966
    117          1           0       13.507643    2.681732   -0.436702
    118          1           0       14.384330    1.811526    0.988710
    119          1           0       15.989284    1.367457   -0.805742
    120          1           0       15.122456    2.225749   -1.976420
    121          1           0       15.030401    4.194453   -1.022320
    122          1           0       16.235260    3.576263    0.539748
    123          1           0       18.044664    3.122239   -1.220183
    124          1           0       16.342441    4.623457   -3.453747
    125          1           0       17.971346    4.393866   -3.410275
    126          1           0       16.900887    2.986717   -3.196852
    127          1           0       17.964289    5.565719    0.163939
    128          1           0       18.801379    5.600998   -1.201256
    129          1           0       17.057136    6.249565   -1.252085
    130          1           0       -5.030423   -7.819059   -0.223971
    131          1           0       -6.531021   -7.078700    0.439385
    132          1           0       -5.021776   -6.902692    1.378562
    133          8           0       -7.936361    6.836346   -0.252338
    134          1           0       -9.029620    6.356603   -1.844013
 ---------------------------------------------------------------------

 SCF Done:  E(RCAM-B3LYP) =  -3043.45073887     A.U. after   15 cycles

 Excitation energies and oscillator strengths:

 Excited State   1:      Singlet-A      2.0167 eV  614.77 nm  f=0.2042  <S**2>=0.000
     243 -> 246       -0.22352
     244 -> 245        0.66550
 This state for optimization and/or second-order correction.
 Total Energy, E(TD-HF/TD-KS) =  -3043.37662472
 Copying the excited state density for this state as the 1-particle RhoCI density.

 The electronic state is 1-A.
 Alpha  occ. eigenvalues --  -46.81729 -19.23848 -19.21656 -19.19150 -19.18349
 Alpha  occ. eigenvalues --  -19.17431 -19.16646 -19.15610 -14.38577 -14.37379
 Alpha  occ. eigenvalues --  -14.36825 -14.36356 -10.35364 -10.35267 -10.32327
 Alpha  occ. eigenvalues --  -10.29304 -10.29135 -10.29005 -10.27868 -10.27094
 Alpha  occ. eigenvalues --  -10.26947 -10.26853 -10.26767 -10.26249 -10.26183
 Alpha  occ. eigenvalues --  -10.25370 -10.25248 -10.24924 -10.24816 -10.24805
 Alpha  occ. eigenvalues --  -10.24699 -10.24315 -10.24041 -10.23933 -10.23820
 Alpha  occ. eigenvalues --  -10.23783 -10.23699 -10.23594 -10.23533 -10.23457
 Alpha  occ. eigenvalues --  -10.23187 -10.23067 -10.23005 -10.22779 -10.22712
 Alpha  occ. eigenvalues --  -10.22656 -10.22638 -10.22623 -10.22436 -10.22414
 Alpha  occ. eigenvalues --  -10.22357 -10.22345 -10.22249 -10.22216 -10.22151
 Alpha  occ. eigenvalues --  -10.21642 -10.21526 -10.21326 -10.21270 -10.21214
 Alpha  occ. eigenvalues --  -10.20808 -10.20409 -10.20369 -10.19904 -10.19129
 Alpha  occ. eigenvalues --  -10.18676  -3.10227  -1.85178  -1.84697  -1.84626
 Alpha  occ. eigenvalues --   -1.14877  -1.14101  -1.09514  -1.06773  -1.06701
 Alpha  occ. eigenvalues --   -1.06189  -1.01831  -1.01760  -1.00445  -0.98832
 Alpha  occ. eigenvalues --   -0.97946  -0.89305  -0.87003  -0.86380  -0.86231
 Alpha  occ. eigenvalues --   -0.85305  -0.84631  -0.84446  -0.84088  -0.83573
 Alpha  occ. eigenvalues --   -0.83264  -0.82129  -0.81099  -0.80695  -0.80322
 Alpha  occ. eigenvalues --   -0.79338  -0.78845  -0.77769  -0.77036  -0.76110
 Alpha  occ. eigenvalues --   -0.75257  -0.74790  -0.73861  -0.73655  -0.71553
 Alpha  occ. eigenvalues --   -0.71174  -0.70472  -0.70351  -0.69552  -0.69517
 Alpha  occ. eigenvalues --   -0.69279  -0.68790  -0.67747  -0.66920  -0.66272
 Alpha  occ. eigenvalues --   -0.65584  -0.65336  -0.64723  -0.62859  -0.62537
 Alpha  occ. eigenvalues --   -0.61659  -0.61096  -0.61032  -0.59995  -0.59461
 Alpha  occ. eigenvalues --   -0.58991  -0.58071  -0.58045  -0.57072  -0.56826
 Alpha  occ. eigenvalues --   -0.56716  -0.56121  -0.55247  -0.55156  -0.55044
 Alpha  occ. eigenvalues --   -0.54162  -0.53872  -0.53069  -0.52633  -0.52250
 Alpha  occ. eigenvalues --   -0.52003  -0.51573  -0.51491  -0.51472  -0.51314
 Alpha  occ. eigenvalues --   -0.51005  -0.50745  -0.50323  -0.49496  -0.49393
 Alpha  occ. eigenvalues --   -0.49099  -0.48863  -0.48432  -0.48256  -0.48211
 Alpha  occ. eigenvalues --   -0.48072  -0.47536  -0.47446  -0.47251  -0.47046
 Alpha  occ. eigenvalues --   -0.46902  -0.46850  -0.46265  -0.46011  -0.45909
 Alpha  occ. eigenvalues --   -0.45679  -0.45521  -0.45318  -0.45021  -0.44895
 Alpha  occ. eigenvalues --   -0.44545  -0.44419  -0.44409  -0.44107  -0.43972
 Alpha  occ. eigenvalues --   -0.43922  -0.43735  -0.43675  -0.43317  -0.42954
 Alpha  occ. eigenvalues --   -0.42853  -0.42606  -0.42451  -0.42369  -0.41824
 Alpha  occ. eigenvalues --   -0.41380  -0.41299  -0.41133  -0.40981  -0.40957
 Alpha  occ. eigenvalues --   -0.40779  -0.40413  -0.40300  -0.39968  -0.39578
 Alpha  occ. eigenvalues --   -0.39516  -0.39340  -0.39214  -0.39153  -0.39045
 Alpha  occ. eigenvalues --   -0.38570  -0.38521  -0.38442  -0.38319  -0.38051
 Alpha  occ. eigenvalues --   -0.37996  -0.37909  -0.37579  -0.37267  -0.37198
 Alpha  occ. eigenvalues --   -0.36878  -0.36422  -0.36249  -0.36003  -0.35680
 Alpha  occ. eigenvalues --   -0.35227  -0.35214  -0.34894  -0.34737  -0.34490
 Alpha  occ. eigenvalues --   -0.34092  -0.33998  -0.33662  -0.33513  -0.33235
 Alpha  occ. eigenvalues --   -0.33133  -0.32885  -0.32091  -0.31910  -0.31685
 Alpha  occ. eigenvalues --   -0.31520  -0.31391  -0.31092  -0.30531  -0.29792
 Alpha  occ. eigenvalues --   -0.29214  -0.28571  -0.28411  -0.27922  -0.27347
 Alpha  occ. eigenvalues --   -0.26679  -0.26179  -0.22853  -0.20851
 Alpha virt. eigenvalues --   -0.07985  -0.05645  -0.01137  -0.00918   0.00778
 Alpha virt. eigenvalues --    0.02941   0.03267   0.03826   0.04089   0.04996
 Alpha virt. eigenvalues --    0.05323   0.05710   0.08355   0.08397   0.08516

 Mulliken charges:
               1
     1  Mg   0.823735
     2  C    0.048236
     3  C   -0.158074
     4  C   -0.135765
     5  C   -0.184314
     6  N   -0.641029
     7  C    0.393940
     8  C   -0.188412
     9  C   -0.157708
    10  C    0.324835
    11  C   -0.299905
    12  C   -0.172226
    13  C   -0.266793
    14  C    0.606479
    15  O   -0.417966
    16  O   -0.479077
    17  N   -0.742823
    18  C    0.301703
    19  C    0.003091
    20  C   -0.034304
    21  C    0.330464
    22  C   -0.355832
    23  C    0.231526
    24  O   -0.459612
    25  N   -0.671972
    26  C    0.248212
    27  C    0.035726
    28  C   -0.017117
    29  C    0.318322
    30  C    0.226275
    31  C   -0.221578
    32  C   -0.323352
    33  N   -0.754600
    34  C    0.281046
    35  C   -0.042271
    36  C    0.001034
    37  C    0.368019
    38  C   -0.367158
    39  C    0.392218
    40  O   -0.425774
    41  C   -0.341649
    42  C    0.638288
    43  O   -0.469024
    44  O   -0.441715
    45  C   -0.095280
    46  C    0.001316
    47  C   -0.158360
    48  C    0.181075
    49  C   -0.370226
    50  C   -0.218274
    51  C   -0.184120
    52  C   -0.176536
    53  C   -0.040752
    54  C   -0.307083
    55  C   -0.157964
    56  C   -0.170057
    57  C   -0.159457
    58  C   -0.063463
    59  C   -0.294411
    60  C   -0.170479
    61  C   -0.162905
    62  C   -0.154480
    63  C   -0.025789
    64  C   -0.304774
    65  C   -0.308044
    66  H    0.093550
    67  H    0.115590
    68  H    0.088436
    69  H    0.099163
    70  H    0.105724
    71  H    0.109601
    72  H    0.100345
    73  H    0.122870
    74  H    0.111284
    75  H    0.126764
    76  H    0.145700
    77  H    0.130879
    78  H    0.103384
    79  H    0.168873
    80  H    0.114601
    81  H    0.079769
    82  H    0.127076
    83  H    0.116774
    84  H    0.112470
    85  H    0.107082
    86  H    0.113504
    87  H    0.127734
    88  H    0.150872
    89  H    0.127259
    90  H    0.165579
    91  H    0.103764
    92  H    0.103608
    93  H    0.063375
    94  H    0.132023
    95  H    0.107441
    96  H    0.117064
    97  H    0.082781
    98  H    0.085807
    99  H    0.083248
   100  H    0.111875
   101  H    0.071543
   102  H    0.101082
   103  H    0.097268
   104  H    0.117136
   105  H    0.041879
   106  H    0.120194
   107  H    0.069191
   108  H    0.092143
   109  H    0.095564
   110  H    0.083100
   111  H    0.079803
   112  H    0.085644
   113  H    0.072829
   114  H    0.068762
   115  H    0.091406
   116  H    0.114318
   117  H    0.072275
   118  H    0.079067
   119  H    0.094118
   120  H    0.108805
   121  H    0.072898
   122  H    0.061714
   123  H    0.060604
   124  H    0.056419
   125  H    0.118281
   126  H    0.096316
   127  H    0.101040
   128  H    0.111067
   129  H    0.090768
   130  H    0.142649
   131  H    0.159647
   132  H    0.112820
   133  O   -0.423786
   134  H    0.064531
 Sum of Mulliken charges =   0.00000

 Dipole moment (field-independent basis, Debye):
    X=              1.4326    Y=             -7.7056    Z=             -3.2384  Tot=              8.4804
 Quadrupole moment (field-independent basis, Debye-Ang):
   XX=           -365.4149   YY=           -435.9760   ZZ=           -399.2354
   XY=             29.4778   XZ=             28.4376   YZ=            -41.3487

 Normal termination of Gaussian 09 at Wed Oct  9 08:53:35 2019.
