 Gaussian 09, Revision D.01,
 Gaussian 09:  ES64L-G09RevD.01 24-Apr-2013

 ----------------------------------------------------------------------
 # td=(NStates=1) iop(3/107=0140000000,3/108=0140000000) iop(3/107=0140
 000000,3/108=0140000000) CAM-B3LYP/6-31G(d,p)
 ----------------------------------------------------------------------

 --
 TD
 --
 Symbolic Z-matrix:
 Charge =  0 Multiplicity = 1

                         Standard orientation:
 ---------------------------------------------------------------------
 Center     Atomic      Atomic             Coordinates (Angstroms)
 Number     Number       Type             X           Y           Z
 ---------------------------------------------------------------------
      1         12           0       -5.646896    1.176330    0.170307
      2          6           0       -4.999649   -2.122658   -0.305607
      3          6           0       -3.249931    1.219266    2.714910
      4          6           0       -6.240510    4.455052    0.723342
      5          6           0       -7.914937    1.182480   -2.449742
      6          7           0       -4.283492   -0.230420    1.100137
      7          6           0       -4.250934   -1.622847    0.666647
      8          6           0       -3.119949   -2.269237    1.449318
      9          6           0       -2.891961   -1.285790    2.581862
     10          6           0       -3.453504    0.013934    2.111939
     11          6           0       -3.509963   -1.813643    3.941369
     12          6           0       -1.849184   -2.653558    0.614953
     13          6           0       -1.014168   -3.613117    1.407712
     14          6           0        0.239202   -3.920569    0.554231
     15          8           0        0.568087   -3.471693   -0.530496
     16          8           0        1.045398   -4.746907    1.301243
     17          7           0       -4.821484    2.615792    1.429947
     18          6           0       -3.913864    2.399672    2.351377
     19          6           0       -3.673762    3.590366    3.137010
     20          6           0       -4.541900    4.635752    2.603453
     21          6           0       -5.224052    3.926887    1.534726
     22          6           0       -2.728037    3.813534    4.241325
     23          6           0       -4.579892    6.026799    3.011914
     24          8           0       -4.054860    6.590596    3.874348
     25          7           0       -6.867614    2.583238   -0.647220
     26          6           0       -6.947486    3.864986   -0.257607
     27          6           0       -7.956860    4.487656   -1.248551
     28          6           0       -8.386762    3.549856   -2.131501
     29          6           0       -7.684446    2.367159   -1.707257
     30          6           0       -8.340059    5.932143   -1.175842
     31          6           0       -9.384652    3.725966   -3.171443
     32          6           0       -8.585931    4.141224   -4.535320
     33          7           0       -6.270940   -0.111287   -1.260640
     34          6           0       -7.417150   -0.003485   -2.090208
     35          6           0       -7.559942   -1.387076   -2.689735
     36          6           0       -6.690442   -2.218729   -2.005913
     37          6           0       -5.912307   -1.364501   -1.132704
     38          6           0       -8.615543   -1.597609   -3.700874
     39          6           0       -6.183766   -3.594859   -1.982477
     40          8           0       -6.561651   -4.517801   -2.592712
     41          6           0       -5.006858   -3.540007   -0.880798
     42          6           0       -5.289333   -4.581476    0.125137
     43          8           0       -5.782624   -4.423909    1.222436
     44          8           0       -5.005295   -5.803135   -0.311278
     45          6           0       -5.246374   -6.885356    0.533828
     46          6           0        2.350652   -5.060430    0.602055
     47          6           0        3.452431   -3.986446    0.989357
     48          6           0        4.048753   -3.241750    0.100729
     49          6           0        3.759382   -3.140952   -1.321463
     50          6           0        5.187341   -2.395364    0.609280
     51          6           0        6.561770   -2.735698    0.041361
     52          6           0        7.618935   -1.767738    0.721243
     53          6           0        8.992157   -1.967683   -0.014731
     54          6           0        9.469458   -3.438456    0.134284
     55          6           0        9.944058   -0.865321    0.585924
     56          6           0       11.235644   -0.795612   -0.141622
     57          6           0       12.053965    0.317831    0.244722
     58          6           0       13.379161    0.445668   -0.606753
     59          6           0       14.365041   -0.801412   -0.484088
     60          6           0       14.128231    1.738831   -0.233244
     61          6           0       15.440739    2.006104   -0.886319
     62          6           0       15.900401    3.502884   -0.657060
     63          6           0       17.121010    3.945226   -1.421936
     64          6           0       17.086500    4.100438   -2.877783
     65          6           0       17.703204    5.262410   -0.843258
     66          1           0       -2.686292    1.443944    3.565531
     67          1           0       -6.296113    5.566157    0.575884
     68          1           0       -8.653632    1.162418   -3.299048
     69          1           0       -3.518806   -3.240964    1.745377
     70          1           0       -1.656456   -1.301250    2.781147
     71          1           0       -3.091528   -2.624394    4.231920
     72          1           0       -3.347934   -1.068844    4.816705
     73          1           0       -4.563716   -1.866565    3.970257
     74          1           0       -2.144594   -3.141093   -0.521973
     75          1           0       -1.311775   -1.801047    0.433181
     76          1           0       -0.450341   -3.363096    2.361838
     77          1           0       -1.564249   -4.556689    1.634960
     78          1           0       -1.647184    3.238550    4.300429
     79          1           0       -2.886421    4.887899    4.460579
     80          1           0       -3.604789    3.500220    5.132367
     81          1           0       -5.212040    6.533517    2.190298
     82          1           0      -10.070862    2.875572   -3.262400
     83          1           0       -9.977301    4.696925   -2.898896
     84          1           0       -9.388767    3.832809   -5.140333
     85          1           0       -8.145075    5.201568   -4.558298
     86          1           0       -7.718389    3.445324   -4.780825
     87          1           0       -8.281580   -1.240015   -4.708284
     88          1           0       -8.669711   -2.631474   -3.867429
     89          1           0       -9.634809   -1.192350   -3.472124
     90          1           0       -3.986728   -3.940195   -1.195737
     91          1           0        2.678863   -5.893840    1.207526
     92          1           0        2.365179   -5.127612   -0.511720
     93          1           0        3.860341   -3.846942    2.046020
     94          1           0        2.702343   -3.375703   -1.426298
     95          1           0        4.103811   -2.213007   -1.808022
     96          1           0        4.298443   -3.882754   -2.004315
     97          1           0        5.116968   -1.409179    0.340922
     98          1           0        5.099840   -2.266744    1.742575
     99          1           0        6.970902   -3.825858    0.408467
    100          1           0        6.497643   -2.715179   -1.092292
    101          1           0        7.183012   -0.743161    0.335639
    102          1           0        7.719128   -1.958047    1.616026
    103          1           0        8.895743   -1.650696   -0.994641
    104          1           0        8.631622   -4.055249   -0.760271
    105          1           0       10.564229   -3.596452   -0.092730
    106          1           0        9.164415   -3.769882    1.175106
    107          1           0        9.378580    0.181001    0.533330
    108          1           0       10.189057   -1.352371    1.656334
    109          1           0       11.772782   -1.875446   -0.102453
    110          1           0       11.071336   -0.706975   -1.306624
    111          1           0       11.477316    1.336632    0.196149
    112          1           0       12.243544    0.312105    1.214418
    113          1           0       13.018248    0.656821   -1.599139
    114          1           0       14.714336   -0.996005    0.635396
    115          1           0       13.830767   -1.746416   -1.027892
    116          1           0       15.465047   -0.761752   -0.824588
    117          1           0       13.598893    2.527264   -0.576641
    118          1           0       14.312476    1.910496    0.798906
    119          1           0       16.351129    1.486672   -0.451916
    120          1           0       15.565488    1.783534   -1.910048
    121          1           0       15.243050    4.208075   -1.040788
    122          1           0       16.115900    3.812171    0.524322
    123          1           0       17.992414    3.117218   -1.018569
    124          1           0       16.333252    4.842911   -2.890946
    125          1           0       18.154451    4.569017   -3.386519
    126          1           0       16.715001    3.278869   -3.488872
    127          1           0       17.815763    5.370245    0.436120
    128          1           0       18.873043    5.461219   -1.203145
    129          1           0       17.194192    6.149329   -1.232485
    130          1           0       -5.314083   -7.748660    0.175830
    131          1           0       -6.411971   -6.584918    0.677785
    132          1           0       -4.617894   -6.898387    1.491689
    133          8           0       -7.949190    6.810838   -0.428769
    134          1           0       -9.080542    6.075155   -1.915223
 ---------------------------------------------------------------------

 SCF Done:  E(RCAM-B3LYP) =  -3043.35570556     A.U. after   15 cycles

 Excitation energies and oscillator strengths:

 Excited State   1:      Singlet-A      2.0058 eV  618.12 nm  f=0.2470  <S**2>=0.000
     243 -> 246       -0.20568
     244 -> 245        0.66899
 This state for optimization and/or second-order correction.
 Total Energy, E(TD-HF/TD-KS) =  -3043.28199224
 Copying the excited state density for this state as the 1-particle RhoCI density.

 The electronic state is 1-A.
 Alpha  occ. eigenvalues --  -46.81468 -19.22541 -19.22247 -19.18307 -19.17896
 Alpha  occ. eigenvalues --  -19.17511 -19.17083 -19.16453 -14.38368 -14.36835
 Alpha  occ. eigenvalues --  -14.36772 -14.36518 -10.35148 -10.34560 -10.32263
 Alpha  occ. eigenvalues --  -10.29822 -10.29557 -10.28259 -10.27122 -10.27005
 Alpha  occ. eigenvalues --  -10.26998 -10.26488 -10.26379 -10.26017 -10.25794
 Alpha  occ. eigenvalues --  -10.25762 -10.25644 -10.25601 -10.25577 -10.25304
 Alpha  occ. eigenvalues --  -10.25081 -10.24866 -10.24835 -10.24795 -10.24562
 Alpha  occ. eigenvalues --  -10.24231 -10.24125 -10.23793 -10.23696 -10.23562
 Alpha  occ. eigenvalues --  -10.23515 -10.23003 -10.22978 -10.22831 -10.22669
 Alpha  occ. eigenvalues --  -10.22527 -10.22466 -10.22457 -10.22453 -10.22420
 Alpha  occ. eigenvalues --  -10.22279 -10.22253 -10.21656 -10.21545 -10.21544
 Alpha  occ. eigenvalues --  -10.21519 -10.21367 -10.21106 -10.21072 -10.21029
 Alpha  occ. eigenvalues --  -10.20746 -10.20586 -10.20502 -10.20475 -10.19981
 Alpha  occ. eigenvalues --  -10.19027  -3.10013  -1.84961  -1.84489  -1.84405
 Alpha  occ. eigenvalues --   -1.15247  -1.12072  -1.10646  -1.10406  -1.06384
 Alpha  occ. eigenvalues --   -1.04775  -1.03998  -1.00949  -1.00231  -0.99663
 Alpha  occ. eigenvalues --   -0.98539  -0.88838  -0.86457  -0.86417  -0.85900
 Alpha  occ. eigenvalues --   -0.85721  -0.84924  -0.84522  -0.83806  -0.83598
 Alpha  occ. eigenvalues --   -0.83395  -0.83169  -0.81506  -0.81049  -0.80696
 Alpha  occ. eigenvalues --   -0.78766  -0.78604  -0.78096  -0.77745  -0.76097
 Alpha  occ. eigenvalues --   -0.75329  -0.74889  -0.73999  -0.73603  -0.72443
 Alpha  occ. eigenvalues --   -0.71365  -0.70481  -0.69904  -0.69564  -0.69484
 Alpha  occ. eigenvalues --   -0.69114  -0.69003  -0.67533  -0.67123  -0.66918
 Alpha  occ. eigenvalues --   -0.65985  -0.64623  -0.64579  -0.62234  -0.62074
 Alpha  occ. eigenvalues --   -0.61726  -0.61491  -0.60524  -0.59582  -0.59375
 Alpha  occ. eigenvalues --   -0.58465  -0.58094  -0.57414  -0.56740  -0.56469
 Alpha  occ. eigenvalues --   -0.56172  -0.55987  -0.55221  -0.54846  -0.54647
 Alpha  occ. eigenvalues --   -0.54033  -0.53667  -0.52831  -0.52626  -0.52296
 Alpha  occ. eigenvalues --   -0.52031  -0.51896  -0.51269  -0.50891  -0.50545
 Alpha  occ. eigenvalues --   -0.50154  -0.49981  -0.49802  -0.49641  -0.49315
 Alpha  occ. eigenvalues --   -0.48935  -0.48288  -0.48220  -0.47870  -0.47780
 Alpha  occ. eigenvalues --   -0.47683  -0.47585  -0.47534  -0.47440  -0.47110
 Alpha  occ. eigenvalues --   -0.46913  -0.46845  -0.46513  -0.46138  -0.45971
 Alpha  occ. eigenvalues --   -0.45824  -0.45404  -0.45362  -0.45148  -0.44897
 Alpha  occ. eigenvalues --   -0.44570  -0.44482  -0.44164  -0.43904  -0.43693
 Alpha  occ. eigenvalues --   -0.43586  -0.43428  -0.43241  -0.43191  -0.43146
 Alpha  occ. eigenvalues --   -0.42965  -0.42879  -0.42849  -0.42162  -0.42033
 Alpha  occ. eigenvalues --   -0.41891  -0.41710  -0.41448  -0.41329  -0.41128
 Alpha  occ. eigenvalues --   -0.41008  -0.40943  -0.40737  -0.40426  -0.40172
 Alpha  occ. eigenvalues --   -0.40007  -0.39619  -0.39504  -0.39443  -0.39058
 Alpha  occ. eigenvalues --   -0.38871  -0.38794  -0.38662  -0.38193  -0.38170
 Alpha  occ. eigenvalues --   -0.37989  -0.37647  -0.37544  -0.37278  -0.37190
 Alpha  occ. eigenvalues --   -0.36492  -0.36326  -0.35904  -0.35787  -0.35560
 Alpha  occ. eigenvalues --   -0.35520  -0.35285  -0.35045  -0.34383  -0.34354
 Alpha  occ. eigenvalues --   -0.34199  -0.33970  -0.33629  -0.33379  -0.32635
 Alpha  occ. eigenvalues --   -0.32616  -0.32061  -0.31996  -0.31568  -0.31286
 Alpha  occ. eigenvalues --   -0.30859  -0.30852  -0.30563  -0.29997  -0.29593
 Alpha  occ. eigenvalues --   -0.28847  -0.28555  -0.28021  -0.27543  -0.27229
 Alpha  occ. eigenvalues --   -0.27108  -0.26917  -0.23592  -0.20914
 Alpha virt. eigenvalues --   -0.08385  -0.05956  -0.01064  -0.00158   0.01087
 Alpha virt. eigenvalues --    0.03035   0.03431   0.04000   0.04785   0.04827
 Alpha virt. eigenvalues --    0.05158   0.05955   0.07738   0.07860   0.08311

 Mulliken charges:
               1
     1  Mg   0.817463
     2  C    0.133472
     3  C   -0.152786
     4  C   -0.187222
     5  C   -0.151988
     6  N   -0.658363
     7  C    0.284159
     8  C   -0.147627
     9  C   -0.165282
    10  C    0.399710
    11  C   -0.304074
    12  C   -0.155949
    13  C   -0.265094
    14  C    0.610205
    15  O   -0.467219
    16  O   -0.486900
    17  N   -0.709691
    18  C    0.355262
    19  C    0.010215
    20  C   -0.015079
    21  C    0.277804
    22  C   -0.395165
    23  C    0.261778
    24  O   -0.391821
    25  N   -0.712500
    26  C    0.322705
    27  C   -0.090276
    28  C    0.107963
    29  C    0.281767
    30  C    0.274008
    31  C   -0.295691
    32  C   -0.313885
    33  N   -0.738145
    34  C    0.246702
    35  C    0.018272
    36  C    0.006678
    37  C    0.320331
    38  C   -0.397273
    39  C    0.383619
    40  O   -0.410398
    41  C   -0.359192
    42  C    0.611570
    43  O   -0.478972
    44  O   -0.433451
    45  C   -0.056052
    46  C   -0.007566
    47  C   -0.162596
    48  C    0.203897
    49  C   -0.407497
    50  C   -0.240686
    51  C   -0.179865
    52  C   -0.137698
    53  C   -0.049912
    54  C   -0.291750
    55  C   -0.163313
    56  C   -0.150844
    57  C   -0.154719
    58  C   -0.053550
    59  C   -0.308580
    60  C   -0.163920
    61  C   -0.187158
    62  C   -0.160363
    63  C   -0.036979
    64  C   -0.289769
    65  C   -0.289051
    66  H    0.073298
    67  H    0.136596
    68  H    0.097271
    69  H    0.115464
    70  H    0.071255
    71  H    0.124445
    72  H    0.089846
    73  H    0.133403
    74  H    0.094399
    75  H    0.131651
    76  H    0.146941
    77  H    0.137621
    78  H    0.125935
    79  H    0.171007
    80  H    0.108391
    81  H    0.045077
    82  H    0.120830
    83  H    0.116295
    84  H    0.125482
    85  H    0.126637
    86  H    0.113862
    87  H    0.128367
    88  H    0.147174
    89  H    0.128189
    90  H    0.151495
    91  H    0.123338
    92  H    0.138075
    93  H    0.076914
    94  H    0.153698
    95  H    0.110534
    96  H    0.106866
    97  H    0.103100
    98  H    0.077233
    99  H    0.071664
   100  H    0.092082
   101  H    0.075897
   102  H    0.096185
   103  H    0.091055
   104  H    0.061785
   105  H    0.107350
   106  H    0.104152
   107  H    0.078583
   108  H    0.067506
   109  H    0.074370
   110  H    0.063168
   111  H    0.069849
   112  H    0.103587
   113  H    0.089808
   114  H    0.087336
   115  H    0.084727
   116  H    0.104829
   117  H    0.100973
   118  H    0.094603
   119  H    0.085072
   120  H    0.096489
   121  H    0.086703
   122  H    0.071008
   123  H    0.035577
   124  H    0.106876
   125  H    0.084026
   126  H    0.107978
   127  H    0.065606
   128  H    0.076018
   129  H    0.103836
   130  H    0.130203
   131  H    0.103729
   132  H    0.110619
   133  O   -0.432912
   134  H    0.047302
 Sum of Mulliken charges =   0.00000

 Dipole moment (field-independent basis, Debye):
    X=              1.0902    Y=             -4.9840    Z=             -2.0178  Tot=              5.4864
 Quadrupole moment (field-independent basis, Debye-Ang):
   XX=           -392.1809   YY=           -444.8564   ZZ=           -389.7877
   XY=             13.8740   XZ=             26.7099   YZ=            -33.5350

 Normal termination of Gaussian 09 at Tue Oct  8 15:26:43 2019.
