 Gaussian 09, Revision D.01,
 Gaussian 09:  ES64L-G09RevD.01 24-Apr-2013

 ----------------------------------------------------------------------
 # td=(NStates=1) iop(3/107=0140000000,3/108=0140000000) iop(3/107=0140
 000000,3/108=0140000000) CAM-B3LYP/6-31G(d,p)
 ----------------------------------------------------------------------

 --
 TD
 --
 Symbolic Z-matrix:
 Charge =  0 Multiplicity = 1

                         Standard orientation:
 ---------------------------------------------------------------------
 Center     Atomic      Atomic             Coordinates (Angstroms)
 Number     Number       Type             X           Y           Z
 ---------------------------------------------------------------------
      1         12           0       -5.673528    1.210586    0.179149
      2          6           0       -4.883133   -2.214637   -0.366440
      3          6           0       -3.534915    1.150389    2.834696
      4          6           0       -6.248720    4.531533    0.737304
      5          6           0       -7.923737    1.148645   -2.438591
      6          7           0       -4.415785   -0.241285    1.082317
      7          6           0       -4.285430   -1.586674    0.579496
      8          6           0       -3.187637   -2.374664    1.475885
      9          6           0       -2.978247   -1.368119    2.581899
     10          6           0       -3.708203   -0.090902    2.110161
     11          6           0       -3.602044   -1.871766    3.980835
     12          6           0       -2.080681   -2.848838    0.561098
     13          6           0       -1.002701   -3.457583    1.427360
     14          6           0        0.218255   -3.877667    0.742226
     15          8           0        0.482625   -3.355629   -0.403430
     16          8           0        1.061174   -4.629688    1.399004
     17          7           0       -5.019217    2.645659    1.562512
     18          6           0       -4.067295    2.418613    2.565029
     19          6           0       -3.861453    3.655075    3.219658
     20          6           0       -4.660558    4.630701    2.686598
     21          6           0       -5.359671    3.941384    1.598973
     22          6           0       -2.853217    3.914859    4.333401
     23          6           0       -4.686878    6.030331    2.935752
     24          8           0       -4.100419    6.572356    3.829233
     25          7           0       -6.775574    2.594592   -0.737872
     26          6           0       -6.974653    3.850263   -0.285072
     27          6           0       -7.967002    4.553147   -1.206380
     28          6           0       -8.458964    3.581780   -2.093244
     29          6           0       -7.776262    2.372036   -1.714623
     30          6           0       -8.440922    5.924129   -1.155571
     31          6           0       -9.511315    3.661718   -3.181890
     32          6           0       -8.895372    4.013963   -4.555480
     33          7           0       -6.316313   -0.187945   -1.155567
     34          6           0       -7.296575   -0.032380   -2.158182
     35          6           0       -7.397925   -1.271156   -2.840321
     36          6           0       -6.586505   -2.229086   -2.170395
     37          6           0       -5.881811   -1.474754   -1.250685
     38          6           0       -8.500020   -1.656551   -3.860467
     39          6           0       -6.097351   -3.562475   -2.045044
     40          8           0       -6.340649   -4.546924   -2.695374
     41          6           0       -4.936190   -3.518334   -0.995375
     42          6           0       -5.148128   -4.658111    0.146708
     43          8           0       -5.590122   -4.383949    1.192814
     44          8           0       -4.881927   -5.802385   -0.437141
     45          6           0       -5.373936   -6.978950    0.305611
     46          6           0        2.359868   -5.029782    0.712886
     47          6           0        3.449714   -4.138830    1.013262
     48          6           0        4.095813   -3.178341    0.113817
     49          6           0        3.597736   -3.042948   -1.234073
     50          6           0        5.245813   -2.347355    0.704104
     51          6           0        6.557811   -2.676053    0.202096
     52          6           0        7.605953   -1.771499    0.736532
     53          6           0        8.968723   -1.910369   -0.009826
     54          6           0        9.647951   -3.313959    0.303606
     55          6           0        9.910441   -0.792645    0.385501
     56          6           0       11.383857   -0.832891   -0.261181
     57          6           0       12.292109    0.316228    0.164152
     58          6           0       13.572895    0.333184   -0.544215
     59          6           0       14.497259   -0.866007   -0.320409
     60          6           0       14.275197    1.697515   -0.212897
     61          6           0       15.425646    2.203626   -1.022526
     62          6           0       16.064869    3.527884   -0.747242
     63          6           0       17.349720    3.954815   -1.510090
     64          6           0       17.094081    4.325918   -3.015842
     65          6           0       17.918269    5.092733   -0.745832
     66          1           0       -3.081090    1.160770    3.995506
     67          1           0       -6.654709    5.470837    1.027777
     68          1           0       -8.523022    1.392885   -3.143964
     69          1           0       -3.684288   -3.290416    1.908320
     70          1           0       -1.961705   -0.986295    2.750814
     71          1           0       -2.881296   -2.658423    4.408546
     72          1           0       -3.548927   -0.964732    4.481365
     73          1           0       -4.628729   -2.622508    4.013316
     74          1           0       -2.444635   -3.331424   -0.194435
     75          1           0       -1.548354   -1.906455    0.087370
     76          1           0       -0.472086   -2.725192    2.024657
     77          1           0       -1.409965   -4.318021    2.238028
     78          1           0       -1.839795    3.486045    4.036922
     79          1           0       -2.874596    4.901645    4.534013
     80          1           0       -2.941160    3.255026    5.283633
     81          1           0       -5.272396    6.694517    2.480714
     82          1           0      -10.077410    2.786416   -3.410873
     83          1           0      -10.118674    4.391890   -2.953913
     84          1           0       -9.660541    3.855785   -5.350236
     85          1           0       -8.302255    4.912538   -4.696771
     86          1           0       -8.018295    3.068871   -4.772802
     87          1           0       -8.230932   -0.970698   -4.869358
     88          1           0       -8.673228   -2.675520   -3.980924
     89          1           0       -9.449064   -1.263984   -3.285091
     90          1           0       -3.752233   -3.839531   -1.527430
     91          1           0        2.489803   -5.994489    1.292339
     92          1           0        2.149250   -5.185263   -0.328870
     93          1           0        3.980643   -4.026144    2.106495
     94          1           0        2.702323   -3.658561   -1.521759
     95          1           0        3.550585   -1.807562   -1.295111
     96          1           0        4.412544   -3.323747   -1.896822
     97          1           0        5.035350   -1.423216    0.361080
     98          1           0        5.316753   -2.422451    1.776629
     99          1           0        6.843890   -3.775408    0.470170
    100          1           0        6.622279   -2.689049   -0.951277
    101          1           0        7.072770   -0.730027    0.816717
    102          1           0        7.883028   -1.915912    1.751548
    103          1           0        8.902084   -1.933859   -1.086806
    104          1           0        9.090490   -4.229357    0.023146
    105          1           0       10.674122   -3.367606   -0.053029
    106          1           0        9.644563   -3.359314    1.309090
    107          1           0        9.529029    0.353330    0.201027
    108          1           0       10.149364   -0.788825    1.479260
    109          1           0       11.788733   -1.756602    0.112845
    110          1           0       11.168177   -1.034341   -1.376337
    111          1           0       11.793579    1.338206    0.206692
    112          1           0       12.346080    0.063711    1.294117
    113          1           0       13.391417    0.384744   -1.750135
    114          1           0       14.710413   -0.992011    0.658759
    115          1           0       14.001766   -1.785284   -0.983842
    116          1           0       15.393206   -0.719547   -0.598068
    117          1           0       13.468733    2.463029   -0.169493
    118          1           0       14.664001    1.561515    0.936245
    119          1           0       16.351467    1.547574   -1.005462
    120          1           0       15.214016    2.072262   -2.001660
    121          1           0       15.303816    4.219628   -0.843802
    122          1           0       16.368386    3.707685    0.151775
    123          1           0       17.946739    2.904530   -1.645606
    124          1           0       16.263975    5.110656   -3.154568
    125          1           0       17.901931    4.800241   -3.518984
    126          1           0       16.652166    3.346403   -3.501412
    127          1           0       18.193819    4.906229    0.305981
    128          1           0       19.009831    5.270526   -1.134800
    129          1           0       17.187880    5.917802   -0.921219
    130          1           0       -5.096393   -7.851174   -0.055280
    131          1           0       -6.449507   -6.871239    0.528808
    132          1           0       -4.888571   -6.871850    1.251607
    133          8           0       -7.858008    6.813905   -0.543639
    134          1           0       -9.283151    6.032220   -1.766964
 ---------------------------------------------------------------------

 SCF Done:  E(RCAM-B3LYP) =  -3043.36687645     A.U. after   15 cycles

 Excitation energies and oscillator strengths:

 Excited State   1:      Singlet-A      2.0185 eV  614.23 nm  f=0.2204  <S**2>=0.000
     243 -> 246        0.18597
     244 -> 245        0.67586
 This state for optimization and/or second-order correction.
 Total Energy, E(TD-HF/TD-KS) =  -3043.29269702
 Copying the excited state density for this state as the 1-particle RhoCI density.

 The electronic state is 1-A.
 Alpha  occ. eigenvalues --  -46.81024 -19.23666 -19.21988 -19.18327 -19.16581
 Alpha  occ. eigenvalues --  -19.16066 -19.15985 -19.14398 -14.39103 -14.37119
 Alpha  occ. eigenvalues --  -14.36126 -14.35983 -10.35411 -10.33817 -10.30560
 Alpha  occ. eigenvalues --  -10.29387 -10.28327 -10.28224 -10.28196 -10.27181
 Alpha  occ. eigenvalues --  -10.27005 -10.26763 -10.26247 -10.25953 -10.25885
 Alpha  occ. eigenvalues --  -10.25773 -10.25443 -10.25345 -10.24962 -10.24889
 Alpha  occ. eigenvalues --  -10.24624 -10.24570 -10.24370 -10.24337 -10.24260
 Alpha  occ. eigenvalues --  -10.24229 -10.24065 -10.23814 -10.23735 -10.23284
 Alpha  occ. eigenvalues --  -10.23133 -10.22986 -10.22856 -10.22707 -10.22689
 Alpha  occ. eigenvalues --  -10.22650 -10.22589 -10.22451 -10.22347 -10.22128
 Alpha  occ. eigenvalues --  -10.22074 -10.21899 -10.21860 -10.21761 -10.21586
 Alpha  occ. eigenvalues --  -10.21515 -10.21506 -10.21242 -10.21129 -10.21094
 Alpha  occ. eigenvalues --  -10.21076 -10.21039 -10.19837 -10.19573 -10.19274
 Alpha  occ. eigenvalues --  -10.17984  -3.09639  -1.84584  -1.84124  -1.84030
 Alpha  occ. eigenvalues --   -1.15512  -1.12040  -1.07997  -1.07689  -1.06804
 Alpha  occ. eigenvalues --   -1.05756  -1.01196  -1.00044  -0.99756  -0.99159
 Alpha  occ. eigenvalues --   -0.98180  -0.88806  -0.87191  -0.86155  -0.85815
 Alpha  occ. eigenvalues --   -0.85719  -0.84527  -0.84029  -0.83747  -0.83303
 Alpha  occ. eigenvalues --   -0.83147  -0.82502  -0.81829  -0.80606  -0.79588
 Alpha  occ. eigenvalues --   -0.79078  -0.78951  -0.78393  -0.77735  -0.77557
 Alpha  occ. eigenvalues --   -0.76070  -0.74733  -0.73779  -0.73232  -0.72126
 Alpha  occ. eigenvalues --   -0.71832  -0.71806  -0.70751  -0.70093  -0.69492
 Alpha  occ. eigenvalues --   -0.68980  -0.68641  -0.67205  -0.66802  -0.66596
 Alpha  occ. eigenvalues --   -0.66289  -0.65390  -0.64282  -0.62436  -0.62141
 Alpha  occ. eigenvalues --   -0.61400  -0.60815  -0.60728  -0.59549  -0.59129
 Alpha  occ. eigenvalues --   -0.58811  -0.58642  -0.58204  -0.58080  -0.57675
 Alpha  occ. eigenvalues --   -0.55818  -0.55546  -0.55300  -0.55040  -0.54693
 Alpha  occ. eigenvalues --   -0.53813  -0.53327  -0.53108  -0.52669  -0.52214
 Alpha  occ. eigenvalues --   -0.51882  -0.51743  -0.51346  -0.51211  -0.50455
 Alpha  occ. eigenvalues --   -0.50341  -0.49977  -0.49650  -0.49226  -0.48914
 Alpha  occ. eigenvalues --   -0.48703  -0.48451  -0.48420  -0.48113  -0.47908
 Alpha  occ. eigenvalues --   -0.47756  -0.47722  -0.47354  -0.47055  -0.46946
 Alpha  occ. eigenvalues --   -0.46821  -0.46736  -0.46475  -0.46128  -0.46047
 Alpha  occ. eigenvalues --   -0.45874  -0.45758  -0.45485  -0.45175  -0.44957
 Alpha  occ. eigenvalues --   -0.44817  -0.44473  -0.44441  -0.44329  -0.44121
 Alpha  occ. eigenvalues --   -0.43716  -0.43357  -0.43183  -0.43014  -0.42605
 Alpha  occ. eigenvalues --   -0.42293  -0.42151  -0.42013  -0.41738  -0.41601
 Alpha  occ. eigenvalues --   -0.41529  -0.41502  -0.41260  -0.41224  -0.41030
 Alpha  occ. eigenvalues --   -0.40925  -0.40600  -0.40369  -0.40246  -0.40145
 Alpha  occ. eigenvalues --   -0.39901  -0.39657  -0.39364  -0.39203  -0.39089
 Alpha  occ. eigenvalues --   -0.38726  -0.38548  -0.38377  -0.38225  -0.37936
 Alpha  occ. eigenvalues --   -0.37802  -0.37460  -0.37378  -0.37171  -0.36876
 Alpha  occ. eigenvalues --   -0.36702  -0.36635  -0.35948  -0.35594  -0.35531
 Alpha  occ. eigenvalues --   -0.35240  -0.35161  -0.34677  -0.34561  -0.34226
 Alpha  occ. eigenvalues --   -0.34092  -0.34048  -0.33503  -0.33450  -0.33225
 Alpha  occ. eigenvalues --   -0.32702  -0.32422  -0.32091  -0.31756  -0.31481
 Alpha  occ. eigenvalues --   -0.31395  -0.31056  -0.30910  -0.29626  -0.28401
 Alpha  occ. eigenvalues --   -0.28108  -0.27991  -0.27697  -0.27588  -0.27289
 Alpha  occ. eigenvalues --   -0.26904  -0.25509  -0.23731  -0.21283
 Alpha virt. eigenvalues --   -0.08530  -0.06371  -0.00760  -0.00332   0.00630
 Alpha virt. eigenvalues --    0.01255   0.03762   0.04312   0.04533   0.04764
 Alpha virt. eigenvalues --    0.05510   0.05715   0.07633   0.08163   0.09335

 Mulliken charges:
               1
     1  Mg   0.820414
     2  C    0.223206
     3  C   -0.227040
     4  C   -0.161478
     5  C   -0.072073
     6  N   -0.608208
     7  C    0.215114
     8  C   -0.149779
     9  C   -0.154715
    10  C    0.380955
    11  C   -0.301723
    12  C   -0.125770
    13  C   -0.237939
    14  C    0.584063
    15  O   -0.532953
    16  O   -0.459993
    17  N   -0.718831
    18  C    0.331665
    19  C    0.031641
    20  C   -0.002815
    21  C    0.322400
    22  C   -0.377637
    23  C    0.244520
    24  O   -0.412052
    25  N   -0.679029
    26  C    0.310288
    27  C   -0.065413
    28  C    0.056848
    29  C    0.211993
    30  C    0.246320
    31  C   -0.228565
    32  C   -0.305778
    33  N   -0.721391
    34  C    0.311667
    35  C   -0.048199
    36  C    0.080268
    37  C    0.210883
    38  C   -0.346039
    39  C    0.350564
    40  O   -0.458984
    41  C   -0.378684
    42  C    0.614999
    43  O   -0.432778
    44  O   -0.428678
    45  C   -0.098931
    46  C   -0.004198
    47  C   -0.123958
    48  C    0.125532
    49  C   -0.350212
    50  C   -0.213027
    51  C   -0.160205
    52  C   -0.159930
    53  C   -0.068491
    54  C   -0.334118
    55  C   -0.168520
    56  C   -0.196726
    57  C   -0.154649
    58  C   -0.037286
    59  C   -0.288502
    60  C   -0.169908
    61  C   -0.181532
    62  C   -0.144747
    63  C   -0.056859
    64  C   -0.302838
    65  C   -0.312233
    66  H    0.078504
    67  H    0.119473
    68  H    0.048634
    69  H    0.122444
    70  H    0.113845
    71  H    0.105373
    72  H    0.117231
    73  H    0.112212
    74  H    0.105648
    75  H    0.111206
    76  H    0.151980
    77  H    0.090466
    78  H    0.115886
    79  H    0.159412
    80  H    0.109622
    81  H    0.082135
    82  H    0.128180
    83  H    0.122430
    84  H    0.114746
    85  H    0.133472
    86  H    0.060158
    87  H    0.102896
    88  H    0.152155
    89  H    0.111298
    90  H    0.125477
    91  H    0.119836
    92  H    0.134638
    93  H    0.060148
    94  H    0.150615
    95  H    0.094531
    96  H    0.120506
    97  H    0.108433
    98  H    0.109264
    99  H    0.083378
   100  H    0.085185
   101  H    0.074578
   102  H    0.099771
   103  H    0.091642
   104  H    0.100406
   105  H    0.110025
   106  H    0.114121
   107  H    0.066166
   108  H    0.078591
   109  H    0.108518
   110  H    0.075196
   111  H    0.086832
   112  H    0.082102
   113  H    0.058488
   114  H    0.105042
   115  H    0.080027
   116  H    0.114305
   117  H    0.084916
   118  H    0.054170
   119  H    0.070362
   120  H    0.099674
   121  H    0.085655
   122  H    0.095465
   123  H    0.061874
   124  H    0.083281
   125  H    0.110686
   126  H    0.088952
   127  H    0.108340
   128  H    0.086479
   129  H    0.112596
   130  H    0.139186
   131  H    0.140059
   132  H    0.130711
   133  O   -0.438404
   134  H    0.068841
 Sum of Mulliken charges =   0.00000

 Dipole moment (field-independent basis, Debye):
    X=              1.6768    Y=             -5.5420    Z=              0.0774  Tot=              5.7906
 Quadrupole moment (field-independent basis, Debye-Ang):
   XX=           -349.3930   YY=           -427.8180   ZZ=           -398.2801
   XY=             12.1011   XZ=             22.3721   YZ=            -35.2957

 Normal termination of Gaussian 09 at Fri Oct  4 06:48:30 2019.
