 Gaussian 09, Revision D.01,
 Gaussian 09:  ES64L-G09RevD.01 24-Apr-2013

 ----------------------------------------------------------------------
 # td=(NStates=1) iop(3/107=0140000000,3/108=0140000000) iop(3/107=0140
 000000,3/108=0140000000) CAM-B3LYP/6-31G(d,p)
 ----------------------------------------------------------------------

 --
 TD
 --
 Symbolic Z-matrix:
 Charge =  0 Multiplicity = 1

                         Standard orientation:
 ---------------------------------------------------------------------
 Center     Atomic      Atomic             Coordinates (Angstroms)
 Number     Number       Type             X           Y           Z
 ---------------------------------------------------------------------
      1         12           0       -5.737833    1.183492    0.220182
      2          6           0       -5.084433   -2.168314   -0.300373
      3          6           0       -3.507552    1.293759    2.742693
      4          6           0       -6.413202    4.514637    0.635272
      5          6           0       -8.103012    1.065533   -2.336088
      6          7           0       -4.483724   -0.349424    1.158877
      7          6           0       -4.257246   -1.584708    0.689985
      8          6           0       -3.111917   -2.288543    1.422254
      9          6           0       -2.947306   -1.306788    2.602551
     10          6           0       -3.587816    0.034721    2.084397
     11          6           0       -3.593929   -1.727523    3.923793
     12          6           0       -1.916731   -2.639642    0.608715
     13          6           0       -0.912553   -3.430535    1.443148
     14          6           0        0.323258   -3.738887    0.601871
     15          8           0        0.600686   -3.297402   -0.485262
     16          8           0        1.180831   -4.658080    1.196621
     17          7           0       -5.047596    2.621715    1.497210
     18          6           0       -4.072342    2.447041    2.500834
     19          6           0       -3.804682    3.673847    3.127861
     20          6           0       -4.706466    4.630705    2.493586
     21          6           0       -5.430172    3.955861    1.498799
     22          6           0       -3.027317    3.897869    4.334995
     23          6           0       -4.887680    6.089351    2.786994
     24          8           0       -4.223681    6.658299    3.640948
     25          7           0       -7.010883    2.515016   -0.722670
     26          6           0       -7.088774    3.859317   -0.302551
     27          6           0       -8.041589    4.591511   -1.227265
     28          6           0       -8.519101    3.622662   -2.035938
     29          6           0       -7.846177    2.349495   -1.690542
     30          6           0       -8.387948    5.912439   -1.187030
     31          6           0       -9.438080    3.608400   -3.217815
     32          6           0       -8.857289    3.693314   -4.609233
     33          7           0       -6.432639   -0.194681   -1.066045
     34          6           0       -7.379099   -0.105072   -2.078271
     35          6           0       -7.564021   -1.437656   -2.643725
     36          6           0       -6.676007   -2.285704   -2.012519
     37          6           0       -5.979252   -1.374761   -1.076580
     38          6           0       -8.572815   -1.668804   -3.812966
     39          6           0       -6.118009   -3.615159   -1.993647
     40          8           0       -6.383381   -4.515490   -2.672848
     41          6           0       -4.955661   -3.537776   -0.864053
     42          6           0       -5.241084   -4.627829    0.123785
     43          8           0       -5.703272   -4.425688    1.212005
     44          8           0       -4.948217   -5.874462   -0.394292
     45          6           0       -5.301260   -6.979692    0.541262
     46          6           0        2.357604   -5.025129    0.547307
     47          6           0        3.422030   -4.016387    0.967941
     48          6           0        4.141822   -3.259249    0.120942
     49          6           0        3.837336   -3.129236   -1.300434
     50          6           0        5.208820   -2.333330    0.733413
     51          6           0        6.655078   -2.687878    0.025106
     52          6           0        7.814109   -1.697999    0.666679
     53          6           0        9.169602   -2.014623    0.037517
     54          6           0        9.688015   -3.392996    0.302619
     55          6           0       10.112245   -0.891453    0.578401
     56          6           0       11.564326   -0.912199   -0.045923
     57          6           0       12.341965    0.278099    0.275881
     58          6           0       13.662198    0.501530   -0.446689
     59          6           0       14.631263   -0.694382   -0.221143
     60          6           0       14.332312    1.782175   -0.176730
     61          6           0       15.550399    2.143654   -1.023472
     62          6           0       16.189896    3.551464   -0.779988
     63          6           0       17.358527    3.989205   -1.531042
     64          6           0       17.090359    4.157685   -2.940945
     65          6           0       18.032309    5.252601   -0.899300
     66          1           0       -2.907231    1.257203    3.565884
     67          1           0       -6.640267    5.503564    0.731493
     68          1           0       -8.872017    0.971674   -3.201031
     69          1           0       -3.615407   -3.084004    1.897935
     70          1           0       -1.818046   -1.096669    2.935157
     71          1           0       -3.099517   -2.743469    4.261552
     72          1           0       -3.364646   -1.230434    4.746306
     73          1           0       -4.742290   -1.827736    3.856566
     74          1           0       -2.337457   -3.365176   -0.212348
     75          1           0       -1.534201   -1.627758    0.460044
     76          1           0       -0.506398   -3.027838    2.433246
     77          1           0       -1.362910   -4.562882    1.734423
     78          1           0       -1.920794    3.414189    4.235330
     79          1           0       -3.181875    4.891531    4.517210
     80          1           0       -3.326554    3.153478    5.031925
     81          1           0       -5.833126    6.488054    2.386350
     82          1           0       -9.917547    2.693401   -3.045851
     83          1           0      -10.181949    4.559505   -3.122338
     84          1           0       -9.830037    3.662424   -5.447656
     85          1           0       -8.249203    4.538005   -4.666372
     86          1           0       -8.391145    2.807861   -4.999953
     87          1           0       -8.546407   -0.801008   -4.614939
     88          1           0       -8.552951   -2.744593   -4.160424
     89          1           0       -9.618784   -1.632061   -3.341914
     90          1           0       -4.252707   -3.635458   -1.567036
     91          1           0        2.697748   -5.961664    0.907552
     92          1           0        2.142734   -5.174319   -0.479013
     93          1           0        3.681904   -4.011644    1.828566
     94          1           0        2.696769   -3.131233   -1.663893
     95          1           0        4.175385   -2.128566   -1.736158
     96          1           0        4.210759   -4.070371   -1.976498
     97          1           0        4.963237   -1.307159    0.381080
     98          1           0        5.286106   -2.482918    1.804521
     99          1           0        6.742583   -3.846971    0.304754
    100          1           0        6.621642   -2.524173   -1.068966
    101          1           0        7.650556   -0.546989    0.310261
    102          1           0        7.869596   -1.756594    1.764413
    103          1           0        9.093412   -1.747658   -1.020225
    104          1           0        9.144348   -4.107359   -0.145075
    105          1           0       10.716851   -3.470372   -0.119993
    106          1           0        9.557001   -3.658172    1.403309
    107          1           0        9.768066    0.175120    0.353606
    108          1           0       10.283244   -0.970543    1.640685
    109          1           0       12.016803   -1.895272    0.415142
    110          1           0       11.289048   -1.059904   -0.979568
    111          1           0       11.825754    1.141660   -0.238553
    112          1           0       12.421039    0.452003    1.396535
    113          1           0       13.521913    0.327983   -1.454781
    114          1           0       14.396323   -0.860846    0.993131
    115          1           0       13.994661   -1.573320   -0.623635
    116          1           0       15.826824   -0.775665   -0.741012
    117          1           0       13.449339    2.480122   -0.287353
    118          1           0       14.479218    1.837014    0.944639
    119          1           0       16.225542    1.379325   -0.964668
    120          1           0       15.285580    1.829645   -2.118198
    121          1           0       15.309967    4.110778   -1.124115
    122          1           0       16.306441    3.716620    0.351620
    123          1           0       18.169822    3.314662   -1.249125
    124          1           0       16.402926    5.060291   -3.114186
    125          1           0       18.034624    4.331680   -3.491717
    126          1           0       16.680511    3.109714   -3.403544
    127          1           0       18.093016    5.054521    0.060960
    128          1           0       19.081919    5.360116   -1.389938
    129          1           0       17.609489    6.305632   -1.129440
    130          1           0       -5.135789   -7.876017   -0.023265
    131          1           0       -6.365786   -6.756834    0.816803
    132          1           0       -4.417143   -7.051251    1.351407
    133          8           0       -7.954157    6.818690   -0.444933
    134          1           0       -8.990827    6.252163   -2.017352
 ---------------------------------------------------------------------

 SCF Done:  E(RCAM-B3LYP) =  -3043.43229698     A.U. after   16 cycles

 Excitation energies and oscillator strengths:

 Excited State   1:      Singlet-A      1.9437 eV  637.89 nm  f=0.2227  <S**2>=0.000
     243 -> 246        0.21879
     244 -> 245        0.66161
 This state for optimization and/or second-order correction.
 Total Energy, E(TD-HF/TD-KS) =  -3043.36086830
 Copying the excited state density for this state as the 1-particle RhoCI density.

 The electronic state is 1-A.
 Alpha  occ. eigenvalues --  -46.81998 -19.22468 -19.20746 -19.18715 -19.17873
 Alpha  occ. eigenvalues --  -19.17289 -19.16799 -19.16716 -14.39172 -14.37719
 Alpha  occ. eigenvalues --  -14.37187 -14.35841 -10.35485 -10.35070 -10.32166
 Alpha  occ. eigenvalues --  -10.29866 -10.29464 -10.28847 -10.27603 -10.27572
 Alpha  occ. eigenvalues --  -10.27180 -10.27068 -10.26493 -10.26261 -10.26185
 Alpha  occ. eigenvalues --  -10.26172 -10.25999 -10.25601 -10.25581 -10.25389
 Alpha  occ. eigenvalues --  -10.25148 -10.25072 -10.24741 -10.24653 -10.24326
 Alpha  occ. eigenvalues --  -10.24293 -10.24258 -10.23606 -10.23448 -10.23267
 Alpha  occ. eigenvalues --  -10.23210 -10.22963 -10.22794 -10.22771 -10.22534
 Alpha  occ. eigenvalues --  -10.22503 -10.22264 -10.22223 -10.22121 -10.22049
 Alpha  occ. eigenvalues --  -10.21959 -10.21936 -10.21424 -10.21308 -10.21188
 Alpha  occ. eigenvalues --  -10.21186 -10.20671 -10.20638 -10.20619 -10.20592
 Alpha  occ. eigenvalues --  -10.20526 -10.20160 -10.20086 -10.19942 -10.19836
 Alpha  occ. eigenvalues --  -10.18513  -3.10530  -1.85477  -1.85011  -1.84920
 Alpha  occ. eigenvalues --   -1.12995  -1.12824  -1.11685  -1.06017  -1.05166
 Alpha  occ. eigenvalues --   -1.05103  -1.04726  -1.02724  -1.01053  -1.00836
 Alpha  occ. eigenvalues --   -0.97858  -0.89272  -0.86798  -0.86424  -0.86309
 Alpha  occ. eigenvalues --   -0.86064  -0.85274  -0.84811  -0.84105  -0.83965
 Alpha  occ. eigenvalues --   -0.83915  -0.82425  -0.81532  -0.80413  -0.80109
 Alpha  occ. eigenvalues --   -0.79829  -0.78789  -0.77600  -0.76893  -0.76063
 Alpha  occ. eigenvalues --   -0.75276  -0.74941  -0.73784  -0.73274  -0.72540
 Alpha  occ. eigenvalues --   -0.71153  -0.71017  -0.70895  -0.70374  -0.69600
 Alpha  occ. eigenvalues --   -0.69400  -0.68665  -0.68073  -0.66992  -0.66509
 Alpha  occ. eigenvalues --   -0.65827  -0.65064  -0.64754  -0.62637  -0.62248
 Alpha  occ. eigenvalues --   -0.61944  -0.61467  -0.59908  -0.59497  -0.58786
 Alpha  occ. eigenvalues --   -0.58557  -0.58292  -0.58183  -0.57258  -0.57109
 Alpha  occ. eigenvalues --   -0.56655  -0.56505  -0.56108  -0.55547  -0.55401
 Alpha  occ. eigenvalues --   -0.54968  -0.53687  -0.53451  -0.52593  -0.52321
 Alpha  occ. eigenvalues --   -0.51900  -0.51475  -0.51289  -0.50993  -0.50970
 Alpha  occ. eigenvalues --   -0.50746  -0.49956  -0.49688  -0.49541  -0.49437
 Alpha  occ. eigenvalues --   -0.49188  -0.49003  -0.48780  -0.48500  -0.48185
 Alpha  occ. eigenvalues --   -0.48022  -0.47908  -0.47750  -0.47609  -0.47281
 Alpha  occ. eigenvalues --   -0.46932  -0.46753  -0.46456  -0.46144  -0.46078
 Alpha  occ. eigenvalues --   -0.45805  -0.45614  -0.45356  -0.45108  -0.44849
 Alpha  occ. eigenvalues --   -0.44756  -0.44490  -0.44408  -0.44101  -0.43908
 Alpha  occ. eigenvalues --   -0.43669  -0.43481  -0.43381  -0.43160  -0.43033
 Alpha  occ. eigenvalues --   -0.42941  -0.42782  -0.42702  -0.42558  -0.42127
 Alpha  occ. eigenvalues --   -0.41780  -0.41560  -0.41457  -0.41238  -0.41033
 Alpha  occ. eigenvalues --   -0.40833  -0.40533  -0.40423  -0.40148  -0.40009
 Alpha  occ. eigenvalues --   -0.39881  -0.39798  -0.39717  -0.39395  -0.39290
 Alpha  occ. eigenvalues --   -0.38920  -0.38771  -0.38647  -0.38418  -0.37932
 Alpha  occ. eigenvalues --   -0.37805  -0.37539  -0.37238  -0.37161  -0.36927
 Alpha  occ. eigenvalues --   -0.36726  -0.36482  -0.36266  -0.35933  -0.35861
 Alpha  occ. eigenvalues --   -0.35484  -0.35402  -0.35059  -0.34703  -0.34634
 Alpha  occ. eigenvalues --   -0.34021  -0.33985  -0.33872  -0.33646  -0.33173
 Alpha  occ. eigenvalues --   -0.32511  -0.32097  -0.31926  -0.31815  -0.31688
 Alpha  occ. eigenvalues --   -0.31653  -0.30842  -0.30511  -0.30326  -0.29942
 Alpha  occ. eigenvalues --   -0.29656  -0.29447  -0.28500  -0.27894  -0.27395
 Alpha  occ. eigenvalues --   -0.26179  -0.25897  -0.23650  -0.20956
 Alpha virt. eigenvalues --   -0.08694  -0.06738  -0.02171  -0.00912   0.00729
 Alpha virt. eigenvalues --    0.03079   0.03373   0.03567   0.03783   0.04495
 Alpha virt. eigenvalues --    0.04690   0.05848   0.07543   0.08041   0.09269

 Mulliken charges:
               1
     1  Mg   0.818554
     2  C    0.077426
     3  C   -0.193991
     4  C   -0.141946
     5  C   -0.198255
     6  N   -0.595504
     7  C    0.295954
     8  C   -0.156254
     9  C   -0.157012
    10  C    0.307319
    11  C   -0.300916
    12  C   -0.133328
    13  C   -0.264943
    14  C    0.603271
    15  O   -0.451848
    16  O   -0.476949
    17  N   -0.754375
    18  C    0.366801
    19  C    0.047177
    20  C   -0.078564
    21  C    0.330940
    22  C   -0.374303
    23  C    0.251042
    24  O   -0.422236
    25  N   -0.690416
    26  C    0.282358
    27  C    0.058071
    28  C    0.001802
    29  C    0.330791
    30  C    0.200764
    31  C   -0.235860
    32  C   -0.285439
    33  N   -0.722926
    34  C    0.278229
    35  C    0.001034
    36  C    0.045857
    37  C    0.322013
    38  C   -0.381982
    39  C    0.311199
    40  O   -0.394762
    41  C   -0.333943
    42  C    0.645907
    43  O   -0.463987
    44  O   -0.481412
    45  C   -0.082829
    46  C    0.016382
    47  C   -0.101272
    48  C    0.169667
    49  C   -0.388360
    50  C   -0.233491
    51  C   -0.190698
    52  C   -0.157580
    53  C   -0.056113
    54  C   -0.303231
    55  C   -0.192071
    56  C   -0.170635
    57  C   -0.175564
    58  C   -0.064124
    59  C   -0.290995
    60  C   -0.138317
    61  C   -0.190650
    62  C   -0.154173
    63  C   -0.041959
    64  C   -0.292317
    65  C   -0.306548
    66  H    0.064223
    67  H    0.115548
    68  H    0.092529
    69  H    0.134386
    70  H    0.073611
    71  H    0.088414
    72  H    0.127629
    73  H    0.120731
    74  H    0.121580
    75  H    0.129527
    76  H    0.143328
    77  H    0.115436
    78  H    0.096368
    79  H    0.158874
    80  H    0.133390
    81  H    0.094354
    82  H    0.120695
    83  H    0.094541
    84  H    0.072670
    85  H    0.128588
    86  H    0.118302
    87  H    0.120167
    88  H    0.144159
    89  H    0.127254
    90  H    0.165849
    91  H    0.111447
    92  H    0.113084
    93  H    0.043053
    94  H    0.143189
    95  H    0.097285
    96  H    0.092134
    97  H    0.103543
    98  H    0.098679
    99  H    0.083742
   100  H    0.105650
   101  H    0.071909
   102  H    0.092753
   103  H    0.083204
   104  H    0.117067
   105  H    0.102278
   106  H    0.090922
   107  H    0.076302
   108  H    0.089147
   109  H    0.083652
   110  H    0.099607
   111  H    0.089665
   112  H    0.087735
   113  H    0.092514
   114  H    0.063160
   115  H    0.091193
   116  H    0.079159
   117  H    0.069948
   118  H    0.076891
   119  H    0.099042
   120  H    0.070563
   121  H    0.093915
   122  H    0.077675
   123  H    0.089620
   124  H    0.100667
   125  H    0.098750
   126  H    0.078927
   127  H    0.111174
   128  H    0.083316
   129  H    0.087309
   130  H    0.137770
   131  H    0.148673
   132  H    0.111704
   133  O   -0.444261
   134  H    0.063610
 Sum of Mulliken charges =   0.00000

 Dipole moment (field-independent basis, Debye):
    X=             -0.2375    Y=             -6.5817    Z=             -1.7286  Tot=              6.8090
 Quadrupole moment (field-independent basis, Debye-Ang):
   XX=           -386.2234   YY=           -443.4008   ZZ=           -391.7568
   XY=             21.4233   XZ=             22.1749   YZ=            -33.3675

 Normal termination of Gaussian 09 at Fri Oct  4 02:37:13 2019.
