 Gaussian 09, Revision D.01,
 Gaussian 09:  ES64L-G09RevD.01 24-Apr-2013

 ----------------------------------------------------------------------
 # td=(NStates=1) iop(3/107=0140000000,3/108=0140000000) iop(3/107=0140
 000000,3/108=0140000000) CAM-B3LYP/6-31G(d,p)
 ----------------------------------------------------------------------

 --
 TD
 --
 Symbolic Z-matrix:
 Charge =  0 Multiplicity = 1

                         Standard orientation:
 ---------------------------------------------------------------------
 Center     Atomic      Atomic             Coordinates (Angstroms)
 Number     Number       Type             X           Y           Z
 ---------------------------------------------------------------------
      1         12           0       -5.616473    1.185056    0.266209
      2          6           0       -4.898608   -2.139623   -0.359948
      3          6           0       -3.514905    1.226020    2.903693
      4          6           0       -6.285911    4.558691    0.700391
      5          6           0       -8.021237    1.192569   -2.357183
      6          7           0       -4.418842   -0.282976    1.180828
      7          6           0       -4.273406   -1.625958    0.691866
      8          6           0       -3.125363   -2.273894    1.468195
      9          6           0       -2.729987   -1.285882    2.603750
     10          6           0       -3.594321    0.022851    2.219233
     11          6           0       -3.310523   -1.774400    3.978388
     12          6           0       -1.864173   -2.646255    0.689947
     13          6           0       -0.917482   -3.605342    1.386070
     14          6           0        0.278628   -3.954291    0.589731
     15          8           0        0.579907   -3.522134   -0.550908
     16          8           0        1.126323   -4.633553    1.333105
     17          7           0       -5.068983    2.593679    1.646503
     18          6           0       -4.125641    2.452131    2.576792
     19          6           0       -3.942409    3.688427    3.251333
     20          6           0       -4.652286    4.564032    2.512940
     21          6           0       -5.511386    3.882392    1.586013
     22          6           0       -2.821046    3.778205    4.262075
     23          6           0       -4.778312    6.047523    2.795792
     24          8           0       -4.051387    6.615007    3.704841
     25          7           0       -6.879744    2.566014   -0.725262
     26          6           0       -6.934433    4.019197   -0.393855
     27          6           0       -8.088781    4.520450   -1.208648
     28          6           0       -8.538696    3.540670   -2.077114
     29          6           0       -7.778417    2.375750   -1.753053
     30          6           0       -8.309773    5.962608   -1.226965
     31          6           0       -9.633909    3.659135   -3.203523
     32          6           0       -8.951914    3.692797   -4.491870
     33          7           0       -6.325719   -0.143550   -1.165140
     34          6           0       -7.309235   -0.040000   -2.067315
     35          6           0       -7.494242   -1.357785   -2.698311
     36          6           0       -6.677263   -2.250978   -2.091071
     37          6           0       -5.930026   -1.377739   -1.158133
     38          6           0       -8.563448   -1.701838   -3.814205
     39          6           0       -6.170801   -3.631293   -1.984049
     40          8           0       -6.627493   -4.600368   -2.585222
     41          6           0       -4.941290   -3.513383   -1.003617
     42          6           0       -5.144526   -4.579308    0.152770
     43          8           0       -5.616719   -4.357182    1.258147
     44          8           0       -4.872934   -5.757106   -0.357543
     45          6           0       -5.303555   -6.971571    0.392041
     46          6           0        2.420889   -4.992801    0.683387
     47          6           0        3.402076   -3.921096    1.079207
     48          6           0        4.037125   -3.135708    0.252398
     49          6           0        3.796547   -3.203101   -1.248308
     50          6           0        5.183238   -2.177751    0.625138
     51          6           0        6.547693   -2.654510    0.185270
     52          6           0        7.656343   -1.765159    0.619543
     53          6           0        9.010934   -1.955081    0.009436
     54          6           0        9.446591   -3.422138    0.363461
     55          6           0       10.011516   -0.872073    0.537203
     56          6           0       11.320999   -0.735902   -0.342119
     57          6           0       12.195570    0.371244    0.159270
     58          6           0       13.483243    0.530338   -0.580212
     59          6           0       14.410494   -0.714390   -0.449260
     60          6           0       14.266466    1.828302   -0.357325
     61          6           0       15.573350    2.099721   -0.995983
     62          6           0       16.139797    3.458488   -0.510726
     63          6           0       17.469958    3.954036   -1.482585
     64          6           0       17.226219    3.970990   -2.968235
     65          6           0       17.829325    5.219256   -0.869439
     66          1           0       -2.668959    1.156657    3.546184
     67          1           0       -6.422100    5.597528    0.789864
     68          1           0       -8.823903    1.092794   -3.073354
     69          1           0       -3.427977   -3.077290    1.850977
     70          1           0       -1.665595   -1.156121    2.719649
     71          1           0       -2.653804   -2.743409    4.253294
     72          1           0       -3.279458   -0.978814    4.811686
     73          1           0       -4.280906   -2.288061    3.830706
     74          1           0       -2.257067   -3.062128   -0.407348
     75          1           0       -1.669800   -1.757152    0.276877
     76          1           0       -0.482669   -2.990266    2.229135
     77          1           0       -1.427146   -4.439997    1.719881
     78          1           0       -1.709866    3.515955    4.001928
     79          1           0       -2.998139    4.894238    4.323714
     80          1           0       -3.070016    3.320506    5.270787
     81          1           0       -5.535574    6.428843    2.163119
     82          1           0      -10.385051    2.729320   -3.384978
     83          1           0      -10.034953    4.545534   -3.026798
     84          1           0       -9.778108    3.709987   -5.247389
     85          1           0       -8.233042    4.577489   -4.873442
     86          1           0       -8.382374    2.825113   -4.873208
     87          1           0       -8.351276   -1.164200   -4.720098
     88          1           0       -8.164403   -2.750835   -4.294620
     89          1           0       -9.613718   -1.560374   -3.449034
     90          1           0       -4.152253   -3.954390   -1.499054
     91          1           0        2.710664   -5.946492    1.173370
     92          1           0        2.166526   -5.043221   -0.408618
     93          1           0        3.671471   -3.795786    2.124372
     94          1           0        2.707679   -3.317847   -1.587581
     95          1           0        4.250188   -2.325808   -1.889090
     96          1           0        4.609176   -4.031175   -1.742626
     97          1           0        4.819608   -1.225169    0.296064
     98          1           0        5.245501   -2.103093    1.663285
     99          1           0        6.797812   -3.658215    0.680442
    100          1           0        6.487655   -2.842134   -1.054290
    101          1           0        7.351245   -0.622130    0.543376
    102          1           0        7.667510   -1.812616    1.664525
    103          1           0        8.934821   -1.866594   -1.020490
    104          1           0        8.734881   -4.329961   -0.081695
    105          1           0       10.463358   -3.769617   -0.084284
    106          1           0        9.376908   -3.492567    1.433519
    107          1           0        9.535175    0.035112    0.666053
    108          1           0       10.238500   -1.196389    1.637791
    109          1           0       11.809154   -1.812576   -0.612286
    110          1           0       10.842317   -0.360139   -1.461863
    111          1           0       11.644452    1.232393   -0.088186
    112          1           0       12.338093    0.148718    1.284042
    113          1           0       13.415968    0.611790   -1.615245
    114          1           0       14.607267   -0.678655    0.696633
    115          1           0       13.957671   -1.649413   -0.593219
    116          1           0       15.420729   -0.761294   -0.857419
    117          1           0       13.609241    2.646013   -0.686526
    118          1           0       14.452892    1.959989    0.777487
    119          1           0       16.324299    1.292264   -0.887897
    120          1           0       15.323969    2.052745   -2.019424
    121          1           0       15.352184    4.213371   -0.544541
    122          1           0       16.755292    3.320009    0.515507
    123          1           0       18.305591    3.244290   -1.216352
    124          1           0       16.126627    4.531118   -3.246432
    125          1           0       18.145024    4.278818   -3.615407
    126          1           0       16.873234    3.082781   -3.346053
    127          1           0       18.182023    5.228116    0.184901
    128          1           0       18.709307    5.696025   -1.322715
    129          1           0       16.963129    6.012032   -0.921121
    130          1           0       -4.514014   -7.836832    0.117441
    131          1           0       -6.463929   -7.037269    0.260589
    132          1           0       -5.062905   -6.798445    1.481045
    133          8           0       -7.978522    6.848274   -0.605517
    134          1           0       -9.059012    6.141142   -2.057476
 ---------------------------------------------------------------------

 SCF Done:  E(RCAM-B3LYP) =  -3043.43435716     A.U. after   15 cycles

 Excitation energies and oscillator strengths:

 Excited State   1:      Singlet-A      2.0269 eV  611.70 nm  f=0.2340  <S**2>=0.000
     243 -> 246        0.21085
     244 -> 245        0.66921
 This state for optimization and/or second-order correction.
 Total Energy, E(TD-HF/TD-KS) =  -3043.35987122
 Copying the excited state density for this state as the 1-particle RhoCI density.

 The electronic state is 1-A.
 Alpha  occ. eigenvalues --  -46.81748 -19.23622 -19.22497 -19.17984 -19.17927
 Alpha  occ. eigenvalues --  -19.17729 -19.17375 -19.16460 -14.38606 -14.37140
 Alpha  occ. eigenvalues --  -14.37069 -14.36351 -10.35454 -10.34947 -10.32332
 Alpha  occ. eigenvalues --  -10.31038 -10.30476 -10.29863 -10.28435 -10.27899
 Alpha  occ. eigenvalues --  -10.27349 -10.26975 -10.26370 -10.26293 -10.26095
 Alpha  occ. eigenvalues --  -10.25892 -10.25559 -10.25372 -10.25107 -10.25070
 Alpha  occ. eigenvalues --  -10.24686 -10.24685 -10.24498 -10.24396 -10.24348
 Alpha  occ. eigenvalues --  -10.23791 -10.23779 -10.23565 -10.23492 -10.23387
 Alpha  occ. eigenvalues --  -10.23319 -10.22984 -10.22860 -10.22748 -10.22713
 Alpha  occ. eigenvalues --  -10.22712 -10.22707 -10.22615 -10.22314 -10.22188
 Alpha  occ. eigenvalues --  -10.22187 -10.22059 -10.21978 -10.21790 -10.21721
 Alpha  occ. eigenvalues --  -10.21571 -10.21493 -10.21206 -10.21046 -10.20968
 Alpha  occ. eigenvalues --  -10.20863 -10.20809 -10.20405 -10.20105 -10.20073
 Alpha  occ. eigenvalues --  -10.19675  -3.10183  -1.85145  -1.84649  -1.84575
 Alpha  occ. eigenvalues --   -1.14264  -1.13489  -1.12419  -1.06749  -1.04809
 Alpha  occ. eigenvalues --   -1.03189  -1.02532  -1.02082  -1.01106  -0.97641
 Alpha  occ. eigenvalues --   -0.96967  -0.88212  -0.86739  -0.86362  -0.86076
 Alpha  occ. eigenvalues --   -0.85768  -0.84803  -0.84558  -0.83511  -0.83130
 Alpha  occ. eigenvalues --   -0.83018  -0.82952  -0.81794  -0.80881  -0.80421
 Alpha  occ. eigenvalues --   -0.79367  -0.79032  -0.78003  -0.77551  -0.76450
 Alpha  occ. eigenvalues --   -0.75094  -0.74592  -0.73573  -0.73335  -0.71793
 Alpha  occ. eigenvalues --   -0.71214  -0.70548  -0.70064  -0.69831  -0.69351
 Alpha  occ. eigenvalues --   -0.69200  -0.68832  -0.67605  -0.66499  -0.66246
 Alpha  occ. eigenvalues --   -0.65951  -0.64697  -0.64638  -0.62941  -0.62302
 Alpha  occ. eigenvalues --   -0.62138  -0.61152  -0.59749  -0.59442  -0.59217
 Alpha  occ. eigenvalues --   -0.58983  -0.58485  -0.57908  -0.57809  -0.57205
 Alpha  occ. eigenvalues --   -0.56619  -0.56074  -0.55824  -0.55115  -0.54605
 Alpha  occ. eigenvalues --   -0.53750  -0.53680  -0.53051  -0.52565  -0.52257
 Alpha  occ. eigenvalues --   -0.51869  -0.51794  -0.51442  -0.51145  -0.50777
 Alpha  occ. eigenvalues --   -0.50455  -0.50349  -0.49845  -0.49408  -0.49190
 Alpha  occ. eigenvalues --   -0.48843  -0.48622  -0.48267  -0.48083  -0.47987
 Alpha  occ. eigenvalues --   -0.47737  -0.47672  -0.47509  -0.47378  -0.47265
 Alpha  occ. eigenvalues --   -0.47133  -0.46858  -0.46346  -0.46233  -0.45965
 Alpha  occ. eigenvalues --   -0.45864  -0.45632  -0.45276  -0.45136  -0.44899
 Alpha  occ. eigenvalues --   -0.44631  -0.44415  -0.44288  -0.43977  -0.43552
 Alpha  occ. eigenvalues --   -0.43503  -0.43257  -0.43231  -0.42975  -0.42841
 Alpha  occ. eigenvalues --   -0.42720  -0.42552  -0.42355  -0.42115  -0.41931
 Alpha  occ. eigenvalues --   -0.41746  -0.41474  -0.41131  -0.41010  -0.40862
 Alpha  occ. eigenvalues --   -0.40661  -0.40003  -0.39960  -0.39723  -0.39507
 Alpha  occ. eigenvalues --   -0.39426  -0.39260  -0.39171  -0.38910  -0.38711
 Alpha  occ. eigenvalues --   -0.38633  -0.38198  -0.38045  -0.37823  -0.37799
 Alpha  occ. eigenvalues --   -0.37720  -0.37221  -0.37210  -0.37167  -0.37149
 Alpha  occ. eigenvalues --   -0.36879  -0.36768  -0.36112  -0.35711  -0.35515
 Alpha  occ. eigenvalues --   -0.35395  -0.35223  -0.34666  -0.34445  -0.34100
 Alpha  occ. eigenvalues --   -0.33902  -0.33625  -0.33548  -0.33363  -0.33280
 Alpha  occ. eigenvalues --   -0.33241  -0.32864  -0.32078  -0.31834  -0.31380
 Alpha  occ. eigenvalues --   -0.31104  -0.30898  -0.30317  -0.30152  -0.29961
 Alpha  occ. eigenvalues --   -0.29338  -0.28742  -0.28317  -0.28052  -0.27711
 Alpha  occ. eigenvalues --   -0.27565  -0.27204  -0.23341  -0.21832
 Alpha virt. eigenvalues --   -0.08980  -0.06036  -0.01938  -0.01291   0.00852
 Alpha virt. eigenvalues --    0.02930   0.03548   0.03766   0.04420   0.04467
 Alpha virt. eigenvalues --    0.05381   0.05741   0.08162   0.08712   0.09289

 Mulliken charges:
               1
     1  Mg   0.811500
     2  C    0.118296
     3  C   -0.165750
     4  C   -0.161784
     5  C   -0.149301
     6  N   -0.660441
     7  C    0.288014
     8  C   -0.118159
     9  C   -0.150408
    10  C    0.331445
    11  C   -0.310956
    12  C   -0.168350
    13  C   -0.253756
    14  C    0.603298
    15  O   -0.503723
    16  O   -0.454689
    17  N   -0.728087
    18  C    0.345315
    19  C    0.035432
    20  C   -0.084582
    21  C    0.350972
    22  C   -0.397442
    23  C    0.280012
    24  O   -0.451081
    25  N   -0.680400
    26  C    0.238630
    27  C   -0.073129
    28  C    0.040216
    29  C    0.343853
    30  C    0.265551
    31  C   -0.193186
    32  C   -0.320602
    33  N   -0.689664
    34  C    0.269773
    35  C   -0.061751
    36  C    0.086236
    37  C    0.240172
    38  C   -0.380137
    39  C    0.381671
    40  O   -0.457161
    41  C   -0.317402
    42  C    0.595058
    43  O   -0.476697
    44  O   -0.431251
    45  C   -0.102058
    46  C   -0.012557
    47  C   -0.123286
    48  C    0.153463
    49  C   -0.381595
    50  C   -0.221150
    51  C   -0.151824
    52  C   -0.170010
    53  C   -0.042807
    54  C   -0.309717
    55  C   -0.165856
    56  C   -0.168696
    57  C   -0.144549
    58  C   -0.054622
    59  C   -0.324259
    60  C   -0.177340
    61  C   -0.170561
    62  C   -0.171946
    63  C   -0.047037
    64  C   -0.293712
    65  C   -0.290448
    66  H    0.084552
    67  H    0.123929
    68  H    0.091125
    69  H    0.103965
    70  H    0.106000
    71  H    0.078370
    72  H    0.112890
    73  H    0.138706
    74  H    0.069717
    75  H    0.126173
    76  H    0.143943
    77  H    0.145894
    78  H    0.117902
    79  H    0.161490
    80  H    0.117798
    81  H    0.104488
    82  H    0.110764
    83  H    0.124185
    84  H    0.100623
    85  H    0.101648
    86  H    0.118231
    87  H    0.129242
    88  H    0.126115
    89  H    0.132825
    90  H    0.164839
    91  H    0.121910
    92  H    0.146481
    93  H    0.079229
    94  H    0.154122
    95  H    0.094901
    96  H    0.083263
    97  H    0.113859
    98  H    0.092789
    99  H    0.096303
   100  H    0.059621
   101  H    0.062401
   102  H    0.097862
   103  H    0.095171
   104  H    0.078483
   105  H    0.091711
   106  H    0.108933
   107  H    0.102700
   108  H    0.069808
   109  H    0.085109
   110  H    0.048077
   111  H    0.106456
   112  H    0.089798
   113  H    0.089777
   114  H    0.075381
   115  H    0.104622
   116  H    0.103631
   117  H    0.080696
   118  H    0.065306
   119  H    0.089986
   120  H    0.092496
   121  H    0.098256
   122  H    0.085482
   123  H    0.082605
   124  H    0.058920
   125  H    0.097192
   126  H    0.121347
   127  H    0.096988
   128  H    0.087866
   129  H    0.082319
   130  H    0.130315
   131  H    0.153762
   132  H    0.140859
   133  O   -0.369282
   134  H    0.002085
 Sum of Mulliken charges =   0.00000

 Dipole moment (field-independent basis, Debye):
    X=              2.0841    Y=             -5.8309    Z=             -1.2503  Tot=              6.3171
 Quadrupole moment (field-independent basis, Debye-Ang):
   XX=           -375.5192   YY=           -434.0921   ZZ=           -398.8309
   XY=              7.7888   XZ=             22.3576   YZ=            -35.6100

 Normal termination of Gaussian 09 at Thu Oct  3 11:48:58 2019.
