 Gaussian 09, Revision D.01,
 Gaussian 09:  ES64L-G09RevD.01 24-Apr-2013

 ----------------------------------------------------------------------
 # td=(NStates=1) iop(3/107=0140000000,3/108=0140000000) iop(3/107=0140
 000000,3/108=0140000000) CAM-B3LYP/6-31G(d,p)
 ----------------------------------------------------------------------

 --
 TD
 --
 Symbolic Z-matrix:
 Charge =  0 Multiplicity = 1

                         Standard orientation:
 ---------------------------------------------------------------------
 Center     Atomic      Atomic             Coordinates (Angstroms)
 Number     Number       Type             X           Y           Z
 ---------------------------------------------------------------------
      1         12           0       -5.561412    1.218054    0.138527
      2          6           0       -4.979989   -2.150002   -0.405752
      3          6           0       -3.402351    1.123946    2.716369
      4          6           0       -6.256946    4.544213    0.611395
      5          6           0       -8.081613    1.120998   -2.365179
      6          7           0       -4.436979   -0.284045    1.013514
      7          6           0       -4.285429   -1.584734    0.586985
      8          6           0       -3.216098   -2.250407    1.400026
      9          6           0       -2.862454   -1.200431    2.538335
     10          6           0       -3.546118   -0.056145    2.055631
     11          6           0       -3.563641   -1.793520    3.867543
     12          6           0       -1.855759   -2.679956    0.738312
     13          6           0       -0.866320   -3.554564    1.441165
     14          6           0        0.313273   -3.898521    0.531827
     15          8           0        0.635441   -3.377436   -0.478870
     16          8           0        1.143971   -4.716913    1.272013
     17          7           0       -4.989409    2.631272    1.434114
     18          6           0       -4.010427    2.365576    2.442020
     19          6           0       -3.827440    3.676757    3.189027
     20          6           0       -4.557165    4.588858    2.556916
     21          6           0       -5.335880    3.933136    1.513103
     22          6           0       -2.937049    3.819624    4.355934
     23          6           0       -4.825923    5.984376    2.945386
     24          8           0       -4.173389    6.579616    3.906967
     25          7           0       -6.917612    2.553159   -0.810381
     26          6           0       -6.852102    3.893775   -0.423961
     27          6           0       -7.979266    4.537416   -1.245837
     28          6           0       -8.397905    3.631590   -2.177376
     29          6           0       -7.845127    2.357556   -1.809349
     30          6           0       -8.292373    5.997691   -1.170737
     31          6           0       -9.678154    3.770141   -3.166572
     32          6           0       -8.932626    3.792317   -4.592518
     33          7           0       -6.356644   -0.160678   -1.123815
     34          6           0       -7.311944   -0.082980   -2.088589
     35          6           0       -7.548334   -1.476296   -2.679930
     36          6           0       -6.647692   -2.237138   -2.011332
     37          6           0       -5.898828   -1.462821   -1.067929
     38          6           0       -8.505774   -1.742635   -3.718902
     39          6           0       -6.167391   -3.596067   -2.037461
     40          8           0       -6.506757   -4.613528   -2.556087
     41          6           0       -4.971074   -3.546228   -0.898386
     42          6           0       -5.297055   -4.537448    0.287128
     43          8           0       -5.715525   -4.313527    1.323651
     44          8           0       -5.035541   -5.727714   -0.298673
     45          6           0       -5.334023   -6.856327    0.455358
     46          6           0        2.388319   -5.031265    0.689672
     47          6           0        3.407831   -4.057902    1.032049
     48          6           0        4.144595   -3.106121    0.234433
     49          6           0        3.777896   -3.109054   -1.290214
     50          6           0        5.293311   -2.317554    0.778735
     51          6           0        6.602946   -2.726326    0.099804
     52          6           0        7.673580   -1.885498    0.731281
     53          6           0        9.012758   -1.942309    0.090511
     54          6           0        9.608846   -3.537305    0.160444
     55          6           0        9.981529   -0.931891    0.507185
     56          6           0       11.337129   -0.844339   -0.195323
     57          6           0       12.222143    0.395004    0.158283
     58          6           0       13.501713    0.470230   -0.613921
     59          6           0       14.435204   -0.798513   -0.434853
     60          6           0       14.219119    1.801939   -0.215827
     61          6           0       15.468400    2.153591   -1.093120
     62          6           0       15.974149    3.566998   -0.784267
     63          6           0       17.238983    4.010562   -1.366518
     64          6           0       17.296520    3.988072   -2.845075
     65          6           0       17.744859    5.368617   -0.775385
     66          1           0       -2.573337    1.160766    3.572411
     67          1           0       -6.452068    5.585029    0.611830
     68          1           0       -8.842746    1.141926   -2.988296
     69          1           0       -3.610797   -3.113342    1.996666
     70          1           0       -1.625771   -0.876324    2.651472
     71          1           0       -3.090834   -2.876449    4.101491
     72          1           0       -3.295281   -1.015533    4.619917
     73          1           0       -4.641558   -1.749910    3.804628
     74          1           0       -2.021202   -3.332030   -0.126684
     75          1           0       -1.445470   -1.718989    0.310889
     76          1           0       -0.495738   -3.074514    2.324295
     77          1           0       -1.322445   -4.652696    1.715888
     78          1           0       -1.774478    3.788728    3.917617
     79          1           0       -3.207364    4.866139    4.777434
     80          1           0       -3.033429    3.043470    5.169907
     81          1           0       -5.744464    6.423114    2.417818
     82          1           0      -10.215327    2.895522   -3.288539
     83          1           0      -10.149002    4.851472   -3.006432
     84          1           0       -9.687084    4.092681   -5.415674
     85          1           0       -7.972556    4.425368   -4.732899
     86          1           0       -8.475224    2.746685   -4.979899
     87          1           0       -8.285934   -1.398320   -4.901639
     88          1           0       -8.641683   -2.786969   -3.665304
     89          1           0       -9.531850   -1.451068   -3.456936
     90          1           0       -4.259144   -3.931685   -1.411534
     91          1           0        2.601654   -5.962437    1.147322
     92          1           0        2.337035   -5.102791   -0.540048
     93          1           0        3.806671   -3.804622    1.996253
     94          1           0        2.760056   -3.619552   -1.605628
     95          1           0        3.611846   -2.059728   -1.412987
     96          1           0        4.879980   -3.215685   -1.898445
     97          1           0        5.025949   -1.229757    0.613717
     98          1           0        5.379255   -2.422217    1.780614
     99          1           0        6.761311   -3.770601    0.040549
    100          1           0        6.582984   -2.372945   -0.903697
    101          1           0        7.374169   -0.810234    0.608751
    102          1           0        7.676673   -1.825573    1.823656
    103          1           0        8.684231   -1.890041   -0.972483
    104          1           0        8.771685   -4.245493   -0.183041
    105          1           0       10.550070   -3.557464   -0.365957
    106          1           0        9.609984   -3.999371    1.161685
    107          1           0        9.665005    0.127977    0.534091
    108          1           0       10.311701   -1.117438    1.676794
    109          1           0       11.897038   -1.735535    0.036319
    110          1           0       11.310849   -0.976467   -1.308292
    111          1           0       11.638486    1.361947    0.050555
    112          1           0       12.637387    0.234578    1.249687
    113          1           0       13.350675    0.681737   -1.651699
    114          1           0       14.827619   -0.821698    0.609811
    115          1           0       13.836676   -1.729445   -0.702306
    116          1           0       15.438618   -0.376542   -0.633868
    117          1           0       13.502602    2.638570   -0.069445
    118          1           0       14.512127    1.772441    0.773245
    119          1           0       16.541478    1.497538   -1.180924
    120          1           0       15.256549    2.164317   -2.193375
    121          1           0       15.117123    4.260464   -1.060575
    122          1           0       16.175399    3.575848    0.294519
    123          1           0       18.096767    3.305508   -1.052789
    124          1           0       16.474232    4.492379   -3.399372
    125          1           0       18.130177    4.265390   -3.375880
    126          1           0       17.082136    2.900319   -3.309353
    127          1           0       17.741227    5.369630    0.391055
    128          1           0       18.682848    5.584107   -1.349779
    129          1           0       16.927770    6.042193   -1.045137
    130          1           0       -5.036279   -7.681101   -0.317999
    131          1           0       -6.265184   -6.954931    0.779716
    132          1           0       -4.689450   -6.841770    1.358411
    133          8           0       -7.863223    6.823325   -0.311593
    134          1           0       -8.857708    6.388124   -1.970974
 ---------------------------------------------------------------------

 SCF Done:  E(RCAM-B3LYP) =  -3043.42773625     A.U. after   16 cycles

 Excitation energies and oscillator strengths:

 Excited State   1:      Singlet-A      1.9200 eV  645.76 nm  f=0.2468  <S**2>=0.000
     243 -> 246       -0.22068
     244 -> 245        0.66687
 This state for optimization and/or second-order correction.
 Total Energy, E(TD-HF/TD-KS) =  -3043.35717811
 Copying the excited state density for this state as the 1-particle RhoCI density.

 The electronic state is 1-A.
 Alpha  occ. eigenvalues --  -46.80950 -19.22189 -19.21664 -19.18871 -19.18468
 Alpha  occ. eigenvalues --  -19.17999 -19.17538 -19.17104 -14.39369 -14.37385
 Alpha  occ. eigenvalues --  -14.36883 -14.36501 -10.35261 -10.34903 -10.31469
 Alpha  occ. eigenvalues --  -10.31110 -10.30738 -10.27735 -10.27345 -10.27125
 Alpha  occ. eigenvalues --  -10.27108 -10.26867 -10.26749 -10.26546 -10.26343
 Alpha  occ. eigenvalues --  -10.26013 -10.25931 -10.25492 -10.25281 -10.25110
 Alpha  occ. eigenvalues --  -10.25087 -10.24946 -10.24434 -10.24279 -10.24123
 Alpha  occ. eigenvalues --  -10.24084 -10.24031 -10.23831 -10.23583 -10.23440
 Alpha  occ. eigenvalues --  -10.23379 -10.23269 -10.23247 -10.22751 -10.22704
 Alpha  occ. eigenvalues --  -10.22674 -10.22582 -10.22579 -10.22578 -10.22409
 Alpha  occ. eigenvalues --  -10.22155 -10.22025 -10.21844 -10.21764 -10.21601
 Alpha  occ. eigenvalues --  -10.21307 -10.21120 -10.21093 -10.21083 -10.20986
 Alpha  occ. eigenvalues --  -10.20874 -10.20839 -10.20682 -10.20649 -10.20506
 Alpha  occ. eigenvalues --  -10.20172  -3.09619  -1.84557  -1.84087  -1.84032
 Alpha  occ. eigenvalues --   -1.16280  -1.14152  -1.09103  -1.08721  -1.06516
 Alpha  occ. eigenvalues --   -1.04566  -1.02037  -1.00779  -0.99372  -0.98943
 Alpha  occ. eigenvalues --   -0.97793  -0.89867  -0.86686  -0.85610  -0.85481
 Alpha  occ. eigenvalues --   -0.85283  -0.84652  -0.84380  -0.83755  -0.83492
 Alpha  occ. eigenvalues --   -0.83315  -0.83034  -0.81891  -0.80560  -0.79848
 Alpha  occ. eigenvalues --   -0.78847  -0.78115  -0.78030  -0.77254  -0.76509
 Alpha  occ. eigenvalues --   -0.75398  -0.74555  -0.73518  -0.73213  -0.71610
 Alpha  occ. eigenvalues --   -0.71168  -0.70858  -0.70608  -0.70142  -0.69825
 Alpha  occ. eigenvalues --   -0.69554  -0.68711  -0.67504  -0.66709  -0.65897
 Alpha  occ. eigenvalues --   -0.65131  -0.64849  -0.64458  -0.63310  -0.62738
 Alpha  occ. eigenvalues --   -0.61628  -0.61583  -0.61398  -0.60391  -0.59270
 Alpha  occ. eigenvalues --   -0.59024  -0.58208  -0.57917  -0.57510  -0.57015
 Alpha  occ. eigenvalues --   -0.56573  -0.55812  -0.55081  -0.54904  -0.54436
 Alpha  occ. eigenvalues --   -0.54164  -0.54001  -0.53231  -0.52635  -0.52428
 Alpha  occ. eigenvalues --   -0.52115  -0.51882  -0.51528  -0.51325  -0.50723
 Alpha  occ. eigenvalues --   -0.50617  -0.50324  -0.50178  -0.49408  -0.49241
 Alpha  occ. eigenvalues --   -0.49031  -0.48753  -0.48435  -0.48169  -0.47943
 Alpha  occ. eigenvalues --   -0.47543  -0.47453  -0.47105  -0.46930  -0.46731
 Alpha  occ. eigenvalues --   -0.46452  -0.46272  -0.46122  -0.45949  -0.45723
 Alpha  occ. eigenvalues --   -0.45401  -0.45172  -0.45136  -0.45020  -0.44724
 Alpha  occ. eigenvalues --   -0.44351  -0.44117  -0.43952  -0.43879  -0.43764
 Alpha  occ. eigenvalues --   -0.43596  -0.43464  -0.43165  -0.42903  -0.42759
 Alpha  occ. eigenvalues --   -0.42454  -0.42410  -0.42204  -0.42114  -0.42002
 Alpha  occ. eigenvalues --   -0.41903  -0.41698  -0.41373  -0.40977  -0.40842
 Alpha  occ. eigenvalues --   -0.40597  -0.40542  -0.40458  -0.40406  -0.40322
 Alpha  occ. eigenvalues --   -0.40264  -0.39694  -0.39611  -0.39428  -0.39251
 Alpha  occ. eigenvalues --   -0.39156  -0.38926  -0.38546  -0.38497  -0.38124
 Alpha  occ. eigenvalues --   -0.38041  -0.37889  -0.37617  -0.37252  -0.36931
 Alpha  occ. eigenvalues --   -0.36766  -0.36469  -0.36359  -0.36065  -0.35623
 Alpha  occ. eigenvalues --   -0.35534  -0.35126  -0.34613  -0.34299  -0.34004
 Alpha  occ. eigenvalues --   -0.33924  -0.33870  -0.33443  -0.33408  -0.33202
 Alpha  occ. eigenvalues --   -0.33040  -0.32543  -0.32424  -0.31944  -0.31543
 Alpha  occ. eigenvalues --   -0.31351  -0.31244  -0.31117  -0.31094  -0.30208
 Alpha  occ. eigenvalues --   -0.28990  -0.28573  -0.28290  -0.27816  -0.27666
 Alpha  occ. eigenvalues --   -0.27477  -0.25290  -0.23368  -0.20978
 Alpha virt. eigenvalues --   -0.08656  -0.06544  -0.02277  -0.01499  -0.00144
 Alpha virt. eigenvalues --    0.02615   0.03311   0.03663   0.03920   0.04474
 Alpha virt. eigenvalues --    0.05067   0.05783   0.07665   0.08311   0.08865

 Mulliken charges:
               1
     1  Mg   0.816421
     2  C    0.124329
     3  C   -0.200002
     4  C   -0.145102
     5  C   -0.134481
     6  N   -0.669982
     7  C    0.330294
     8  C   -0.188218
     9  C   -0.165446
    10  C    0.396555
    11  C   -0.306148
    12  C   -0.158493
    13  C   -0.262724
    14  C    0.598890
    15  O   -0.429204
    16  O   -0.463198
    17  N   -0.722299
    18  C    0.283747
    19  C    0.062358
    20  C   -0.002052
    21  C    0.311342
    22  C   -0.390647
    23  C    0.229071
    24  O   -0.455872
    25  N   -0.695362
    26  C    0.294781
    27  C   -0.068679
    28  C    0.011758
    29  C    0.327167
    30  C    0.251154
    31  C   -0.216994
    32  C   -0.330739
    33  N   -0.728093
    34  C    0.262790
    35  C    0.046026
    36  C    0.037796
    37  C    0.310624
    38  C   -0.401996
    39  C    0.331921
    40  O   -0.427011
    41  C   -0.324500
    42  C    0.605695
    43  O   -0.415662
    44  O   -0.434497
    45  C   -0.089610
    46  C    0.002736
    47  C   -0.106170
    48  C    0.089816
    49  C   -0.360787
    50  C   -0.228047
    51  C   -0.169844
    52  C   -0.183967
    53  C   -0.032976
    54  C   -0.340069
    55  C   -0.160779
    56  C   -0.193016
    57  C   -0.159407
    58  C   -0.047654
    59  C   -0.325369
    60  C   -0.202216
    61  C   -0.179594
    62  C   -0.148581
    63  C   -0.055781
    64  C   -0.313469
    65  C   -0.300694
    66  H    0.090697
    67  H    0.136880
    68  H    0.057737
    69  H    0.119819
    70  H    0.084342
    71  H    0.106304
    72  H    0.107114
    73  H    0.144450
    74  H    0.104543
    75  H    0.112368
    76  H    0.143186
    77  H    0.114373
    78  H    0.104713
    79  H    0.162684
    80  H    0.117215
    81  H    0.111746
    82  H    0.137411
    83  H    0.118672
    84  H    0.098541
    85  H    0.116697
    86  H    0.095536
    87  H    0.115419
    88  H    0.147564
    89  H    0.128211
    90  H    0.140973
    91  H    0.117320
    92  H    0.096598
    93  H    0.061857
    94  H    0.139178
    95  H    0.122704
    96  H    0.079168
    97  H    0.102707
    98  H    0.113013
    99  H    0.114399
   100  H    0.107954
   101  H    0.082907
   102  H    0.087274
   103  H    0.082124
   104  H    0.088016
   105  H    0.112233
   106  H    0.103952
   107  H    0.090097
   108  H    0.066108
   109  H    0.098165
   110  H    0.082694
   111  H    0.080131
   112  H    0.077087
   113  H    0.091585
   114  H    0.090599
   115  H    0.114637
   116  H    0.112540
   117  H    0.091603
   118  H    0.101254
   119  H    0.065069
   120  H    0.095612
   121  H    0.081398
   122  H    0.086993
   123  H    0.075250
   124  H    0.093947
   125  H    0.111115
   126  H    0.075545
   127  H    0.092804
   128  H    0.101432
   129  H    0.102751
   130  H    0.118049
   131  H    0.138781
   132  H    0.107445
   133  O   -0.442822
   134  H    0.081697
 Sum of Mulliken charges =   0.00000

 Dipole moment (field-independent basis, Debye):
    X=              1.1844    Y=             -4.9009    Z=             -1.8047  Tot=              5.3552
 Quadrupole moment (field-independent basis, Debye-Ang):
   XX=           -371.6873   YY=           -445.1349   ZZ=           -397.8202
   XY=             21.0146   XZ=             28.5701   YZ=            -38.2721

 Normal termination of Gaussian 09 at Mon Oct  7 17:11:05 2019.
