 Gaussian 09, Revision D.01,
 Gaussian 09:  ES64L-G09RevD.01 24-Apr-2013

 ----------------------------------------------------------------------
 # td=(NStates=1) iop(3/107=0140000000,3/108=0140000000) iop(3/107=0140
 000000,3/108=0140000000) CAM-B3LYP/6-31G(d,p)
 ----------------------------------------------------------------------

 --
 TD
 --
 Symbolic Z-matrix:
 Charge =  0 Multiplicity = 1

                         Standard orientation:
 ---------------------------------------------------------------------
 Center     Atomic      Atomic             Coordinates (Angstroms)
 Number     Number       Type             X           Y           Z
 ---------------------------------------------------------------------
      1         12           0       -5.619461    1.289637    0.088445
      2          6           0       -5.031712   -2.039757   -0.426574
      3          6           0       -3.442023    1.093086    2.793109
      4          6           0       -6.239997    4.520877    0.777551
      5          6           0       -7.970819    1.257938   -2.489093
      6          7           0       -4.267715   -0.271131    0.963227
      7          6           0       -4.260057   -1.620761    0.547960
      8          6           0       -3.212164   -2.281632    1.371183
      9          6           0       -2.954437   -1.370716    2.517175
     10          6           0       -3.470444   -0.024572    2.064078
     11          6           0       -3.559411   -1.688377    3.897415
     12          6           0       -1.901477   -2.672799    0.595302
     13          6           0       -0.968368   -3.560107    1.449998
     14          6           0        0.276233   -3.944400    0.748418
     15          8           0        0.529363   -3.617988   -0.519883
     16          8           0        1.011662   -4.828936    1.404657
     17          7           0       -4.823693    2.503054    1.552287
     18          6           0       -3.923284    2.380024    2.494963
     19          6           0       -3.677160    3.601696    3.203292
     20          6           0       -4.484732    4.530861    2.590621
     21          6           0       -5.282254    3.816257    1.608660
     22          6           0       -2.722214    3.717028    4.330424
     23          6           0       -4.667089    5.972003    3.008617
     24          8           0       -4.025474    6.502958    3.846851
     25          7           0       -6.853388    2.648066   -0.805211
     26          6           0       -6.902590    3.940913   -0.334581
     27          6           0       -7.855440    4.696774   -1.227098
     28          6           0       -8.407293    3.704197   -2.031206
     29          6           0       -7.763531    2.467369   -1.792824
     30          6           0       -8.304114    6.062612   -1.086053
     31          6           0       -9.424760    3.886778   -3.154829
     32          6           0       -8.738264    4.138398   -4.551722
     33          7           0       -6.477937   -0.078235   -1.011020
     34          6           0       -7.364862    0.039947   -2.034196
     35          6           0       -7.538179   -1.301448   -2.756008
     36          6           0       -6.668831   -2.160989   -2.057392
     37          6           0       -6.035471   -1.434270   -1.040670
     38          6           0       -8.490560   -1.627667   -3.818088
     39          6           0       -6.155206   -3.526378   -1.951558
     40          8           0       -6.651500   -4.577750   -2.594269
     41          6           0       -5.048202   -3.495621   -0.940093
     42          6           0       -5.284980   -4.657078    0.045441
     43          8           0       -5.725140   -4.551716    1.148375
     44          8           0       -4.995823   -5.798485   -0.416654
     45          6           0       -5.259740   -6.980048    0.170059
     46          6           0        2.354783   -5.112642    0.850196
     47          6           0        3.312935   -4.079204    1.116448
     48          6           0        3.995137   -3.250594    0.250480
     49          6           0        3.719073   -3.274079   -1.236515
     50          6           0        5.176605   -2.354302    0.608563
     51          6           0        6.496291   -2.675181    0.137915
     52          6           0        7.638815   -1.739416    0.733929
     53          6           0        8.957925   -1.964875   -0.037740
     54          6           0        9.516163   -3.307131    0.219205
     55          6           0       10.074202   -0.935236    0.356820
     56          6           0       11.307246   -0.899052   -0.339389
     57          6           0       12.157141    0.300271    0.161495
     58          6           0       13.554989    0.467763   -0.686221
     59          6           0       14.404276   -0.793659   -0.481126
     60          6           0       14.250707    1.781903   -0.234089
     61          6           0       15.407355    2.205575   -1.112747
     62          6           0       15.912039    3.515167   -0.678584
     63          6           0       17.245999    3.991645   -1.302257
     64          6           0       17.078600    4.012714   -2.855002
     65          6           0       17.803880    5.298094   -0.843686
     66          1           0       -2.543360    1.229739    3.676643
     67          1           0       -6.372338    5.516265    0.924729
     68          1           0       -8.613380    1.527347   -3.240954
     69          1           0       -3.816846   -3.180475    1.645741
     70          1           0       -1.834509   -1.386051    2.695636
     71          1           0       -2.934661   -2.698812    4.112114
     72          1           0       -3.235472   -0.880847    4.684731
     73          1           0       -4.622792   -1.880196    3.855884
     74          1           0       -2.118598   -3.300788   -0.127622
     75          1           0       -1.385433   -1.693863    0.405248
     76          1           0       -0.808474   -3.241450    2.538317
     77          1           0       -1.712607   -4.402546    1.553677
     78          1           0       -1.629908    3.429606    4.258992
     79          1           0       -2.747105    4.815193    4.710812
     80          1           0       -2.985599    3.242870    5.355579
     81          1           0       -5.321383    6.578735    2.540194
     82          1           0      -10.143678    2.904888   -3.088260
     83          1           0      -10.233652    4.672694   -2.961592
     84          1           0       -9.590795    4.203078   -5.201342
     85          1           0       -8.098174    5.166626   -4.451065
     86          1           0       -8.239765    3.078930   -4.567761
     87          1           0       -8.425689   -0.941841   -4.697282
     88          1           0       -8.368052   -2.678918   -4.044857
     89          1           0       -9.752715   -1.566675   -3.513203
     90          1           0       -4.091546   -3.795211   -1.331070
     91          1           0        2.497246   -5.897852    1.463845
     92          1           0        2.080394   -5.468587   -0.175498
     93          1           0        3.703321   -4.234605    2.257990
     94          1           0        2.615266   -3.539846   -1.520622
     95          1           0        3.815929   -2.249929   -1.680141
     96          1           0        4.520336   -3.946558   -1.652577
     97          1           0        5.099884   -1.310156    0.390303
     98          1           0        5.261141   -2.421896    1.646669
     99          1           0        6.527888   -3.787109    0.044940
    100          1           0        6.777973   -2.568200   -1.051933
    101          1           0        7.295625   -0.746154    0.477894
    102          1           0        7.602105   -1.858018    1.913044
    103          1           0        8.547038   -1.840775   -1.166680
    104          1           0        8.864362   -3.854835   -0.073799
    105          1           0       10.428908   -3.679176   -0.415099
    106          1           0        9.765256   -3.563135    1.299653
    107          1           0        9.572669    0.217963    0.368782
    108          1           0       10.199591   -1.319083    1.498819
    109          1           0       11.781433   -1.767214   -0.027964
    110          1           0       11.272875   -0.693365   -1.380888
    111          1           0       11.690036    1.205555    0.339964
    112          1           0       12.522126    0.070332    1.350943
    113          1           0       13.074811    0.478605   -1.857914
    114          1           0       14.783381   -0.787430    0.681550
    115          1           0       14.039961   -1.772316   -0.564470
    116          1           0       15.432105   -0.665770   -0.935436
    117          1           0       13.580608    2.644011   -0.091325
    118          1           0       14.674700    1.568914    0.775078
    119          1           0       16.096843    1.374123   -0.824550
    120          1           0       15.055308    2.101356   -2.258462
    121          1           0       15.270469    4.475916   -1.119417
    122          1           0       15.962909    3.491214    0.419607
    123          1           0       18.024607    3.201379   -1.140408
    124          1           0       16.350191    4.794715   -3.060043
    125          1           0       18.174009    4.243254   -3.273114
    126          1           0       16.683793    3.316163   -3.459936
    127          1           0       18.077303    5.134047    0.359227
    128          1           0       18.611620    5.575739   -1.251215
    129          1           0       17.247907    6.152580   -0.974009
    130          1           0       -4.861882   -7.924534   -0.155887
    131          1           0       -6.317503   -7.243041    0.386842
    132          1           0       -4.957708   -6.864870    1.248156
    133          8           0       -7.619840    6.881190   -0.354377
    134          1           0       -9.396005    6.310788   -1.518993
 ---------------------------------------------------------------------

 SCF Done:  E(RCAM-B3LYP) =  -3043.33034794     A.U. after   16 cycles

 Excitation energies and oscillator strengths:

 Excited State   1:      Singlet-A      1.9790 eV  626.49 nm  f=0.2043  <S**2>=0.000
     243 -> 246        0.26352
     244 -> 245        0.64410
 This state for optimization and/or second-order correction.
 Total Energy, E(TD-HF/TD-KS) =  -3043.25762032
 Copying the excited state density for this state as the 1-particle RhoCI density.

 The electronic state is 1-A.
 Alpha  occ. eigenvalues --  -46.81308 -19.24016 -19.22852 -19.17301 -19.17052
 Alpha  occ. eigenvalues --  -19.16872 -19.16709 -19.16298 -14.38007 -14.37283
 Alpha  occ. eigenvalues --  -14.37104 -14.36852 -10.35711 -10.35652 -10.32092
 Alpha  occ. eigenvalues --  -10.31739 -10.29418 -10.27940 -10.27859 -10.27137
 Alpha  occ. eigenvalues --  -10.27117 -10.26914 -10.26875 -10.26578 -10.26206
 Alpha  occ. eigenvalues --  -10.26058 -10.25923 -10.25858 -10.25825 -10.25309
 Alpha  occ. eigenvalues --  -10.24898 -10.24795 -10.24536 -10.24402 -10.24393
 Alpha  occ. eigenvalues --  -10.24285 -10.24113 -10.24113 -10.23939 -10.23706
 Alpha  occ. eigenvalues --  -10.23581 -10.23535 -10.23443 -10.23412 -10.23365
 Alpha  occ. eigenvalues --  -10.23295 -10.23090 -10.23060 -10.23059 -10.22943
 Alpha  occ. eigenvalues --  -10.22930 -10.22675 -10.22622 -10.22461 -10.21763
 Alpha  occ. eigenvalues --  -10.21743 -10.21600 -10.21578 -10.21556 -10.21401
 Alpha  occ. eigenvalues --  -10.21063 -10.20996 -10.19687 -10.19635 -10.19225
 Alpha  occ. eigenvalues --  -10.19215  -3.09934  -1.84865  -1.84454  -1.84302
 Alpha  occ. eigenvalues --   -1.19081  -1.12754  -1.08970  -1.06635  -1.03075
 Alpha  occ. eigenvalues --   -1.01686  -1.01040  -0.99964  -0.99468  -0.99296
 Alpha  occ. eigenvalues --   -0.98155  -0.90744  -0.87052  -0.86224  -0.85657
 Alpha  occ. eigenvalues --   -0.85318  -0.85073  -0.84590  -0.83734  -0.83320
 Alpha  occ. eigenvalues --   -0.83158  -0.82791  -0.82480  -0.82176  -0.81060
 Alpha  occ. eigenvalues --   -0.80302  -0.79586  -0.78326  -0.77698  -0.77380
 Alpha  occ. eigenvalues --   -0.76625  -0.75596  -0.74800  -0.73932  -0.71975
 Alpha  occ. eigenvalues --   -0.71864  -0.71714  -0.70380  -0.70115  -0.69575
 Alpha  occ. eigenvalues --   -0.69338  -0.69172  -0.67290  -0.66745  -0.66397
 Alpha  occ. eigenvalues --   -0.65650  -0.64922  -0.64846  -0.63278  -0.62774
 Alpha  occ. eigenvalues --   -0.62459  -0.61616  -0.60769  -0.60641  -0.59204
 Alpha  occ. eigenvalues --   -0.58627  -0.58220  -0.58020  -0.57284  -0.57118
 Alpha  occ. eigenvalues --   -0.56541  -0.56228  -0.55934  -0.55772  -0.55405
 Alpha  occ. eigenvalues --   -0.54821  -0.54443  -0.53533  -0.53389  -0.52517
 Alpha  occ. eigenvalues --   -0.52404  -0.52233  -0.51894  -0.51454  -0.51132
 Alpha  occ. eigenvalues --   -0.50719  -0.50374  -0.50012  -0.49894  -0.49648
 Alpha  occ. eigenvalues --   -0.49331  -0.48687  -0.48388  -0.48133  -0.47835
 Alpha  occ. eigenvalues --   -0.47698  -0.47538  -0.47391  -0.47093  -0.46937
 Alpha  occ. eigenvalues --   -0.46766  -0.46717  -0.46442  -0.46247  -0.46021
 Alpha  occ. eigenvalues --   -0.45836  -0.45713  -0.45367  -0.45214  -0.44890
 Alpha  occ. eigenvalues --   -0.44554  -0.44330  -0.44231  -0.43873  -0.43692
 Alpha  occ. eigenvalues --   -0.43519  -0.43289  -0.42741  -0.42656  -0.42443
 Alpha  occ. eigenvalues --   -0.42388  -0.42222  -0.42134  -0.41987  -0.41502
 Alpha  occ. eigenvalues --   -0.41387  -0.41336  -0.41163  -0.41146  -0.40745
 Alpha  occ. eigenvalues --   -0.40490  -0.40377  -0.40274  -0.40057  -0.39882
 Alpha  occ. eigenvalues --   -0.39820  -0.39204  -0.39179  -0.38901  -0.38675
 Alpha  occ. eigenvalues --   -0.38614  -0.38531  -0.38258  -0.38142  -0.37923
 Alpha  occ. eigenvalues --   -0.37737  -0.37625  -0.37292  -0.36942  -0.36800
 Alpha  occ. eigenvalues --   -0.36526  -0.36407  -0.36129  -0.35987  -0.35908
 Alpha  occ. eigenvalues --   -0.35231  -0.35150  -0.34922  -0.34818  -0.34615
 Alpha  occ. eigenvalues --   -0.34142  -0.33471  -0.33327  -0.33282  -0.32939
 Alpha  occ. eigenvalues --   -0.32469  -0.32165  -0.31934  -0.31744  -0.31581
 Alpha  occ. eigenvalues --   -0.30937  -0.30878  -0.30303  -0.29882  -0.29504
 Alpha  occ. eigenvalues --   -0.28709  -0.28260  -0.28157  -0.28037  -0.27889
 Alpha  occ. eigenvalues --   -0.27737  -0.27582  -0.23240  -0.21668
 Alpha virt. eigenvalues --   -0.08938  -0.07133  -0.02863  -0.01262   0.00323
 Alpha virt. eigenvalues --    0.00633   0.01770   0.03329   0.04183   0.04656
 Alpha virt. eigenvalues --    0.04828   0.04997   0.07372   0.07758   0.08481

 Mulliken charges:
               1
     1  Mg   0.842524
     2  C    0.100410
     3  C   -0.175842
     4  C   -0.119721
     5  C   -0.108997
     6  N   -0.634516
     7  C    0.290226
     8  C   -0.177868
     9  C   -0.152720
    10  C    0.357782
    11  C   -0.285067
    12  C   -0.138293
    13  C   -0.282274
    14  C    0.612612
    15  O   -0.528142
    16  O   -0.459310
    17  N   -0.689127
    18  C    0.295861
    19  C    0.090047
    20  C   -0.068505
    21  C    0.280695
    22  C   -0.434863
    23  C    0.276378
    24  O   -0.391149
    25  N   -0.724178
    26  C    0.285148
    27  C    0.003921
    28  C    0.019156
    29  C    0.311336
    30  C    0.209190
    31  C   -0.289654
    32  C   -0.273278
    33  N   -0.727823
    34  C    0.283824
    35  C    0.022168
    36  C    0.071641
    37  C    0.268281
    38  C   -0.384698
    39  C    0.352005
    40  O   -0.515115
    41  C   -0.302800
    42  C    0.576228
    43  O   -0.469210
    44  O   -0.348667
    45  C   -0.107849
    46  C    0.029124
    47  C   -0.139100
    48  C    0.122140
    49  C   -0.377056
    50  C   -0.211541
    51  C   -0.181083
    52  C   -0.162248
    53  C   -0.072791
    54  C   -0.276125
    55  C   -0.145478
    56  C   -0.138129
    57  C   -0.170955
    58  C   -0.035591
    59  C   -0.310202
    60  C   -0.191182
    61  C   -0.149503
    62  C   -0.139659
    63  C   -0.062720
    64  C   -0.308440
    65  C   -0.281836
    66  H    0.065615
    67  H    0.122169
    68  H    0.072094
    69  H    0.120285
    70  H    0.093373
    71  H    0.079544
    72  H    0.112206
    73  H    0.134747
    74  H    0.118437
    75  H    0.121821
    76  H    0.127738
    77  H    0.138963
    78  H    0.125356
    79  H    0.151621
    80  H    0.117917
    81  H    0.083292
    82  H    0.091062
    83  H    0.101382
    84  H    0.127573
    85  H    0.117187
    86  H    0.102917
    87  H    0.128403
    88  H    0.160709
    89  H    0.095937
    90  H    0.170830
    91  H    0.120666
    92  H    0.133430
    93  H    0.068265
    94  H    0.151748
    95  H    0.110399
    96  H    0.117556
    97  H    0.109449
    98  H    0.108438
    99  H    0.095497
   100  H    0.054641
   101  H    0.107782
   102  H    0.081755
   103  H    0.066532
   104  H    0.108575
   105  H    0.082678
   106  H    0.095163
   107  H    0.036832
   108  H    0.067486
   109  H    0.110786
   110  H    0.100943
   111  H    0.100601
   112  H    0.037052
   113  H    0.046371
   114  H    0.069552
   115  H    0.121752
   116  H    0.101566
   117  H    0.094173
   118  H    0.092869
   119  H    0.093883
   120  H    0.079943
   121  H    0.058535
   122  H    0.087082
   123  H    0.078364
   124  H    0.090500
   125  H    0.074308
   126  H    0.113790
   127  H    0.062411
   128  H    0.115413
   129  H    0.105442
   130  H    0.137744
   131  H    0.127772
   132  H    0.109542
   133  O   -0.449250
   134  H    0.083393
 Sum of Mulliken charges =   0.00000

 Dipole moment (field-independent basis, Debye):
    X=              2.2768    Y=             -4.3943    Z=             -0.8430  Tot=              5.0204
 Quadrupole moment (field-independent basis, Debye-Ang):
   XX=           -371.4023   YY=           -428.7686   ZZ=           -398.4390
   XY=             -6.3278   XZ=             24.2937   YZ=            -33.3780

 Normal termination of Gaussian 09 at Wed Oct  9 11:04:24 2019.
