 Gaussian 09, Revision D.01,
 Gaussian 09:  ES64L-G09RevD.01 24-Apr-2013

 ----------------------------------------------------------------------
 # td=(NStates=1) iop(3/107=0140000000,3/108=0140000000) iop(3/107=0140
 000000,3/108=0140000000) CAM-B3LYP/6-31G(d,p)
 ----------------------------------------------------------------------

 --
 TD
 --
 Symbolic Z-matrix:
 Charge =  0 Multiplicity = 1

                         Standard orientation:
 ---------------------------------------------------------------------
 Center     Atomic      Atomic             Coordinates (Angstroms)
 Number     Number       Type             X           Y           Z
 ---------------------------------------------------------------------
      1         12           0       -5.718870    1.168848    0.246546
      2          6           0       -4.845950   -2.110440   -0.448015
      3          6           0       -3.468942    1.252079    2.783972
      4          6           0       -6.274969    4.490400    0.658348
      5          6           0       -8.003660    1.162789   -2.423338
      6          7           0       -4.368658   -0.246325    1.030136
      7          6           0       -4.154495   -1.534691    0.620082
      8          6           0       -3.149321   -2.291382    1.431774
      9          6           0       -2.872768   -1.279794    2.581071
     10          6           0       -3.576129   -0.009513    2.197539
     11          6           0       -3.513868   -1.767047    4.078021
     12          6           0       -1.887556   -2.702823    0.636218
     13          6           0       -0.922552   -3.603705    1.454448
     14          6           0        0.297127   -4.048105    0.549825
     15          8           0        0.546227   -3.504954   -0.409611
     16          8           0        1.117197   -4.891302    1.271175
     17          7           0       -4.980015    2.583918    1.513394
     18          6           0       -4.052919    2.354801    2.627902
     19          6           0       -3.811610    3.561936    3.271917
     20          6           0       -4.588271    4.589296    2.638877
     21          6           0       -5.350184    3.885110    1.540961
     22          6           0       -2.859341    3.760751    4.349826
     23          6           0       -4.740139    5.912222    3.059764
     24          8           0       -4.140694    6.566295    3.938693
     25          7           0       -6.822760    2.597035   -0.654576
     26          6           0       -6.963086    3.934797   -0.346100
     27          6           0       -8.040011    4.615642   -1.211407
     28          6           0       -8.496402    3.626392   -2.057023
     29          6           0       -7.815599    2.396272   -1.697879
     30          6           0       -8.335788    6.115688   -1.256964
     31          6           0       -9.512017    3.774778   -3.116483
     32          6           0       -8.851122    4.035349   -4.498555
     33          7           0       -6.263089   -0.106361   -1.199264
     34          6           0       -7.217659   -0.037201   -2.233957
     35          6           0       -7.371713   -1.364307   -2.803223
     36          6           0       -6.489710   -2.170367   -2.161045
     37          6           0       -5.897329   -1.420222   -1.086673
     38          6           0       -8.495103   -1.679939   -3.830826
     39          6           0       -6.065061   -3.566154   -2.109223
     40          8           0       -6.570717   -4.543347   -2.728976
     41          6           0       -4.883009   -3.560869   -0.992008
     42          6           0       -5.157649   -4.657390    0.010126
     43          8           0       -5.637861   -4.359735    1.158617
     44          8           0       -5.056755   -5.908113   -0.420702
     45          6           0       -5.277462   -6.939055    0.424629
     46          6           0        2.420382   -5.131753    0.669561
     47          6           0        3.455926   -4.060738    1.108070
     48          6           0        4.107025   -3.279034    0.236961
     49          6           0        3.853388   -3.035810   -1.218195
     50          6           0        5.244464   -2.392421    0.684709
     51          6           0        6.587600   -2.733358    0.130631
     52          6           0        7.665171   -1.692698    0.537005
     53          6           0        8.973100   -2.008101   -0.106900
     54          6           0        9.600692   -3.471422    0.324788
     55          6           0        9.989117   -0.907396    0.413539
     56          6           0       11.360925   -0.897033   -0.172900
     57          6           0       12.181140    0.329775    0.196830
     58          6           0       13.509698    0.490103   -0.589466
     59          6           0       14.370877   -0.690344   -0.304063
     60          6           0       14.049300    1.838597   -0.213803
     61          6           0       15.379379    2.254901   -1.023165
     62          6           0       15.894977    3.646273   -0.715513
     63          6           0       17.202612    4.020063   -1.394239
     64          6           0       16.914418    4.257427   -2.911999
     65          6           0       17.689490    5.283357   -0.829411
     66          1           0       -2.670504    1.120401    3.720169
     67          1           0       -6.613405    5.462910    0.989751
     68          1           0       -8.892261    1.145858   -3.078582
     69          1           0       -3.427010   -3.128637    1.770436
     70          1           0       -1.894547   -1.116709    2.705869
     71          1           0       -3.135700   -2.703457    4.340539
     72          1           0       -3.469304   -0.889478    4.676648
     73          1           0       -4.522650   -2.131483    3.841193
     74          1           0       -2.109733   -3.092227   -0.418870
     75          1           0       -1.243952   -1.836598    0.375523
     76          1           0       -0.765182   -3.081340    2.393506
     77          1           0       -1.365524   -4.479507    1.950558
     78          1           0       -1.966644    3.357269    3.775967
     79          1           0       -2.686432    4.750164    4.751711
     80          1           0       -3.217271    3.057594    5.206085
     81          1           0       -5.374546    6.486865    2.304838
     82          1           0      -10.078121    2.808822   -3.244009
     83          1           0      -10.265734    4.500799   -2.943609
     84          1           0       -9.444134    4.098100   -5.360678
     85          1           0       -8.074917    4.683711   -4.313178
     86          1           0       -8.204402    3.077159   -4.568203
     87          1           0       -8.069897   -1.104075   -4.657102
     88          1           0       -8.728721   -2.650638   -4.191190
     89          1           0       -9.380863   -1.314072   -3.560048
     90          1           0       -4.000958   -3.919931   -1.412623
     91          1           0        2.704617   -6.181672    0.898444
     92          1           0        2.185212   -5.194174   -0.341563
     93          1           0        3.603815   -4.119630    2.145029
     94          1           0        2.777770   -3.405207   -1.493912
     95          1           0        3.949663   -2.022737   -1.374375
     96          1           0        4.754736   -3.597460   -1.883327
     97          1           0        5.137668   -1.308699    0.371830
     98          1           0        5.162836   -2.411936    1.829699
     99          1           0        7.064209   -3.872463    0.535538
    100          1           0        6.899823   -2.705689   -1.016619
    101          1           0        7.491479   -0.758710    0.194683
    102          1           0        7.751263   -2.035734    1.619486
    103          1           0        8.699451   -1.964458   -1.256412
    104          1           0        8.865385   -4.246526   -0.177617
    105          1           0       10.744743   -3.663954    0.115815
    106          1           0        9.286689   -3.743245    1.259966
    107          1           0        9.281100   -0.041573    0.235249
    108          1           0       10.157012   -0.949030    1.535481
    109          1           0       11.903803   -1.835305   -0.284511
    110          1           0       11.062787   -0.820693   -1.213114
    111          1           0       11.427426    1.121190    0.057002
    112          1           0       12.342910    0.299267    1.263281
    113          1           0       13.428486    0.537265   -1.778362
    114          1           0       14.856354   -0.849469    0.685975
    115          1           0       14.112546   -1.625904   -0.478025
    116          1           0       15.414032   -0.633085   -0.897336
    117          1           0       13.326493    2.692061   -0.342758
    118          1           0       14.344514    1.584095    0.849261
    119          1           0       16.078148    1.395942   -0.899145
    120          1           0       15.110763    2.219587   -2.132391
    121          1           0       15.073782    4.227991   -1.024892
    122          1           0       16.121375    3.825829    0.384985
    123          1           0       17.986164    3.365815   -1.211164
    124          1           0       16.364550    5.171287   -3.033000
    125          1           0       17.902429    4.621869   -3.270228
    126          1           0       16.649683    3.313658   -3.376731
    127          1           0       17.772174    5.461642    0.174789
    128          1           0       18.723982    5.430397   -1.436286
    129          1           0       17.000159    6.106219   -1.364568
    130          1           0       -4.979122   -8.055370    0.101025
    131          1           0       -6.365490   -6.924058    0.726865
    132          1           0       -4.584491   -6.664908    1.445677
    133          8           0       -7.767744    6.863859   -0.516638
    134          1           0       -9.070139    6.276301   -2.115430
 ---------------------------------------------------------------------

 SCF Done:  E(RCAM-B3LYP) =  -3043.42282744     A.U. after   17 cycles

 Excitation energies and oscillator strengths:

 Excited State   1:      Singlet-A      1.8714 eV  662.53 nm  f=0.2184  <S**2>=0.000
     243 -> 246       -0.22576
     244 -> 245        0.66575
 This state for optimization and/or second-order correction.
 Total Energy, E(TD-HF/TD-KS) =  -3043.35405588
 Copying the excited state density for this state as the 1-particle RhoCI density.

 The electronic state is 1-A.
 Alpha  occ. eigenvalues --  -46.80580 -19.24525 -19.21551 -19.18913 -19.18780
 Alpha  occ. eigenvalues --  -19.17711 -19.16852 -19.15420 -14.39751 -14.37390
 Alpha  occ. eigenvalues --  -14.36888 -14.36655 -10.36178 -10.35332 -10.32451
 Alpha  occ. eigenvalues --  -10.32118 -10.30130 -10.28587 -10.28242 -10.27655
 Alpha  occ. eigenvalues --  -10.27402 -10.27237 -10.27068 -10.26880 -10.26417
 Alpha  occ. eigenvalues --  -10.26102 -10.25895 -10.25528 -10.25338 -10.25202
 Alpha  occ. eigenvalues --  -10.25051 -10.24883 -10.24521 -10.24252 -10.23990
 Alpha  occ. eigenvalues --  -10.23927 -10.23888 -10.23820 -10.23778 -10.23692
 Alpha  occ. eigenvalues --  -10.23362 -10.23226 -10.22879 -10.22718 -10.22622
 Alpha  occ. eigenvalues --  -10.22593 -10.22553 -10.22517 -10.22273 -10.22132
 Alpha  occ. eigenvalues --  -10.22099 -10.21994 -10.21639 -10.21532 -10.21510
 Alpha  occ. eigenvalues --  -10.21419 -10.21182 -10.20907 -10.20622 -10.20548
 Alpha  occ. eigenvalues --  -10.20475 -10.20177 -10.20139 -10.19916 -10.19858
 Alpha  occ. eigenvalues --  -10.19716  -3.09332  -1.84250  -1.83821  -1.83742
 Alpha  occ. eigenvalues --   -1.16273  -1.15993  -1.09207  -1.07086  -1.04766
 Alpha  occ. eigenvalues --   -1.03366  -1.02845  -0.99780  -0.98731  -0.98203
 Alpha  occ. eigenvalues --   -0.97016  -0.88336  -0.86775  -0.86736  -0.85836
 Alpha  occ. eigenvalues --   -0.85694  -0.85578  -0.84941  -0.84092  -0.83779
 Alpha  occ. eigenvalues --   -0.82964  -0.82474  -0.81157  -0.80589  -0.80002
 Alpha  occ. eigenvalues --   -0.78830  -0.78613  -0.77926  -0.77653  -0.76639
 Alpha  occ. eigenvalues --   -0.75596  -0.75151  -0.74352  -0.73444  -0.72575
 Alpha  occ. eigenvalues --   -0.71472  -0.71109  -0.70591  -0.70522  -0.70253
 Alpha  occ. eigenvalues --   -0.69740  -0.69376  -0.68185  -0.67156  -0.66182
 Alpha  occ. eigenvalues --   -0.65793  -0.64739  -0.64153  -0.63307  -0.62350
 Alpha  occ. eigenvalues --   -0.61927  -0.60487  -0.60011  -0.59144  -0.59118
 Alpha  occ. eigenvalues --   -0.59113  -0.58396  -0.57960  -0.57817  -0.57785
 Alpha  occ. eigenvalues --   -0.56637  -0.55884  -0.55533  -0.55351  -0.54706
 Alpha  occ. eigenvalues --   -0.54522  -0.54040  -0.53592  -0.52754  -0.52402
 Alpha  occ. eigenvalues --   -0.52166  -0.51906  -0.51841  -0.51725  -0.51097
 Alpha  occ. eigenvalues --   -0.50924  -0.50558  -0.49708  -0.49629  -0.49338
 Alpha  occ. eigenvalues --   -0.49181  -0.49092  -0.48900  -0.48180  -0.48086
 Alpha  occ. eigenvalues --   -0.48021  -0.47860  -0.47788  -0.47723  -0.47493
 Alpha  occ. eigenvalues --   -0.47268  -0.46555  -0.46496  -0.46276  -0.46142
 Alpha  occ. eigenvalues --   -0.45927  -0.45684  -0.45521  -0.45255  -0.45088
 Alpha  occ. eigenvalues --   -0.44983  -0.44754  -0.44351  -0.43794  -0.43516
 Alpha  occ. eigenvalues --   -0.43256  -0.43093  -0.43010  -0.42883  -0.42769
 Alpha  occ. eigenvalues --   -0.42670  -0.42578  -0.42374  -0.42050  -0.41895
 Alpha  occ. eigenvalues --   -0.41721  -0.41407  -0.41345  -0.41120  -0.40839
 Alpha  occ. eigenvalues --   -0.40583  -0.40512  -0.40415  -0.40320  -0.39955
 Alpha  occ. eigenvalues --   -0.39868  -0.39687  -0.39612  -0.39563  -0.39216
 Alpha  occ. eigenvalues --   -0.39014  -0.38723  -0.38420  -0.38196  -0.37989
 Alpha  occ. eigenvalues --   -0.37738  -0.37460  -0.37396  -0.37151  -0.37052
 Alpha  occ. eigenvalues --   -0.36966  -0.36532  -0.36245  -0.35893  -0.35797
 Alpha  occ. eigenvalues --   -0.35647  -0.35302  -0.35185  -0.34783  -0.34621
 Alpha  occ. eigenvalues --   -0.34538  -0.34330  -0.33367  -0.33098  -0.33027
 Alpha  occ. eigenvalues --   -0.32685  -0.32613  -0.32312  -0.32095  -0.31891
 Alpha  occ. eigenvalues --   -0.31805  -0.31398  -0.30262  -0.30119  -0.29483
 Alpha  occ. eigenvalues --   -0.29098  -0.28786  -0.28149  -0.27892  -0.27869
 Alpha  occ. eigenvalues --   -0.27089  -0.26234  -0.23260  -0.21253
 Alpha virt. eigenvalues --   -0.09135  -0.06550  -0.02344  -0.00688  -0.00227
 Alpha virt. eigenvalues --    0.01786   0.03034   0.03208   0.03944   0.04196
 Alpha virt. eigenvalues --    0.05230   0.06203   0.07855   0.08413   0.08820

 Mulliken charges:
               1
     1  Mg   0.823724
     2  C    0.071475
     3  C   -0.234702
     4  C   -0.182832
     5  C   -0.179369
     6  N   -0.633197
     7  C    0.317562
     8  C   -0.094062
     9  C   -0.170260
    10  C    0.313724
    11  C   -0.329019
    12  C   -0.199180
    13  C   -0.290545
    14  C    0.595417
    15  O   -0.381199
    16  O   -0.486522
    17  N   -0.725332
    18  C    0.371938
    19  C    0.057674
    20  C   -0.010789
    21  C    0.342954
    22  C   -0.366983
    23  C    0.202368
    24  O   -0.455036
    25  N   -0.678741
    26  C    0.310506
    27  C   -0.045909
    28  C    0.054776
    29  C    0.273512
    30  C    0.275958
    31  C   -0.267318
    32  C   -0.313483
    33  N   -0.698211
    34  C    0.266431
    35  C   -0.019180
    36  C    0.022884
    37  C    0.279221
    38  C   -0.357197
    39  C    0.375086
    40  O   -0.473370
    41  C   -0.302635
    42  C    0.600564
    43  O   -0.502193
    44  O   -0.379968
    45  C   -0.077066
    46  C   -0.011216
    47  C   -0.143178
    48  C    0.163691
    49  C   -0.354481
    50  C   -0.229329
    51  C   -0.157141
    52  C   -0.152245
    53  C   -0.072505
    54  C   -0.321958
    55  C   -0.159786
    56  C   -0.188813
    57  C   -0.164490
    58  C   -0.043845
    59  C   -0.317710
    60  C   -0.157437
    61  C   -0.196940
    62  C   -0.136906
    63  C   -0.051806
    64  C   -0.316103
    65  C   -0.288124
    66  H    0.077437
    67  H    0.122684
    68  H    0.098345
    69  H    0.113472
    70  H    0.114424
    71  H    0.121672
    72  H    0.121745
    73  H    0.134322
    74  H    0.104776
    75  H    0.119471
    76  H    0.136231
    77  H    0.116399
    78  H    0.122464
    79  H    0.165739
    80  H    0.114401
    81  H    0.058668
    82  H    0.105386
    83  H    0.118272
    84  H    0.123890
    85  H    0.128434
    86  H    0.095226
    87  H    0.128803
    88  H    0.146757
    89  H    0.133199
    90  H    0.156248
    91  H    0.115635
    92  H    0.119503
    93  H    0.091616
    94  H    0.127080
    95  H    0.126734
    96  H    0.096014
    97  H    0.096977
    98  H    0.094664
    99  H    0.051805
   100  H    0.078343
   101  H    0.100468
   102  H    0.098879
   103  H    0.067266
   104  H    0.079985
   105  H    0.100523
   106  H    0.117733
   107  H    0.073234
   108  H    0.081233
   109  H    0.092551
   110  H    0.092570
   111  H    0.088892
   112  H    0.093882
   113  H    0.067373
   114  H    0.095460
   115  H    0.122387
   116  H    0.072043
   117  H    0.087465
   118  H    0.084394
   119  H    0.086355
   120  H    0.077072
   121  H    0.093467
   122  H    0.071661
   123  H    0.096735
   124  H    0.110327
   125  H    0.089174
   126  H    0.110429
   127  H    0.109534
   128  H    0.069075
   129  H    0.070594
   130  H    0.121836
   131  H    0.132934
   132  H    0.084272
   133  O   -0.394838
   134  H    0.077042
 Sum of Mulliken charges =   0.00000

 Dipole moment (field-independent basis, Debye):
    X=              1.5690    Y=             -5.5765    Z=             -1.3534  Tot=              5.9490
 Quadrupole moment (field-independent basis, Debye-Ang):
   XX=           -366.9151   YY=           -444.8628   ZZ=           -397.3602
   XY=              0.3308   XZ=             28.1923   YZ=            -38.6779

 Normal termination of Gaussian 09 at Tue Oct  8 09:55:47 2019.
