 Gaussian 09, Revision D.01,
 Gaussian 09:  ES64L-G09RevD.01 24-Apr-2013

 ----------------------------------------------------------------------
 # td=(NStates=1) iop(3/107=0140000000,3/108=0140000000) iop(3/107=0140
 000000,3/108=0140000000) CAM-B3LYP/6-31G(d,p)
 ----------------------------------------------------------------------

 --
 TD
 --
 Symbolic Z-matrix:
 Charge =  0 Multiplicity = 1

                         Standard orientation:
 ---------------------------------------------------------------------
 Center     Atomic      Atomic             Coordinates (Angstroms)
 Number     Number       Type             X           Y           Z
 ---------------------------------------------------------------------
      1         12           0       -5.571339    1.226621    0.171225
      2          6           0       -5.098516   -2.147079   -0.275809
      3          6           0       -3.405551    1.193144    2.767804
      4          6           0       -6.201219    4.527864    0.573953
      5          6           0       -7.975329    1.074773   -2.283750
      6          7           0       -4.417134   -0.237959    1.066556
      7          6           0       -4.258689   -1.608897    0.727121
      8          6           0       -3.208777   -2.323208    1.460189
      9          6           0       -3.000958   -1.311153    2.608010
     10          6           0       -3.618337   -0.057635    2.120745
     11          6           0       -3.590516   -1.760228    3.981956
     12          6           0       -1.924622   -2.573681    0.586552
     13          6           0       -0.894718   -3.406824    1.316895
     14          6           0        0.295704   -3.807348    0.563313
     15          8           0        0.497557   -3.530692   -0.632080
     16          8           0        1.070450   -4.708015    1.262750
     17          7           0       -4.925163    2.631045    1.488621
     18          6           0       -4.045228    2.400699    2.419514
     19          6           0       -3.819185    3.629006    3.186745
     20          6           0       -4.604616    4.574001    2.525685
     21          6           0       -5.295665    4.011004    1.443698
     22          6           0       -2.922073    3.822541    4.403584
     23          6           0       -4.732650    6.046958    2.869020
     24          8           0       -3.985317    6.647115    3.725316
     25          7           0       -6.926974    2.555142   -0.707379
     26          6           0       -7.006387    3.842668   -0.388054
     27          6           0       -8.112623    4.559354   -1.247464
     28          6           0       -8.572284    3.558984   -2.047614
     29          6           0       -7.731853    2.332164   -1.757799
     30          6           0       -8.416301    6.001868   -1.142478
     31          6           0       -9.505682    3.788013   -3.255782
     32          6           0       -8.738093    3.976621   -4.517687
     33          7           0       -6.378466   -0.230115   -1.026927
     34          6           0       -7.336167   -0.093898   -2.079551
     35          6           0       -7.592563   -1.390344   -2.657520
     36          6           0       -6.615746   -2.289585   -2.014920
     37          6           0       -5.953826   -1.440244   -1.057593
     38          6           0       -8.549793   -1.635859   -3.745993
     39          6           0       -6.084470   -3.553488   -1.999090
     40          8           0       -6.471279   -4.557613   -2.677001
     41          6           0       -4.986817   -3.582036   -0.828807
     42          6           0       -5.314163   -4.658505    0.176460
     43          8           0       -5.640560   -4.435113    1.258111
     44          8           0       -4.999714   -5.869087   -0.347149
     45          6           0       -5.307294   -7.101747    0.504984
     46          6           0        2.366954   -5.070813    0.594726
     47          6           0        3.446644   -4.132932    1.032436
     48          6           0        4.023616   -3.298136    0.162409
     49          6           0        3.730687   -3.140931   -1.239037
     50          6           0        5.195009   -2.269920    0.699469
     51          6           0        6.483749   -2.641924    0.090087
     52          6           0        7.668005   -1.730769    0.563555
     53          6           0        8.968662   -1.912581   -0.043400
     54          6           0        9.664953   -3.272738    0.365070
     55          6           0        9.993761   -0.787663    0.334883
     56          6           0       11.279764   -0.727941   -0.416829
     57          6           0       12.176201    0.275578    0.198601
     58          6           0       13.557539    0.495963   -0.511811
     59          6           0       14.549162   -0.799236   -0.290745
     60          6           0       14.311362    1.796397   -0.014085
     61          6           0       15.543576    2.139486   -1.038539
     62          6           0       16.097677    3.496550   -0.616022
     63          6           0       17.368411    3.899351   -1.383201
     64          6           0       17.196406    3.882462   -2.931335
     65          6           0       17.855443    5.181238   -0.809048
     66          1           0       -2.777685    1.172640    3.840868
     67          1           0       -6.190000    5.610587    0.593652
     68          1           0       -8.546533    1.201544   -3.043975
     69          1           0       -3.887473   -3.167188    1.920331
     70          1           0       -1.905508   -1.200171    2.822298
     71          1           0       -3.156572   -2.652013    4.176572
     72          1           0       -3.296346   -0.954715    4.635918
     73          1           0       -4.675984   -2.056356    3.776679
     74          1           0       -2.379512   -3.077551   -0.325771
     75          1           0       -1.466046   -1.716196    0.350596
     76          1           0       -0.480359   -2.887769    2.333434
     77          1           0       -1.074788   -4.433885    1.766483
     78          1           0       -1.983469    3.454551    4.134379
     79          1           0       -2.941316    4.910385    4.661309
     80          1           0       -3.219241    3.341575    5.298004
     81          1           0       -5.467850    6.724791    2.169265
     82          1           0      -10.149837    2.851238   -3.128628
     83          1           0      -10.151825    4.668206   -2.764332
     84          1           0       -9.396847    4.141780   -5.389992
     85          1           0       -8.287633    4.996633   -4.752591
     86          1           0       -8.198216    3.129986   -5.059204
     87          1           0       -8.276876   -0.915316   -4.592621
     88          1           0       -8.568336   -2.715339   -4.103564
     89          1           0       -9.607940   -1.182950   -3.395753
     90          1           0       -4.157915   -3.714368   -1.389120
     91          1           0        2.663524   -6.140220    1.029410
     92          1           0        1.999654   -5.022596   -0.521984
     93          1           0        3.744016   -3.882690    2.095797
     94          1           0        2.926355   -3.555307   -1.571157
     95          1           0        3.920177   -2.089880   -1.552376
     96          1           0        4.806270   -3.643405   -1.806142
     97          1           0        4.954775   -1.254280    0.505704
     98          1           0        5.050789   -2.223252    1.888325
     99          1           0        6.804406   -3.750468    0.173160
    100          1           0        6.471292   -2.414363   -1.036455
    101          1           0        7.571663   -0.687190    0.134036
    102          1           0        7.848741   -1.708424    1.477661
    103          1           0        8.959573   -1.873167   -1.116299
    104          1           0        8.889995   -4.128412    0.143497
    105          1           0       10.334659   -3.414450   -0.311531
    106          1           0        9.863008   -3.365843    1.453377
    107          1           0        9.389424   -0.044771    0.410808
    108          1           0       10.244335   -1.041848    1.425214
    109          1           0       11.807566   -1.569994   -0.411031
    110          1           0       11.110136   -0.436975   -1.485968
    111          1           0       11.607479    1.239536    0.278690
    112          1           0       12.262015    0.118073    1.249111
    113          1           0       13.360345    0.498229   -1.532490
    114          1           0       14.784446   -0.728410    0.934632
    115          1           0       13.801966   -1.688100   -0.591418
    116          1           0       15.602089   -1.025807   -0.805155
    117          1           0       13.466226    2.858721   -0.128249
    118          1           0       14.616128    1.934780    0.910819
    119          1           0       16.356565    1.345787   -0.802525
    120          1           0       15.488331    1.956701   -2.053184
    121          1           0       15.431367    4.287240   -0.856973
    122          1           0       16.099597    3.474330    0.520504
    123          1           0       18.128661    2.982934   -1.450157
    124          1           0       16.584000    4.610929   -3.349475
    125          1           0       18.179884    4.211090   -3.416306
    126          1           0       16.998178    2.968981   -3.286220
    127          1           0       18.093351    5.257876    0.227329
    128          1           0       18.577899    5.700800   -1.460771
    129          1           0       16.924821    5.817926   -0.680871
    130          1           0       -5.128257   -8.144086   -0.043712
    131          1           0       -6.300731   -7.071681    0.855525
    132          1           0       -4.492030   -6.842003    1.306595
    133          8           0       -7.835824    6.831169   -0.497246
    134          1           0       -9.366282    6.309174   -1.927397
 ---------------------------------------------------------------------

 SCF Done:  E(RCAM-B3LYP) =  -3043.34919170     A.U. after   16 cycles

 Excitation energies and oscillator strengths:

 Excited State   1:      Singlet-A      2.0704 eV  598.85 nm  f=0.2084  <S**2>=0.000
     243 -> 246       -0.25696
     244 -> 245        0.64906
 This state for optimization and/or second-order correction.
 Total Energy, E(TD-HF/TD-KS) =  -3043.27310660
 Copying the excited state density for this state as the 1-particle RhoCI density.

 The electronic state is 1-A.
 Alpha  occ. eigenvalues --  -46.81514 -19.21652 -19.21467 -19.18741 -19.17517
 Alpha  occ. eigenvalues --  -19.17507 -19.17076 -19.15074 -14.38982 -14.37836
 Alpha  occ. eigenvalues --  -14.36311 -14.36090 -10.35056 -10.34536 -10.32552
 Alpha  occ. eigenvalues --  -10.32033 -10.29615 -10.29249 -10.29098 -10.27540
 Alpha  occ. eigenvalues --  -10.27492 -10.27391 -10.26539 -10.26174 -10.26079
 Alpha  occ. eigenvalues --  -10.26024 -10.25967 -10.25663 -10.25464 -10.25262
 Alpha  occ. eigenvalues --  -10.24720 -10.24604 -10.24546 -10.24497 -10.24280
 Alpha  occ. eigenvalues --  -10.24040 -10.24017 -10.23901 -10.23863 -10.23643
 Alpha  occ. eigenvalues --  -10.23487 -10.23458 -10.23445 -10.23054 -10.22854
 Alpha  occ. eigenvalues --  -10.22833 -10.22787 -10.22777 -10.22737 -10.22610
 Alpha  occ. eigenvalues --  -10.22189 -10.22045 -10.21692 -10.21485 -10.21402
 Alpha  occ. eigenvalues --  -10.21009 -10.20792 -10.20463 -10.20306 -10.20203
 Alpha  occ. eigenvalues --  -10.19917 -10.19867 -10.19507 -10.19221 -10.19210
 Alpha  occ. eigenvalues --  -10.19164  -3.10137  -1.85079  -1.84627  -1.84523
 Alpha  occ. eigenvalues --   -1.14216  -1.11312  -1.08873  -1.05473  -1.03220
 Alpha  occ. eigenvalues --   -1.02967  -1.02557  -1.01285  -1.00664  -1.00169
 Alpha  occ. eigenvalues --   -0.99413  -0.88717  -0.86968  -0.86533  -0.85868
 Alpha  occ. eigenvalues --   -0.85375  -0.84892  -0.84393  -0.84150  -0.83478
 Alpha  occ. eigenvalues --   -0.83331  -0.82664  -0.82248  -0.80514  -0.80003
 Alpha  occ. eigenvalues --   -0.79048  -0.78437  -0.77939  -0.76908  -0.76383
 Alpha  occ. eigenvalues --   -0.75304  -0.74933  -0.74464  -0.72993  -0.72444
 Alpha  occ. eigenvalues --   -0.72084  -0.72007  -0.70898  -0.70025  -0.69795
 Alpha  occ. eigenvalues --   -0.68857  -0.68276  -0.68097  -0.67190  -0.66634
 Alpha  occ. eigenvalues --   -0.65917  -0.64854  -0.64325  -0.62802  -0.62619
 Alpha  occ. eigenvalues --   -0.61897  -0.61716  -0.60971  -0.60322  -0.59104
 Alpha  occ. eigenvalues --   -0.58735  -0.58387  -0.57485  -0.56940  -0.56452
 Alpha  occ. eigenvalues --   -0.55907  -0.55606  -0.54814  -0.54786  -0.54558
 Alpha  occ. eigenvalues --   -0.54111  -0.53411  -0.52291  -0.52093  -0.51845
 Alpha  occ. eigenvalues --   -0.51667  -0.51583  -0.51263  -0.50731  -0.50223
 Alpha  occ. eigenvalues --   -0.49980  -0.49836  -0.49632  -0.49357  -0.49114
 Alpha  occ. eigenvalues --   -0.48958  -0.48871  -0.48438  -0.48203  -0.47903
 Alpha  occ. eigenvalues --   -0.47733  -0.47528  -0.47495  -0.47414  -0.47033
 Alpha  occ. eigenvalues --   -0.46909  -0.46439  -0.46299  -0.45872  -0.45812
 Alpha  occ. eigenvalues --   -0.45692  -0.45605  -0.45444  -0.45239  -0.45149
 Alpha  occ. eigenvalues --   -0.44833  -0.44709  -0.44624  -0.44414  -0.43837
 Alpha  occ. eigenvalues --   -0.43420  -0.43340  -0.43122  -0.43008  -0.42920
 Alpha  occ. eigenvalues --   -0.42700  -0.42622  -0.42402  -0.42164  -0.42149
 Alpha  occ. eigenvalues --   -0.41852  -0.41757  -0.41519  -0.41124  -0.40951
 Alpha  occ. eigenvalues --   -0.40762  -0.40699  -0.40492  -0.40355  -0.40224
 Alpha  occ. eigenvalues --   -0.40060  -0.39941  -0.39858  -0.39481  -0.39307
 Alpha  occ. eigenvalues --   -0.39185  -0.38972  -0.38816  -0.38636  -0.38300
 Alpha  occ. eigenvalues --   -0.37922  -0.37859  -0.37446  -0.37182  -0.36914
 Alpha  occ. eigenvalues --   -0.36454  -0.36394  -0.36007  -0.35953  -0.35654
 Alpha  occ. eigenvalues --   -0.35619  -0.35250  -0.35239  -0.34885  -0.34834
 Alpha  occ. eigenvalues --   -0.34170  -0.33920  -0.33854  -0.33235  -0.32971
 Alpha  occ. eigenvalues --   -0.32178  -0.32018  -0.31951  -0.31771  -0.31543
 Alpha  occ. eigenvalues --   -0.31360  -0.30969  -0.30368  -0.29943  -0.29785
 Alpha  occ. eigenvalues --   -0.29383  -0.28605  -0.27715  -0.27629  -0.27102
 Alpha  occ. eigenvalues --   -0.26925  -0.26252  -0.22937  -0.21589
 Alpha virt. eigenvalues --   -0.08448  -0.06266  -0.02010  -0.01513   0.00505
 Alpha virt. eigenvalues --    0.02629   0.02943   0.03848   0.04076   0.04626
 Alpha virt. eigenvalues --    0.05052   0.05986   0.07903   0.08446   0.08724

 Mulliken charges:
               1
     1  Mg   0.821136
     2  C    0.039513
     3  C   -0.214205
     4  C   -0.171318
     5  C   -0.121607
     6  N   -0.631424
     7  C    0.264149
     8  C   -0.165445
     9  C   -0.191901
    10  C    0.402613
    11  C   -0.294826
    12  C   -0.146815
    13  C   -0.272455
    14  C    0.621255
    15  O   -0.496038
    16  O   -0.493646
    17  N   -0.754006
    18  C    0.373094
    19  C    0.026337
    20  C   -0.032716
    21  C    0.319954
    22  C   -0.393195
    23  C    0.228739
    24  O   -0.430764
    25  N   -0.642851
    26  C    0.277079
    27  C    0.029963
    28  C   -0.039512
    29  C    0.254440
    30  C    0.253201
    31  C   -0.216292
    32  C   -0.323787
    33  N   -0.732381
    34  C    0.264063
    35  C    0.058032
    36  C    0.089511
    37  C    0.359507
    38  C   -0.389528
    39  C    0.252601
    40  O   -0.502463
    41  C   -0.323867
    42  C    0.641745
    43  O   -0.431851
    44  O   -0.477042
    45  C   -0.089977
    46  C   -0.021077
    47  C   -0.127079
    48  C    0.140669
    49  C   -0.323899
    50  C   -0.218444
    51  C   -0.165567
    52  C   -0.138574
    53  C   -0.102195
    54  C   -0.301076
    55  C   -0.154563
    56  C   -0.162913
    57  C   -0.184609
    58  C   -0.053314
    59  C   -0.300024
    60  C   -0.141320
    61  C   -0.188684
    62  C   -0.156599
    63  C   -0.036429
    64  C   -0.324167
    65  C   -0.312758
    66  H    0.078928
    67  H    0.125818
    68  H    0.055329
    69  H    0.141990
    70  H    0.097975
    71  H    0.125179
    72  H    0.115249
    73  H    0.120321
    74  H    0.124951
    75  H    0.137639
    76  H    0.121291
    77  H    0.150244
    78  H    0.128919
    79  H    0.163014
    80  H    0.130193
    81  H    0.089281
    82  H    0.113575
    83  H    0.110307
    84  H    0.112915
    85  H    0.123819
    86  H    0.122135
    87  H    0.128254
    88  H    0.155806
    89  H    0.114226
    90  H    0.163963
    91  H    0.109315
    92  H    0.144246
    93  H    0.085246
    94  H    0.133405
    95  H    0.120347
    96  H    0.067055
    97  H    0.110468
    98  H    0.072043
    99  H    0.097763
   100  H    0.093037
   101  H    0.076027
   102  H    0.094311
   103  H    0.074747
   104  H    0.064703
   105  H    0.115130
   106  H    0.099382
   107  H    0.083830
   108  H    0.069813
   109  H    0.108543
   110  H    0.083563
   111  H    0.086577
   112  H    0.092446
   113  H    0.099928
   114  H    0.075757
   115  H    0.082899
   116  H    0.102768
   117  H    0.014020
   118  H    0.110250
   119  H    0.077175
   120  H    0.101712
   121  H    0.100827
   122  H    0.079778
   123  H    0.060894
   124  H    0.104767
   125  H    0.086592
   126  H    0.115148
   127  H    0.111494
   128  H    0.096132
   129  H    0.086729
   130  H    0.132126
   131  H    0.152710
   132  H    0.126090
   133  O   -0.397190
   134  H    0.021671
 Sum of Mulliken charges =   0.00000

 Dipole moment (field-independent basis, Debye):
    X=              1.3421    Y=             -3.4617    Z=             -0.8746  Tot=              3.8144
 Quadrupole moment (field-independent basis, Debye-Ang):
   XX=           -381.4200   YY=           -442.0031   ZZ=           -389.8995
   XY=              4.4405   XZ=             17.6933   YZ=            -40.0885

 Normal termination of Gaussian 09 at Fri Oct  4 09:18:31 2019.
