 Gaussian 09, Revision D.01,
 Gaussian 09:  ES64L-G09RevD.01 24-Apr-2013

 ----------------------------------------------------------------------
 # td=(NStates=1) iop(3/107=0140000000,3/108=0140000000) iop(3/107=0140
 000000,3/108=0140000000) CAM-B3LYP/6-31G(d,p)
 ----------------------------------------------------------------------

 --
 TD
 --
 Symbolic Z-matrix:
 Charge =  0 Multiplicity = 1

                         Standard orientation:
 ---------------------------------------------------------------------
 Center     Atomic      Atomic             Coordinates (Angstroms)
 Number     Number       Type             X           Y           Z
 ---------------------------------------------------------------------
      1         12           0       -5.571404    1.227679    0.213220
      2          6           0       -5.060708   -2.134953   -0.334290
      3          6           0       -3.459959    1.122030    2.897794
      4          6           0       -6.266180    4.539186    0.581909
      5          6           0       -7.944424    1.181474   -2.316729
      6          7           0       -4.455539   -0.320255    1.108928
      7          6           0       -4.311398   -1.672870    0.720455
      8          6           0       -3.301292   -2.372969    1.570286
      9          6           0       -3.021486   -1.352588    2.753085
     10          6           0       -3.626414   -0.097693    2.226585
     11          6           0       -3.538050   -1.726780    4.179396
     12          6           0       -2.025347   -2.705731    0.754583
     13          6           0       -1.040520   -3.569078    1.495353
     14          6           0        0.206536   -3.871684    0.667756
     15          8           0        0.310262   -3.446053   -0.511216
     16          8           0        1.112124   -4.678972    1.341942
     17          7           0       -4.903907    2.619756    1.388595
     18          6           0       -3.949979    2.408540    2.480523
     19          6           0       -3.767235    3.676980    3.192803
     20          6           0       -4.480091    4.707403    2.448978
     21          6           0       -5.231514    3.972914    1.372037
     22          6           0       -2.779993    3.830307    4.211278
     23          6           0       -4.496502    6.112149    2.751468
     24          8           0       -3.917953    6.663991    3.717097
     25          7           0       -6.962903    2.656293   -0.630737
     26          6           0       -7.040214    3.845461   -0.379818
     27          6           0       -7.964941    4.522031   -1.229624
     28          6           0       -8.436905    3.573104   -2.128929
     29          6           0       -7.772215    2.375997   -1.689856
     30          6           0       -8.432479    6.002652   -1.192772
     31          6           0       -9.388595    3.837418   -3.181918
     32          6           0       -8.793941    3.988936   -4.467032
     33          7           0       -6.440462   -0.153860   -0.985504
     34          6           0       -7.375258   -0.064450   -2.019298
     35          6           0       -7.489558   -1.306789   -2.706074
     36          6           0       -6.640568   -2.141621   -2.097111
     37          6           0       -6.025817   -1.454331   -1.016390
     38          6           0       -8.459081   -1.523107   -3.798928
     39          6           0       -6.164392   -3.527084   -2.086697
     40          8           0       -6.479271   -4.571511   -2.764071
     41          6           0       -4.997405   -3.588025   -0.955614
     42          6           0       -5.336658   -4.624659    0.039296
     43          8           0       -5.669016   -4.457154    1.233764
     44          8           0       -5.100121   -5.921138   -0.417282
     45          6           0       -5.373582   -7.062176    0.521832
     46          6           0        2.341393   -5.000357    0.727752
     47          6           0        3.452669   -4.053152    1.064964
     48          6           0        4.057141   -3.222418    0.185749
     49          6           0        3.641660   -3.137913   -1.311450
     50          6           0        5.125028   -2.354535    0.659153
     51          6           0        6.434864   -2.625842   -0.112005
     52          6           0        7.611617   -1.706267    0.463703
     53          6           0        9.016665   -1.968923   -0.143414
     54          6           0        9.516486   -3.403197    0.066963
     55          6           0        9.963915   -0.815817    0.308650
     56          6           0       11.304069   -0.770846   -0.387909
     57          6           0       12.217170    0.433339    0.047765
     58          6           0       13.584752    0.466944   -0.590989
     59          6           0       14.434267   -0.799119   -0.390684
     60          6           0       14.321099    1.833575   -0.225750
     61          6           0       15.666607    2.120149   -0.842928
     62          6           0       16.176608    3.507178   -0.533229
     63          6           0       17.544431    3.766465   -1.243350
     64          6           0       17.258371    3.789667   -2.760487
     65          6           0       17.947334    5.131331   -0.700006
     66          1           0       -2.841533    1.256325    3.875376
     67          1           0       -6.713875    5.485177    0.791672
     68          1           0       -8.865515    1.155746   -2.993128
     69          1           0       -3.827170   -3.332710    1.801122
     70          1           0       -1.891651   -1.455740    2.939952
     71          1           0       -3.106530   -2.684230    4.527852
     72          1           0       -3.577810   -0.988879    5.020537
     73          1           0       -4.688869   -1.912054    3.737885
     74          1           0       -2.296050   -3.259372   -0.079286
     75          1           0       -1.326975   -1.796279    0.406036
     76          1           0       -0.987325   -3.051309    2.357817
     77          1           0       -1.504700   -4.564665    1.696557
     78          1           0       -1.807427    3.694142    3.588088
     79          1           0       -2.742515    4.724786    4.740844
     80          1           0       -2.851193    3.032183    5.112396
     81          1           0       -5.123569    6.760147    2.157290
     82          1           0      -10.121156    3.040063   -3.180903
     83          1           0       -9.968841    4.765885   -2.948173
     84          1           0       -9.510189    4.312910   -5.241939
     85          1           0       -8.086513    4.871262   -4.579141
     86          1           0       -8.231418    3.289557   -4.965946
     87          1           0       -8.059980   -0.875367   -4.659523
     88          1           0       -8.393554   -2.708683   -3.954618
     89          1           0       -9.532173   -1.304305   -3.681314
     90          1           0       -4.080209   -3.777004   -1.387417
     91          1           0        2.473907   -6.140596    1.056081
     92          1           0        2.146707   -4.971898   -0.369216
     93          1           0        3.912151   -4.031679    2.008102
     94          1           0        2.405444   -3.277968   -1.312961
     95          1           0        4.240368   -2.168373   -1.663154
     96          1           0        4.188137   -4.079387   -1.796712
     97          1           0        4.756922   -1.355853    0.332917
     98          1           0        5.406758   -2.566731    1.703048
     99          1           0        6.527699   -3.604804    0.125255
    100          1           0        6.458630   -2.402563   -1.155018
    101          1           0        7.550619   -0.530451    0.419725
    102          1           0        7.393476   -1.889373    1.569528
    103          1           0        8.926685   -1.773510   -1.259062
    104          1           0        8.920880   -4.357012   -0.002924
    105          1           0       10.392668   -3.517651   -0.611114
    106          1           0        9.783823   -3.517026    1.144828
    107          1           0        9.513333    0.033381   -0.127207
    108          1           0        9.965444   -0.924644    1.544582
    109          1           0       11.912691   -1.665479   -0.104399
    110          1           0       11.116402   -0.604535   -1.704592
    111          1           0       11.805747    1.528985   -0.113248
    112          1           0       12.433814    0.140514    1.212047
    113          1           0       13.501391    0.622854   -1.751204
    114          1           0       14.725527   -0.929988    0.713623
    115          1           0       14.130074   -1.724529   -0.722373
    116          1           0       15.574444   -0.636083   -0.932354
    117          1           0       13.746781    2.816650   -0.302885
    118          1           0       14.497517    1.751272    0.952414
    119          1           0       16.428244    1.274256   -0.478487
    120          1           0       15.460500    2.212489   -1.889204
    121          1           0       15.439249    4.282335   -0.835270
    122          1           0       16.503957    3.449026    0.498259
    123          1           0       18.345365    3.072821   -1.095170
    124          1           0       16.525580    4.587986   -2.780318
    125          1           0       18.083785    4.136391   -3.428257
    126          1           0       16.888617    2.756136   -3.324419
    127          1           0       17.922371    4.904705    0.395559
    128          1           0       18.853087    5.256615   -1.143827
    129          1           0       17.303299    6.007913   -0.990675
    130          1           0       -5.377036   -7.930764   -0.154180
    131          1           0       -6.332938   -6.932428    1.049317
    132          1           0       -4.526877   -7.086351    1.279196
    133          8           0       -7.933573    6.894727   -0.501106
    134          1           0       -9.151501    6.349415   -1.839924
 ---------------------------------------------------------------------

 SCF Done:  E(RCAM-B3LYP) =  -3043.48138096     A.U. after   16 cycles

 Excitation energies and oscillator strengths:

 Excited State   1:      Singlet-A      2.0145 eV  615.47 nm  f=0.2029  <S**2>=0.000
     243 -> 246        0.25168
     244 -> 245        0.64782
 This state for optimization and/or second-order correction.
 Total Energy, E(TD-HF/TD-KS) =  -3043.40735029
 Copying the excited state density for this state as the 1-particle RhoCI density.

 The electronic state is 1-A.
 Alpha  occ. eigenvalues --  -46.81206 -19.22855 -19.21808 -19.18579 -19.17479
 Alpha  occ. eigenvalues --  -19.17460 -19.17265 -19.16020 -14.39491 -14.37615
 Alpha  occ. eigenvalues --  -14.36674 -14.36231 -10.36688 -10.35565 -10.32575
 Alpha  occ. eigenvalues --  -10.30667 -10.29329 -10.28525 -10.28353 -10.28106
 Alpha  occ. eigenvalues --  -10.27959 -10.27695 -10.27597 -10.25707 -10.25668
 Alpha  occ. eigenvalues --  -10.25633 -10.25600 -10.25543 -10.25461 -10.25082
 Alpha  occ. eigenvalues --  -10.24664 -10.24618 -10.24505 -10.24500 -10.24128
 Alpha  occ. eigenvalues --  -10.24082 -10.23920 -10.23894 -10.23883 -10.23868
 Alpha  occ. eigenvalues --  -10.23706 -10.23393 -10.23310 -10.23151 -10.23135
 Alpha  occ. eigenvalues --  -10.22959 -10.22923 -10.22849 -10.22766 -10.22712
 Alpha  occ. eigenvalues --  -10.22601 -10.22561 -10.22205 -10.22186 -10.21854
 Alpha  occ. eigenvalues --  -10.21760 -10.21661 -10.21206 -10.21168 -10.21031
 Alpha  occ. eigenvalues --  -10.20959 -10.20658 -10.20452 -10.20363 -10.20284
 Alpha  occ. eigenvalues --  -10.19655  -3.09904  -1.84828  -1.84374  -1.84332
 Alpha  occ. eigenvalues --   -1.12456  -1.10634  -1.06277  -1.04577  -1.04077
 Alpha  occ. eigenvalues --   -1.03891  -1.03538  -1.02298  -1.00204  -0.98410
 Alpha  occ. eigenvalues --   -0.96711  -0.88736  -0.87613  -0.86645  -0.86142
 Alpha  occ. eigenvalues --   -0.85365  -0.84901  -0.84467  -0.84442  -0.83735
 Alpha  occ. eigenvalues --   -0.82898  -0.82808  -0.81707  -0.80312  -0.79884
 Alpha  occ. eigenvalues --   -0.79615  -0.78628  -0.78264  -0.77126  -0.76311
 Alpha  occ. eigenvalues --   -0.75375  -0.75046  -0.73872  -0.72985  -0.71988
 Alpha  occ. eigenvalues --   -0.70734  -0.70615  -0.70152  -0.69918  -0.69602
 Alpha  occ. eigenvalues --   -0.69337  -0.68951  -0.68363  -0.67106  -0.66462
 Alpha  occ. eigenvalues --   -0.65898  -0.64672  -0.64588  -0.62455  -0.62156
 Alpha  occ. eigenvalues --   -0.61390  -0.60872  -0.59532  -0.59190  -0.59099
 Alpha  occ. eigenvalues --   -0.58388  -0.57812  -0.57582  -0.57317  -0.56435
 Alpha  occ. eigenvalues --   -0.56353  -0.55721  -0.55456  -0.55211  -0.54528
 Alpha  occ. eigenvalues --   -0.54424  -0.54042  -0.53185  -0.52959  -0.52686
 Alpha  occ. eigenvalues --   -0.52347  -0.51885  -0.51436  -0.51180  -0.50887
 Alpha  occ. eigenvalues --   -0.50712  -0.49960  -0.49861  -0.49608  -0.49169
 Alpha  occ. eigenvalues --   -0.48992  -0.48700  -0.48544  -0.48031  -0.47929
 Alpha  occ. eigenvalues --   -0.47656  -0.47490  -0.47378  -0.47040  -0.46990
 Alpha  occ. eigenvalues --   -0.46855  -0.46263  -0.46182  -0.46174  -0.45848
 Alpha  occ. eigenvalues --   -0.45629  -0.45521  -0.45062  -0.44932  -0.44783
 Alpha  occ. eigenvalues --   -0.44610  -0.44554  -0.44146  -0.43781  -0.43543
 Alpha  occ. eigenvalues --   -0.43399  -0.43254  -0.43204  -0.42943  -0.42685
 Alpha  occ. eigenvalues --   -0.42561  -0.42215  -0.42089  -0.41783  -0.41669
 Alpha  occ. eigenvalues --   -0.41653  -0.41246  -0.40974  -0.40557  -0.40548
 Alpha  occ. eigenvalues --   -0.40306  -0.40161  -0.40121  -0.39874  -0.39837
 Alpha  occ. eigenvalues --   -0.39777  -0.39639  -0.39338  -0.38997  -0.38769
 Alpha  occ. eigenvalues --   -0.38688  -0.38615  -0.38477  -0.38196  -0.38079
 Alpha  occ. eigenvalues --   -0.37642  -0.37498  -0.37354  -0.37038  -0.37018
 Alpha  occ. eigenvalues --   -0.36766  -0.36512  -0.36041  -0.35840  -0.35819
 Alpha  occ. eigenvalues --   -0.35342  -0.35271  -0.35102  -0.35040  -0.34616
 Alpha  occ. eigenvalues --   -0.34215  -0.34052  -0.33822  -0.33480  -0.33006
 Alpha  occ. eigenvalues --   -0.32600  -0.32562  -0.32210  -0.31954  -0.31504
 Alpha  occ. eigenvalues --   -0.31295  -0.31242  -0.30471  -0.30300  -0.30089
 Alpha  occ. eigenvalues --   -0.29168  -0.28507  -0.28006  -0.27863  -0.27457
 Alpha  occ. eigenvalues --   -0.27069  -0.26697  -0.23080  -0.21852
 Alpha virt. eigenvalues --   -0.08965  -0.06522  -0.02573  -0.00811  -0.00213
 Alpha virt. eigenvalues --    0.01592   0.02021   0.03113   0.03881   0.03906
 Alpha virt. eigenvalues --    0.04777   0.05566   0.08075   0.08723   0.08908

 Mulliken charges:
               1
     1  Mg   0.830662
     2  C    0.032277
     3  C   -0.185578
     4  C   -0.154739
     5  C   -0.186962
     6  N   -0.641887
     7  C    0.322128
     8  C   -0.173987
     9  C   -0.160207
    10  C    0.356751
    11  C   -0.295213
    12  C   -0.172606
    13  C   -0.252846
    14  C    0.605847
    15  O   -0.471530
    16  O   -0.452203
    17  N   -0.722810
    18  C    0.276967
    19  C    0.061892
    20  C   -0.019922
    21  C    0.313775
    22  C   -0.385462
    23  C    0.220765
    24  O   -0.443817
    25  N   -0.658305
    26  C    0.342535
    27  C   -0.083834
    28  C    0.070964
    29  C    0.265669
    30  C    0.260928
    31  C   -0.250486
    32  C   -0.320034
    33  N   -0.721853
    34  C    0.271326
    35  C    0.028612
    36  C    0.067239
    37  C    0.312342
    38  C   -0.385260
    39  C    0.342024
    40  O   -0.481292
    41  C   -0.305212
    42  C    0.626226
    43  O   -0.485384
    44  O   -0.472961
    45  C   -0.084060
    46  C   -0.013402
    47  C   -0.114047
    48  C    0.134437
    49  C   -0.364125
    50  C   -0.238720
    51  C   -0.181005
    52  C   -0.166713
    53  C   -0.054346
    54  C   -0.315508
    55  C   -0.147700
    56  C   -0.164957
    57  C   -0.147381
    58  C   -0.029695
    59  C   -0.310970
    60  C   -0.171079
    61  C   -0.159949
    62  C   -0.166008
    63  C   -0.077236
    64  C   -0.300764
    65  C   -0.290290
    66  H    0.094700
    67  H    0.129828
    68  H    0.090533
    69  H    0.140318
    70  H    0.102806
    71  H    0.115721
    72  H    0.123104
    73  H    0.097354
    74  H    0.117599
    75  H    0.110845
    76  H    0.133234
    77  H    0.130724
    78  H    0.134803
    79  H    0.165124
    80  H    0.097802
    81  H    0.089994
    82  H    0.115442
    83  H    0.113656
    84  H    0.105166
    85  H    0.103875
    86  H    0.127108
    87  H    0.125642
    88  H    0.134480
    89  H    0.135380
    90  H    0.175818
    91  H    0.100678
    92  H    0.116298
    93  H    0.068593
    94  H    0.153386
    95  H    0.092717
    96  H    0.111921
    97  H    0.108450
    98  H    0.097303
    99  H    0.111384
   100  H    0.102106
   101  H    0.072087
   102  H    0.070398
   103  H    0.076557
   104  H    0.103440
   105  H    0.102959
   106  H    0.093678
   107  H    0.108573
   108  H    0.073868
   109  H    0.100349
   110  H    0.040435
   111  H    0.081606
   112  H    0.067492
   113  H    0.068606
   114  H    0.091301
   115  H    0.124797
   116  H    0.067485
   117  H    0.078633
   118  H    0.056397
   119  H    0.078341
   120  H    0.096892
   121  H    0.091478
   122  H    0.091416
   123  H    0.094472
   124  H    0.097394
   125  H    0.088493
   126  H    0.084278
   127  H    0.098729
   128  H    0.105243
   129  H    0.094482
   130  H    0.138622
   131  H    0.145661
   132  H    0.121797
   133  O   -0.422216
   134  H    0.081350
 Sum of Mulliken charges =   0.00000

 Dipole moment (field-independent basis, Debye):
    X=              2.1326    Y=             -4.0744    Z=             -0.9341  Tot=              4.6927
 Quadrupole moment (field-independent basis, Debye-Ang):
   XX=           -363.2978   YY=           -440.1460   ZZ=           -396.7940
   XY=              2.4911   XZ=             22.7340   YZ=            -42.3989

 Normal termination of Gaussian 09 at Thu Oct  3 18:13:26 2019.
