 Gaussian 09, Revision D.01,
 Gaussian 09:  ES64L-G09RevD.01 24-Apr-2013

 ----------------------------------------------------------------------
 # td=(NStates=1) iop(3/107=0140000000,3/108=0140000000) iop(3/107=0140
 000000,3/108=0140000000) CAM-B3LYP/6-31G(d,p)
 ----------------------------------------------------------------------

 --
 TD
 --
 Symbolic Z-matrix:
 Charge =  0 Multiplicity = 1

                         Standard orientation:
 ---------------------------------------------------------------------
 Center     Atomic      Atomic             Coordinates (Angstroms)
 Number     Number       Type             X           Y           Z
 ---------------------------------------------------------------------
      1         12           0       -5.672622    1.263030    0.240116
      2          6           0       -5.111337   -2.113802   -0.271677
      3          6           0       -3.310647    1.211721    2.821607
      4          6           0       -6.195876    4.553320    0.657891
      5          6           0       -8.017173    1.173457   -2.301202
      6          7           0       -4.425116   -0.279002    1.126633
      7          6           0       -4.216292   -1.564236    0.728863
      8          6           0       -3.132857   -2.267506    1.410726
      9          6           0       -2.819805   -1.222810    2.556759
     10          6           0       -3.551088    0.036641    2.137112
     11          6           0       -3.280942   -1.681180    3.994904
     12          6           0       -1.917974   -2.687204    0.500578
     13          6           0       -0.920531   -3.610980    1.282258
     14          6           0        0.384943   -3.902323    0.588634
     15          8           0        0.766702   -3.399730   -0.443751
     16          8           0        1.060291   -4.932325    1.278031
     17          7           0       -4.939300    2.596382    1.473813
     18          6           0       -3.899631    2.429487    2.398632
     19          6           0       -3.569901    3.699971    3.051965
     20          6           0       -4.421400    4.628739    2.477012
     21          6           0       -5.213829    3.988140    1.409047
     22          6           0       -2.622799    3.928613    4.143778
     23          6           0       -4.653029    6.055976    2.862163
     24          8           0       -4.045075    6.636305    3.782383
     25          7           0       -6.971643    2.595838   -0.630454
     26          6           0       -6.926000    3.921213   -0.339449
     27          6           0       -7.882074    4.571684   -1.134882
     28          6           0       -8.413964    3.665652   -2.041352
     29          6           0       -7.812676    2.340700   -1.617361
     30          6           0       -8.328987    5.974466   -1.076290
     31          6           0       -9.489841    3.856213   -3.032736
     32          6           0       -8.938452    3.870728   -4.506808
     33          7           0       -6.390786   -0.075124   -1.083299
     34          6           0       -7.348998   -0.105049   -2.032479
     35          6           0       -7.581832   -1.364449   -2.710087
     36          6           0       -6.674993   -2.172239   -2.091280
     37          6           0       -6.059376   -1.413735   -1.080852
     38          6           0       -8.519175   -1.561817   -3.872653
     39          6           0       -6.209669   -3.573962   -2.034649
     40          8           0       -6.441666   -4.628324   -2.617958
     41          6           0       -5.028427   -3.546126   -0.874529
     42          6           0       -5.361947   -4.615336    0.134651
     43          8           0       -5.705259   -4.503669    1.306295
     44          8           0       -5.141450   -5.893741   -0.398072
     45          6           0       -5.365593   -6.995598    0.510192
     46          6           0        2.280442   -5.214240    0.669495
     47          6           0        3.352998   -4.295831    0.966263
     48          6           0        4.042540   -3.325930    0.172259
     49          6           0        3.701704   -3.285431   -1.348219
     50          6           0        5.040524   -2.424965    0.720734
     51          6           0        6.425316   -2.680554    0.029791
     52          6           0        7.506397   -1.817673    0.726905
     53          6           0        8.855465   -1.939726    0.011439
     54          6           0        9.539195   -3.312100    0.229709
     55          6           0        9.940556   -0.873704    0.426382
     56          6           0       11.314657   -0.815246   -0.308030
     57          6           0       12.169393    0.378132    0.237785
     58          6           0       13.556348    0.420383   -0.513153
     59          6           0       14.320201   -0.683777   -0.187568
     60          6           0       14.154821    1.826814   -0.148982
     61          6           0       15.399229    2.185722   -1.005530
     62          6           0       16.008716    3.730480   -0.635670
     63          6           0       17.397495    3.775353   -1.488269
     64          6           0       17.066360    3.996845   -2.891294
     65          6           0       18.182544    5.052185   -0.992322
     66          1           0       -2.462984    1.359397    3.481455
     67          1           0       -6.361878    5.660033    0.592054
     68          1           0       -8.773827    1.277414   -3.177830
     69          1           0       -3.741129   -3.130019    1.921661
     70          1           0       -1.740376   -1.260949    2.793160
     71          1           0       -2.892203   -2.775740    4.074318
     72          1           0       -3.016387   -1.042011    4.936782
     73          1           0       -4.229446   -1.822938    4.022570
     74          1           0       -2.179378   -2.870149   -0.526958
     75          1           0       -1.209929   -1.756011    0.203333
     76          1           0       -0.689597   -2.849041    2.250584
     77          1           0       -1.568365   -4.314906    1.601219
     78          1           0       -1.742116    3.744918    3.677431
     79          1           0       -2.800792    4.857483    4.501211
     80          1           0       -2.912152    3.317741    5.102960
     81          1           0       -5.287766    6.552421    2.090215
     82          1           0      -10.316513    2.919151   -2.992872
     83          1           0      -10.185055    4.845759   -3.130402
     84          1           0       -9.813305    4.136000   -5.200025
     85          1           0       -8.347615    4.857829   -4.433718
     86          1           0       -8.348147    3.200506   -4.990617
     87          1           0       -8.345475   -0.716717   -4.709645
     88          1           0       -8.501565   -2.662632   -4.159156
     89          1           0       -9.599405   -1.527289   -3.598703
     90          1           0       -4.063839   -3.749677   -1.530977
     91          1           0        2.638338   -6.225195    1.065830
     92          1           0        2.053343   -5.317655   -0.487573
     93          1           0        3.297141   -4.347317    1.980616
     94          1           0        2.758872   -3.520789   -1.516468
     95          1           0        3.790776   -2.225486   -1.692973
     96          1           0        4.616908   -3.380421   -1.988994
     97          1           0        4.648144   -1.473126    0.236766
     98          1           0        5.265092   -2.304710    1.812451
     99          1           0        6.584685   -3.721904    0.126848
    100          1           0        6.463338   -2.318618   -1.118267
    101          1           0        7.130377   -0.756111    0.601124
    102          1           0        7.638378   -2.221432    1.799705
    103          1           0        8.684209   -1.810175   -1.037735
    104          1           0        8.943398   -4.127898   -0.100250
    105          1           0       10.463124   -3.437833   -0.444857
    106          1           0        9.868269   -3.521165    1.251871
    107          1           0        9.572227    0.223172    0.066200
    108          1           0       10.088796   -1.277941    1.525189
    109          1           0       11.609857   -1.884189   -0.206109
    110          1           0       11.113892   -0.624333   -1.367407
    111          1           0       11.712965    1.263751    0.286057
    112          1           0       12.676817    0.344974    1.287547
    113          1           0       13.389760    0.530302   -1.617010
    114          1           0       14.535492   -0.771091    1.005836
    115          1           0       13.921796   -1.617188   -0.366689
    116          1           0       15.358943   -0.592779   -0.514176
    117          1           0       13.350115    2.724184   -0.030202
    118          1           0       14.510760    1.682925    0.920098
    119          1           0       16.070877    1.355357   -0.825214
    120          1           0       15.177057    2.279226   -2.174105
    121          1           0       15.299971    4.405616   -1.249967
    122          1           0       16.209210    3.749410    0.289253
    123          1           0       18.006936    2.857106   -1.280742
    124          1           0       16.331488    4.809048   -3.059814
    125          1           0       17.992547    4.173346   -3.412412
    126          1           0       16.882355    3.031545   -3.546276
    127          1           0       18.338550    4.955228    0.111903
    128          1           0       19.175909    5.475681   -1.525764
    129          1           0       17.509975    5.814349   -1.090925
    130          1           0       -5.048260   -7.791492   -0.033963
    131          1           0       -6.323388   -7.191940    0.657538
    132          1           0       -5.002846   -6.946477    1.463586
    133          8           0       -7.852431    6.844985   -0.391706
    134          1           0       -9.202817    6.239801   -1.729879
 ---------------------------------------------------------------------

 SCF Done:  E(RCAM-B3LYP) =  -3043.41144387     A.U. after   16 cycles

 Excitation energies and oscillator strengths:

 Excited State   1:      Singlet-A      1.9814 eV  625.73 nm  f=0.2203  <S**2>=0.000
     243 -> 246       -0.25309
     244 -> 245        0.65460
 This state for optimization and/or second-order correction.
 Total Energy, E(TD-HF/TD-KS) =  -3043.33862752
 Copying the excited state density for this state as the 1-particle RhoCI density.

 The electronic state is 1-A.
 Alpha  occ. eigenvalues --  -46.81274 -19.22562 -19.21310 -19.19218 -19.18226
 Alpha  occ. eigenvalues --  -19.17794 -19.17487 -19.17484 -14.39515 -14.37294
 Alpha  occ. eigenvalues --  -14.37288 -14.36782 -10.36539 -10.35258 -10.32731
 Alpha  occ. eigenvalues --  -10.30817 -10.30717 -10.28158 -10.27924 -10.27156
 Alpha  occ. eigenvalues --  -10.26929 -10.26783 -10.26753 -10.26716 -10.26395
 Alpha  occ. eigenvalues --  -10.26324 -10.26184 -10.26010 -10.25493 -10.25378
 Alpha  occ. eigenvalues --  -10.25361 -10.25252 -10.25057 -10.24906 -10.24886
 Alpha  occ. eigenvalues --  -10.24710 -10.24693 -10.24324 -10.24127 -10.23806
 Alpha  occ. eigenvalues --  -10.23397 -10.23369 -10.23209 -10.23143 -10.22797
 Alpha  occ. eigenvalues --  -10.22676 -10.22308 -10.22264 -10.22258 -10.22240
 Alpha  occ. eigenvalues --  -10.22141 -10.21969 -10.21866 -10.21778 -10.21541
 Alpha  occ. eigenvalues --  -10.21291 -10.21088 -10.20902 -10.20706 -10.20502
 Alpha  occ. eigenvalues --  -10.20427 -10.20374 -10.20244 -10.20203 -10.19986
 Alpha  occ. eigenvalues --  -10.19609  -3.10008  -1.84932  -1.84488  -1.84429
 Alpha  occ. eigenvalues --   -1.13668  -1.11437  -1.08178  -1.07040  -1.06438
 Alpha  occ. eigenvalues --   -1.05223  -1.03367  -1.01757  -1.00857  -1.00336
 Alpha  occ. eigenvalues --   -0.97856  -0.87958  -0.85837  -0.85699  -0.85556
 Alpha  occ. eigenvalues --   -0.85316  -0.84757  -0.84548  -0.83768  -0.83601
 Alpha  occ. eigenvalues --   -0.83427  -0.83183  -0.81776  -0.80350  -0.79463
 Alpha  occ. eigenvalues --   -0.78992  -0.77974  -0.77614  -0.77352  -0.76136
 Alpha  occ. eigenvalues --   -0.75668  -0.75164  -0.74606  -0.73232  -0.72443
 Alpha  occ. eigenvalues --   -0.71621  -0.70713  -0.70371  -0.70013  -0.69509
 Alpha  occ. eigenvalues --   -0.69176  -0.68915  -0.67565  -0.66709  -0.66201
 Alpha  occ. eigenvalues --   -0.66148  -0.64633  -0.64473  -0.62403  -0.62025
 Alpha  occ. eigenvalues --   -0.61538  -0.61141  -0.59990  -0.59087  -0.58920
 Alpha  occ. eigenvalues --   -0.58583  -0.58231  -0.57954  -0.57528  -0.57155
 Alpha  occ. eigenvalues --   -0.56835  -0.56362  -0.55908  -0.55522  -0.55064
 Alpha  occ. eigenvalues --   -0.54106  -0.53500  -0.52871  -0.52674  -0.52100
 Alpha  occ. eigenvalues --   -0.51713  -0.51533  -0.51428  -0.51396  -0.50909
 Alpha  occ. eigenvalues --   -0.50739  -0.50313  -0.49855  -0.49826  -0.49526
 Alpha  occ. eigenvalues --   -0.49105  -0.48984  -0.48749  -0.48544  -0.47747
 Alpha  occ. eigenvalues --   -0.47674  -0.47616  -0.47398  -0.47042  -0.46976
 Alpha  occ. eigenvalues --   -0.46628  -0.46539  -0.46367  -0.46043  -0.46017
 Alpha  occ. eigenvalues --   -0.45741  -0.45403  -0.45071  -0.44948  -0.44690
 Alpha  occ. eigenvalues --   -0.44619  -0.44435  -0.44244  -0.44164  -0.43920
 Alpha  occ. eigenvalues --   -0.43702  -0.43646  -0.42940  -0.42890  -0.42774
 Alpha  occ. eigenvalues --   -0.42533  -0.42296  -0.42169  -0.42016  -0.41888
 Alpha  occ. eigenvalues --   -0.41768  -0.41311  -0.41184  -0.40913  -0.40722
 Alpha  occ. eigenvalues --   -0.40646  -0.40545  -0.40528  -0.40292  -0.40012
 Alpha  occ. eigenvalues --   -0.39686  -0.39656  -0.39593  -0.39439  -0.39353
 Alpha  occ. eigenvalues --   -0.39217  -0.39017  -0.38768  -0.38755  -0.38382
 Alpha  occ. eigenvalues --   -0.38102  -0.37890  -0.37522  -0.37369  -0.37015
 Alpha  occ. eigenvalues --   -0.36638  -0.36568  -0.36086  -0.36083  -0.35675
 Alpha  occ. eigenvalues --   -0.35492  -0.35243  -0.35204  -0.34920  -0.34733
 Alpha  occ. eigenvalues --   -0.34543  -0.34214  -0.33411  -0.33391  -0.32992
 Alpha  occ. eigenvalues --   -0.32628  -0.32459  -0.32380  -0.32069  -0.31739
 Alpha  occ. eigenvalues --   -0.31552  -0.31050  -0.30841  -0.30064  -0.29464
 Alpha  occ. eigenvalues --   -0.28883  -0.28606  -0.28435  -0.28065  -0.27946
 Alpha  occ. eigenvalues --   -0.27720  -0.24929  -0.23343  -0.21362
 Alpha virt. eigenvalues --   -0.08716  -0.06525  -0.02385  -0.01080   0.00124
 Alpha virt. eigenvalues --    0.01486   0.02197   0.03225   0.03570   0.03996
 Alpha virt. eigenvalues --    0.04512   0.05287   0.06697   0.08042   0.08796

 Mulliken charges:
               1
     1  Mg   0.830745
     2  C    0.041248
     3  C   -0.164529
     4  C   -0.175424
     5  C   -0.185411
     6  N   -0.626787
     7  C    0.301429
     8  C   -0.159641
     9  C   -0.173153
    10  C    0.365218
    11  C   -0.312835
    12  C   -0.193575
    13  C   -0.245724
    14  C    0.627454
    15  O   -0.442599
    16  O   -0.459268
    17  N   -0.723599
    18  C    0.298852
    19  C    0.014439
    20  C   -0.033401
    21  C    0.300338
    22  C   -0.365185
    23  C    0.259124
    24  O   -0.431353
    25  N   -0.722705
    26  C    0.313739
    27  C   -0.037049
    28  C    0.049348
    29  C    0.332642
    30  C    0.257538
    31  C   -0.274552
    32  C   -0.313510
    33  N   -0.677684
    34  C    0.252960
    35  C    0.063774
    36  C    0.041767
    37  C    0.273798
    38  C   -0.389784
    39  C    0.353923
    40  O   -0.441396
    41  C   -0.342454
    42  C    0.636922
    43  O   -0.477434
    44  O   -0.468419
    45  C   -0.079865
    46  C   -0.009781
    47  C   -0.133830
    48  C    0.127240
    49  C   -0.360426
    50  C   -0.221794
    51  C   -0.174676
    52  C   -0.158494
    53  C   -0.061207
    54  C   -0.333013
    55  C   -0.154876
    56  C   -0.187659
    57  C   -0.145664
    58  C   -0.054192
    59  C   -0.290258
    60  C   -0.180014
    61  C   -0.189035
    62  C   -0.158610
    63  C   -0.056201
    64  C   -0.299793
    65  C   -0.306263
    66  H    0.099987
    67  H    0.144270
    68  H    0.089296
    69  H    0.142680
    70  H    0.106854
    71  H    0.091605
    72  H    0.107457
    73  H    0.140416
    74  H    0.126332
    75  H    0.101505
    76  H    0.113586
    77  H    0.152040
    78  H    0.136044
    79  H    0.164045
    80  H    0.111376
    81  H    0.090896
    82  H    0.090792
    83  H    0.116277
    84  H    0.099880
    85  H    0.102360
    86  H    0.128079
    87  H    0.121362
    88  H    0.143081
    89  H    0.135604
    90  H    0.160880
    91  H    0.103507
    92  H    0.090002
    93  H    0.077202
    94  H    0.151190
    95  H    0.093282
    96  H    0.114822
    97  H    0.101816
    98  H    0.106976
    99  H    0.115331
   100  H    0.071265
   101  H    0.093465
   102  H    0.081564
   103  H    0.078678
   104  H    0.106814
   105  H    0.094239
   106  H    0.104509
   107  H    0.060260
   108  H    0.076949
   109  H    0.093325
   110  H    0.096424
   111  H    0.094961
   112  H    0.073513
   113  H    0.078704
   114  H    0.063036
   115  H    0.120079
   116  H    0.099498
   117  H    0.067133
   118  H    0.077046
   119  H    0.096472
   120  H    0.080377
   121  H    0.095036
   122  H    0.095916
   123  H    0.086330
   124  H    0.103222
   125  H    0.103909
   126  H    0.082592
   127  H    0.088117
   128  H    0.078415
   129  H    0.111731
   130  H    0.122028
   131  H    0.129107
   132  H    0.127103
   133  O   -0.413284
   134  H    0.061257
 Sum of Mulliken charges =   0.00000

 Dipole moment (field-independent basis, Debye):
    X=              1.0875    Y=             -3.0042    Z=             -2.0422  Tot=              3.7919
 Quadrupole moment (field-independent basis, Debye-Ang):
   XX=           -375.7995   YY=           -447.6848   ZZ=           -393.7043
   XY=              3.7611   XZ=             23.4418   YZ=            -34.9233

 Normal termination of Gaussian 09 at Mon Oct  7 15:14:06 2019.
