 Gaussian 09, Revision D.01,
 Gaussian 09:  ES64L-G09RevD.01 24-Apr-2013

 ----------------------------------------------------------------------
 # td=(NStates=1) iop(3/107=0140000000,3/108=0140000000) iop(3/107=0140
 000000,3/108=0140000000) CAM-B3LYP/6-31G(d,p)
 ----------------------------------------------------------------------

 --
 TD
 --
 Symbolic Z-matrix:
 Charge =  0 Multiplicity = 1

                         Standard orientation:
 ---------------------------------------------------------------------
 Center     Atomic      Atomic             Coordinates (Angstroms)
 Number     Number       Type             X           Y           Z
 ---------------------------------------------------------------------
      1         12           0       -5.658644    1.101810    0.186868
      2          6           0       -4.996559   -2.154767   -0.314101
      3          6           0       -3.545451    1.151623    2.876890
      4          6           0       -6.403572    4.447491    0.688665
      5          6           0       -8.045053    1.033715   -2.463775
      6          7           0       -4.322461   -0.287085    1.008736
      7          6           0       -4.170925   -1.648140    0.638820
      8          6           0       -3.207059   -2.269186    1.473947
      9          6           0       -2.864560   -1.303308    2.571995
     10          6           0       -3.528572   -0.026716    2.120270
     11          6           0       -3.367661   -1.676827    3.973467
     12          6           0       -1.970297   -2.682198    0.509198
     13          6           0       -0.828396   -3.378730    1.394425
     14          6           0        0.396414   -3.735729    0.605129
     15          8           0        0.693547   -3.248802   -0.439852
     16          8           0        1.099897   -4.565405    1.238775
     17          7           0       -5.039742    2.616622    1.371246
     18          6           0       -4.198117    2.422764    2.513065
     19          6           0       -3.847063    3.650110    3.135513
     20          6           0       -4.666528    4.580650    2.633161
     21          6           0       -5.412520    3.911173    1.558110
     22          6           0       -2.925721    3.779684    4.190853
     23          6           0       -4.854477    5.955038    2.900840
     24          8           0       -4.168807    6.576883    3.817605
     25          7           0       -7.100270    2.511728   -0.674250
     26          6           0       -7.156303    3.790349   -0.252619
     27          6           0       -8.059498    4.486787   -1.215389
     28          6           0       -8.596650    3.582526   -2.177726
     29          6           0       -7.909525    2.326153   -1.768357
     30          6           0       -8.401385    5.922425   -1.140063
     31          6           0       -9.606148    3.638427   -3.277669
     32          6           0       -8.998544    3.899753   -4.672810
     33          7           0       -6.415401   -0.139707   -1.078501
     34          6           0       -7.421729   -0.114949   -2.067230
     35          6           0       -7.516554   -1.375594   -2.759868
     36          6           0       -6.744533   -2.175346   -1.968820
     37          6           0       -6.011316   -1.409425   -1.030568
     38          6           0       -8.371967   -1.837607   -3.742772
     39          6           0       -6.117711   -3.591329   -1.940744
     40          8           0       -6.476173   -4.511921   -2.650478
     41          6           0       -4.985813   -3.549698   -0.883798
     42          6           0       -5.239194   -4.630586    0.189976
     43          8           0       -5.706869   -4.300640    1.294634
     44          8           0       -4.937191   -5.844908   -0.261135
     45          6           0       -5.404814   -6.892979    0.527477
     46          6           0        2.401361   -4.974718    0.665379
     47          6           0        3.512042   -4.074808    1.040222
     48          6           0        4.035158   -3.184223    0.159226
     49          6           0        3.704495   -3.016904   -1.284736
     50          6           0        5.072184   -2.242434    0.714027
     51          6           0        6.572682   -2.572771    0.099092
     52          6           0        7.689030   -1.733330    0.638483
     53          6           0        9.136383   -1.916831    0.038040
     54          6           0        9.683827   -3.365283    0.116516
     55          6           0       10.092286   -0.856903    0.434583
     56          6           0       11.436994   -0.883615   -0.164420
     57          6           0       12.332354    0.280092    0.154918
     58          6           0       13.681620    0.411552   -0.536269
     59          6           0       14.530050   -0.766024   -0.356840
     60          6           0       14.357213    1.829380   -0.122131
     61          6           0       15.546763    2.188051   -1.021836
     62          6           0       16.190723    3.412768   -0.674230
     63          6           0       17.488215    3.907643   -1.464754
     64          6           0       17.209969    3.994327   -2.879792
     65          6           0       18.041472    5.195350   -0.826032
     66          1           0       -2.851813    1.234357    3.578057
     67          1           0       -6.766251    5.419180    0.731511
     68          1           0       -8.512645    1.059080   -3.603918
     69          1           0       -3.734102   -3.237389    1.998173
     70          1           0       -1.961682   -1.083108    2.603652
     71          1           0       -2.758504   -2.654215    4.269824
     72          1           0       -3.125628   -0.847057    4.792221
     73          1           0       -4.385017   -1.812537    4.030464
     74          1           0       -2.431284   -3.217593   -0.224811
     75          1           0       -1.664318   -1.767791   -0.024221
     76          1           0       -0.580493   -2.425210    2.093901
     77          1           0       -1.231572   -4.313433    2.052973
     78          1           0       -1.938104    3.407880    3.750743
     79          1           0       -2.843759    4.892503    4.546791
     80          1           0       -3.422632    3.017734    4.886917
     81          1           0       -5.635521    6.496023    2.281664
     82          1           0      -10.370520    2.885298   -3.264541
     83          1           0      -10.117791    4.420266   -3.096664
     84          1           0       -9.775698    3.930127   -5.566294
     85          1           0       -8.119219    4.732357   -4.414451
     86          1           0       -8.579622    3.115601   -4.924341
     87          1           0       -8.384848   -1.187120   -4.716016
     88          1           0       -8.053830   -2.798083   -4.133679
     89          1           0       -9.480837   -2.012687   -3.391511
     90          1           0       -4.039955   -3.669753   -1.284163
     91          1           0        2.528260   -6.051295    0.919872
     92          1           0        2.218633   -5.111332   -0.309080
     93          1           0        3.730823   -4.005749    2.053480
     94          1           0        2.766069   -3.287089   -1.472363
     95          1           0        3.890212   -1.897505   -1.796324
     96          1           0        4.410986   -3.730867   -1.672049
     97          1           0        4.798832   -1.311864    0.149720
     98          1           0        5.067314   -2.114475    1.784235
     99          1           0        6.627331   -3.619896    0.149683
    100          1           0        6.618347   -2.525681   -0.964969
    101          1           0        7.481060   -0.747891    0.652496
    102          1           0        7.671546   -1.861699    1.753626
    103          1           0        9.010054   -1.814498   -1.026336
    104          1           0        9.078975   -4.217120   -0.319126
    105          1           0       10.641732   -3.368698   -0.337485
    106          1           0        9.787899   -3.768192    1.259747
    107          1           0        9.605247    0.063265    0.367779
    108          1           0        9.866687   -0.871438    1.547203
    109          1           0       11.979868   -1.864175    0.113325
    110          1           0       11.111027   -0.887348   -1.378366
    111          1           0       11.720147    1.245267   -0.109047
    112          1           0       12.681009    0.458339    1.251320
    113          1           0       13.337153    0.304946   -1.554907
    114          1           0       14.511205   -0.780552    0.773473
    115          1           0       14.183548   -1.610250   -0.972057
    116          1           0       15.564819   -0.559910   -0.738960
    117          1           0       13.673941    2.706431    0.086660
    118          1           0       14.910773    1.600634    0.745024
    119          1           0       16.358758    1.488134   -0.912779
    120          1           0       15.238133    2.183178   -1.948127
    121          1           0       15.413444    4.216562   -0.719303
    122          1           0       16.510781    3.516963    0.550866
    123          1           0       18.257734    3.248857   -1.406102
    124          1           0       16.635518    4.656234   -3.251650
    125          1           0       18.119678    4.432560   -3.371616
    126          1           0       17.106789    3.021551   -3.454724
    127          1           0       18.388949    5.067216    0.243765
    128          1           0       18.820769    5.672344   -1.449419
    129          1           0       17.188592    5.979878   -0.826569
    130          1           0       -5.024396   -7.780713   -0.021607
    131          1           0       -6.409227   -6.879624    0.986845
    132          1           0       -4.661101   -6.929273    1.285362
    133          8           0       -7.969803    6.810890   -0.469646
    134          1           0       -9.302371    6.147703   -1.835683
 ---------------------------------------------------------------------

 SCF Done:  E(RCAM-B3LYP) =  -3043.38827346     A.U. after   16 cycles

 Excitation energies and oscillator strengths:

 Excited State   1:      Singlet-A      1.9587 eV  632.99 nm  f=0.1913  <S**2>=0.000
     243 -> 246       -0.24750
     244 -> 245        0.65419
 This state for optimization and/or second-order correction.
 Total Energy, E(TD-HF/TD-KS) =  -3043.31629181
 Copying the excited state density for this state as the 1-particle RhoCI density.

 The electronic state is 1-A.
 Alpha  occ. eigenvalues --  -46.80899 -19.25026 -19.22477 -19.18365 -19.18064
 Alpha  occ. eigenvalues --  -19.16987 -19.16028 -19.15721 -14.38298 -14.37316
 Alpha  occ. eigenvalues --  -14.36683 -14.36336 -10.36597 -10.33955 -10.32436
 Alpha  occ. eigenvalues --  -10.29901 -10.29830 -10.28048 -10.27199 -10.27123
 Alpha  occ. eigenvalues --  -10.26841 -10.26765 -10.26368 -10.26272 -10.26117
 Alpha  occ. eigenvalues --  -10.26098 -10.26066 -10.25868 -10.25454 -10.25158
 Alpha  occ. eigenvalues --  -10.24867 -10.24356 -10.24204 -10.23831 -10.23805
 Alpha  occ. eigenvalues --  -10.23760 -10.23387 -10.23340 -10.23176 -10.23171
 Alpha  occ. eigenvalues --  -10.23154 -10.22545 -10.22364 -10.22333 -10.22316
 Alpha  occ. eigenvalues --  -10.22208 -10.22118 -10.22036 -10.22010 -10.21750
 Alpha  occ. eigenvalues --  -10.21655 -10.21638 -10.21459 -10.21319 -10.21181
 Alpha  occ. eigenvalues --  -10.21158 -10.21141 -10.21078 -10.21041 -10.20930
 Alpha  occ. eigenvalues --  -10.20779 -10.20536 -10.20470 -10.20170 -10.18679
 Alpha  occ. eigenvalues --  -10.18603  -3.09598  -1.84526  -1.84091  -1.84004
 Alpha  occ. eigenvalues --   -1.16272  -1.16202  -1.07778  -1.07712  -1.05692
 Alpha  occ. eigenvalues --   -1.05316  -1.01561  -1.00682  -0.99369  -0.98830
 Alpha  occ. eigenvalues --   -0.98068  -0.88850  -0.86749  -0.86353  -0.86049
 Alpha  occ. eigenvalues --   -0.85631  -0.85513  -0.85235  -0.84843  -0.84023
 Alpha  occ. eigenvalues --   -0.83707  -0.83087  -0.81819  -0.81037  -0.80562
 Alpha  occ. eigenvalues --   -0.79673  -0.78952  -0.78452  -0.78139  -0.77536
 Alpha  occ. eigenvalues --   -0.75677  -0.75505  -0.74374  -0.73627  -0.72600
 Alpha  occ. eigenvalues --   -0.72165  -0.71666  -0.70981  -0.70214  -0.69785
 Alpha  occ. eigenvalues --   -0.69670  -0.69312  -0.68231  -0.67356  -0.66607
 Alpha  occ. eigenvalues --   -0.65670  -0.65465  -0.63645  -0.63349  -0.62609
 Alpha  occ. eigenvalues --   -0.62017  -0.61762  -0.61568  -0.60057  -0.59791
 Alpha  occ. eigenvalues --   -0.59372  -0.59073  -0.57625  -0.57376  -0.57246
 Alpha  occ. eigenvalues --   -0.56797  -0.56458  -0.55931  -0.55725  -0.54602
 Alpha  occ. eigenvalues --   -0.54360  -0.53669  -0.52935  -0.52849  -0.52543
 Alpha  occ. eigenvalues --   -0.52214  -0.51854  -0.51666  -0.51072  -0.50885
 Alpha  occ. eigenvalues --   -0.50720  -0.50440  -0.50058  -0.49982  -0.49893
 Alpha  occ. eigenvalues --   -0.49228  -0.48811  -0.48616  -0.48453  -0.48228
 Alpha  occ. eigenvalues --   -0.47992  -0.47839  -0.47632  -0.47277  -0.47043
 Alpha  occ. eigenvalues --   -0.46886  -0.46703  -0.46227  -0.46123  -0.45867
 Alpha  occ. eigenvalues --   -0.45514  -0.45365  -0.45311  -0.45200  -0.44910
 Alpha  occ. eigenvalues --   -0.44795  -0.44509  -0.44241  -0.44034  -0.43849
 Alpha  occ. eigenvalues --   -0.43426  -0.43401  -0.43177  -0.43077  -0.42928
 Alpha  occ. eigenvalues --   -0.42788  -0.42637  -0.42459  -0.42105  -0.41997
 Alpha  occ. eigenvalues --   -0.41799  -0.41467  -0.41350  -0.41308  -0.41070
 Alpha  occ. eigenvalues --   -0.41014  -0.40865  -0.40565  -0.40324  -0.40200
 Alpha  occ. eigenvalues --   -0.39999  -0.39944  -0.39876  -0.39720  -0.39304
 Alpha  occ. eigenvalues --   -0.38920  -0.38886  -0.38719  -0.38563  -0.38272
 Alpha  occ. eigenvalues --   -0.38222  -0.38136  -0.37551  -0.37507  -0.37444
 Alpha  occ. eigenvalues --   -0.37252  -0.37126  -0.36809  -0.36204  -0.36134
 Alpha  occ. eigenvalues --   -0.35883  -0.35513  -0.35418  -0.35133  -0.34455
 Alpha  occ. eigenvalues --   -0.34143  -0.33963  -0.33887  -0.33873  -0.33445
 Alpha  occ. eigenvalues --   -0.33282  -0.33131  -0.31984  -0.31783  -0.31451
 Alpha  occ. eigenvalues --   -0.31432  -0.30722  -0.30397  -0.30295  -0.29643
 Alpha  occ. eigenvalues --   -0.28722  -0.28224  -0.27875  -0.27620  -0.27162
 Alpha  occ. eigenvalues --   -0.27009  -0.26890  -0.22974  -0.21103
 Alpha virt. eigenvalues --   -0.08431  -0.06374  -0.01541  -0.00573   0.00590
 Alpha virt. eigenvalues --    0.02395   0.02857   0.03822   0.03992   0.04861
 Alpha virt. eigenvalues --    0.05143   0.05729   0.07689   0.07764   0.09111

 Mulliken charges:
               1
     1  Mg   0.819322
     2  C    0.068892
     3  C   -0.179094
     4  C   -0.157719
     5  C   -0.175803
     6  N   -0.649321
     7  C    0.345714
     8  C   -0.200767
     9  C   -0.079664
    10  C    0.296726
    11  C   -0.300267
    12  C   -0.183083
    13  C   -0.265641
    14  C    0.604840
    15  O   -0.481322
    16  O   -0.427228
    17  N   -0.668548
    18  C    0.257038
    19  C    0.073402
    20  C    0.059143
    21  C    0.286226
    22  C   -0.393308
    23  C    0.198152
    24  O   -0.467559
    25  N   -0.667882
    26  C    0.335185
    27  C   -0.087218
    28  C    0.029427
    29  C    0.246936
    30  C    0.245984
    31  C   -0.233281
    32  C   -0.299954
    33  N   -0.756726
    34  C    0.269630
    35  C    0.091486
    36  C   -0.039005
    37  C    0.352129
    38  C   -0.411327
    39  C    0.382460
    40  O   -0.448919
    41  C   -0.321591
    42  C    0.617588
    43  O   -0.475812
    44  O   -0.411413
    45  C   -0.103486
    46  C   -0.006635
    47  C   -0.138274
    48  C    0.129795
    49  C   -0.352844
    50  C   -0.229817
    51  C   -0.194120
    52  C   -0.176570
    53  C   -0.056645
    54  C   -0.307205
    55  C   -0.158718
    56  C   -0.167533
    57  C   -0.162851
    58  C   -0.063570
    59  C   -0.300469
    60  C   -0.186025
    61  C   -0.161233
    62  C   -0.159753
    63  C   -0.038554
    64  C   -0.308848
    65  C   -0.315775
    66  H    0.066812
    67  H    0.113672
    68  H    0.101254
    69  H    0.121548
    70  H    0.099171
    71  H    0.090806
    72  H    0.096253
    73  H    0.141690
    74  H    0.112932
    75  H    0.131112
    76  H    0.125725
    77  H    0.114026
    78  H    0.118695
    79  H    0.163222
    80  H    0.126045
    81  H    0.106425
    82  H    0.115231
    83  H    0.128611
    84  H    0.094556
    85  H    0.097732
    86  H    0.129913
    87  H    0.101115
    88  H    0.155545
    89  H    0.131607
    90  H    0.167077
    91  H    0.106684
    92  H    0.124446
    93  H    0.086054
    94  H    0.161643
    95  H    0.092349
    96  H    0.127095
    97  H    0.099961
    98  H    0.101662
    99  H    0.103988
   100  H    0.096234
   101  H    0.100218
   102  H    0.077589
   103  H    0.080862
   104  H    0.096857
   105  H    0.109600
   106  H    0.069560
   107  H    0.097891
   108  H    0.079096
   109  H    0.101391
   110  H    0.063127
   111  H    0.073408
   112  H    0.075040
   113  H    0.074832
   114  H    0.090457
   115  H    0.109060
   116  H    0.098519
   117  H    0.091446
   118  H    0.102402
   119  H    0.093452
   120  H    0.108482
   121  H    0.075962
   122  H    0.034974
   123  H    0.098012
   124  H    0.113679
   125  H    0.078314
   126  H    0.096284
   127  H    0.102697
   128  H    0.098025
   129  H    0.088617
   130  H    0.127123
   131  H    0.152448
   132  H    0.126203
   133  O   -0.412062
   134  H    0.036844
 Sum of Mulliken charges =   0.00000

 Dipole moment (field-independent basis, Debye):
    X=              3.1027    Y=             -8.0655    Z=             -2.3200  Tot=              8.9477
 Quadrupole moment (field-independent basis, Debye-Ang):
   XX=           -375.6866   YY=           -440.5609   ZZ=           -396.1040
   XY=             31.0702   XZ=             13.4751   YZ=            -32.5954

 Normal termination of Gaussian 09 at Fri Oct  4 06:42:44 2019.
