 Gaussian 09, Revision D.01,
 Gaussian 09:  ES64L-G09RevD.01 24-Apr-2013

 ----------------------------------------------------------------------
 # td=(NStates=1) iop(3/107=0140000000,3/108=0140000000) iop(3/107=0140
 000000,3/108=0140000000) CAM-B3LYP/6-31G(d,p)
 ----------------------------------------------------------------------

 --
 TD
 --
 Symbolic Z-matrix:
 Charge =  0 Multiplicity = 1

                         Standard orientation:
 ---------------------------------------------------------------------
 Center     Atomic      Atomic             Coordinates (Angstroms)
 Number     Number       Type             X           Y           Z
 ---------------------------------------------------------------------
      1         12           0       -5.626049    1.223261    0.206786
      2          6           0       -4.979334   -2.110197   -0.367516
      3          6           0       -3.302319    1.264195    2.776964
      4          6           0       -6.299747    4.501040    0.675209
      5          6           0       -8.037028    1.134265   -2.335241
      6          7           0       -4.285922   -0.206482    1.005841
      7          6           0       -4.173661   -1.547367    0.690483
      8          6           0       -3.218103   -2.209715    1.510312
      9          6           0       -2.854018   -1.197469    2.627994
     10          6           0       -3.482062    0.013271    2.067764
     11          6           0       -3.590451   -1.752750    3.975798
     12          6           0       -1.955352   -2.600095    0.707096
     13          6           0       -1.050305   -3.664481    1.339134
     14          6           0        0.272719   -3.873739    0.634414
     15          8           0        0.585717   -3.315595   -0.439498
     16          8           0        1.014854   -4.774744    1.287430
     17          7           0       -4.967794    2.644922    1.495989
     18          6           0       -3.976443    2.488594    2.479631
     19          6           0       -3.697781    3.728647    3.100869
     20          6           0       -4.564851    4.690855    2.563112
     21          6           0       -5.315265    3.942212    1.584784
     22          6           0       -2.655409    4.004205    4.099681
     23          6           0       -4.771738    6.061165    2.990296
     24          8           0       -3.987594    6.662595    3.762459
     25          7           0       -6.977570    2.511440   -0.688862
     26          6           0       -7.069109    3.857599   -0.421219
     27          6           0       -8.045607    4.560660   -1.241387
     28          6           0       -8.505833    3.542713   -1.975248
     29          6           0       -7.800449    2.274334   -1.703948
     30          6           0       -8.493615    5.899360   -1.143431
     31          6           0       -9.548995    3.697310   -3.135138
     32          6           0       -8.935824    3.915944   -4.512159
     33          7           0       -6.371573   -0.094124   -1.137588
     34          6           0       -7.377179   -0.005393   -2.090942
     35          6           0       -7.477600   -1.317528   -2.763884
     36          6           0       -6.691676   -2.208967   -2.062676
     37          6           0       -5.922388   -1.359400   -1.151062
     38          6           0       -8.377940   -1.625324   -3.870544
     39          6           0       -6.271307   -3.502896   -2.044852
     40          8           0       -6.583113   -4.506314   -2.671757
     41          6           0       -5.113459   -3.538166   -0.854270
     42          6           0       -5.270016   -4.657009    0.127415
     43          8           0       -5.646269   -4.518788    1.295273
     44          8           0       -5.051022   -5.865521   -0.294472
     45          6           0       -5.383323   -6.990746    0.461971
     46          6           0        2.341564   -5.091266    0.688552
     47          6           0        3.406262   -4.205769    1.007870
     48          6           0        4.087535   -3.385206    0.157452
     49          6           0        3.703900   -3.225260   -1.296704
     50          6           0        5.177786   -2.454631    0.732992
     51          6           0        6.512483   -2.681598    0.201834
     52          6           0        7.622025   -1.864323    0.642648
     53          6           0        8.994549   -2.079195    0.105557
     54          6           0        9.701103   -3.412188    0.396897
     55          6           0       10.030719   -0.937530    0.575809
     56          6           0       11.335564   -0.818090   -0.333499
     57          6           0       12.242198    0.308610    0.223195
     58          6           0       13.488116    0.535127   -0.668826
     59          6           0       14.478218   -0.657451   -0.578336
     60          6           0       14.266664    1.747018   -0.207944
     61          6           0       15.486032    2.208029   -1.129110
     62          6           0       16.044904    3.619726   -0.678491
     63          6           0       17.406472    3.995441   -1.324709
     64          6           0       17.219947    3.930517   -2.861341
     65          6           0       17.933708    5.223583   -0.833691
     66          1           0       -2.555964    1.414005    3.657425
     67          1           0       -6.470592    5.570080    0.791246
     68          1           0       -8.649575    1.075061   -3.134307
     69          1           0       -3.466861   -3.230830    1.799797
     70          1           0       -1.833941   -1.219966    2.653306
     71          1           0       -3.238885   -2.744528    4.054276
     72          1           0       -3.267384   -1.055723    4.840033
     73          1           0       -4.799796   -1.664050    3.939678
     74          1           0       -2.454034   -3.015196   -0.153845
     75          1           0       -1.206224   -1.729739    0.318296
     76          1           0       -0.797970   -3.272457    2.420507
     77          1           0       -1.496148   -4.715289    1.462771
     78          1           0       -1.709263    3.696850    3.705232
     79          1           0       -2.435318    4.860873    4.451396
     80          1           0       -2.733193    3.213069    4.863408
     81          1           0       -5.770620    6.641022    2.410964
     82          1           0      -10.244710    2.973565   -3.052914
     83          1           0      -10.085791    4.591333   -3.015497
     84          1           0       -9.658346    3.693716   -5.225275
     85          1           0       -8.252419    4.856590   -4.514655
     86          1           0       -8.184581    3.168134   -4.745775
     87          1           0       -8.065321   -1.098994   -4.695081
     88          1           0       -8.091314   -2.678046   -4.158499
     89          1           0       -9.496181   -1.363046   -3.855798
     90          1           0       -4.149997   -3.778162   -1.556763
     91          1           0        2.478460   -5.966634    1.200529
     92          1           0        2.289024   -5.302730   -0.489364
     93          1           0        3.791086   -4.146505    2.159753
     94          1           0        2.622623   -3.507131   -1.596766
     95          1           0        3.802653   -2.119137   -1.497811
     96          1           0        4.502021   -3.958422   -1.989100
     97          1           0        4.822554   -1.373840    0.380993
     98          1           0        5.168365   -2.547030    1.813306
     99          1           0        6.698922   -3.755046    0.361530
    100          1           0        6.581033   -2.287242   -0.868364
    101          1           0        7.282660   -0.793371    0.824256
    102          1           0        7.703897   -2.184868    1.575564
    103          1           0        9.145174   -1.930073   -1.123485
    104          1           0        9.053322   -4.231283   -0.127640
    105          1           0       10.692819   -3.519074   -0.075929
    106          1           0        9.697067   -3.739426    1.403576
    107          1           0        9.628515   -0.090892    0.134248
    108          1           0       10.145728   -1.010614    1.610291
    109          1           0       12.010875   -1.838976   -0.260599
    110          1           0       10.971846   -0.611999   -1.323655
    111          1           0       11.568115    1.372447    0.409939
    112          1           0       12.783356    0.067550    1.246475
    113          1           0       13.233117    0.565884   -1.715590
    114          1           0       14.814172   -0.933842    0.265059
    115          1           0       14.089109   -1.526270   -0.924866
    116          1           0       15.226477   -0.443671   -1.440970
    117          1           0       13.722042    2.632704   -0.355243
    118          1           0       14.687730    1.893927    0.916806
    119          1           0       16.302978    1.352955   -0.948009
    120          1           0       15.207725    2.213584   -2.170043
    121          1           0       15.067094    4.473509   -0.906515
    122          1           0       16.432291    3.575369    0.441684
    123          1           0       17.941179    3.187181   -0.998201
    124          1           0       16.533619    4.819031   -3.200109
    125          1           0       18.234544    4.209361   -3.307526
    126          1           0       16.749921    3.041557   -3.209798
    127          1           0       18.167766    5.206607    0.179462
    128          1           0       18.935317    5.317306   -1.197456
    129          1           0       17.280568    6.101703   -1.161606
    130          1           0       -4.796252   -8.043522    0.236824
    131          1           0       -6.607163   -7.182251    0.539436
    132          1           0       -5.071649   -7.035889    1.590591
    133          8           0       -7.911468    6.822431   -0.490585
    134          1           0       -9.378194    6.134833   -1.818868
 ---------------------------------------------------------------------

 SCF Done:  E(RCAM-B3LYP) =  -3043.40974934     A.U. after   16 cycles

 Excitation energies and oscillator strengths:

 Excited State   1:      Singlet-A      1.9505 eV  635.64 nm  f=0.1840  <S**2>=0.000
     243 -> 246       -0.24828
     244 -> 245        0.64107
 This state for optimization and/or second-order correction.
 Total Energy, E(TD-HF/TD-KS) =  -3043.33806831
 Copying the excited state density for this state as the 1-particle RhoCI density.

 The electronic state is 1-A.
 Alpha  occ. eigenvalues --  -46.81981 -19.23665 -19.23023 -19.17599 -19.17408
 Alpha  occ. eigenvalues --  -19.17142 -19.17046 -19.15692 -14.39854 -14.37445
 Alpha  occ. eigenvalues --  -14.37108 -14.37041 -10.35351 -10.35209 -10.31585
 Alpha  occ. eigenvalues --  -10.31554 -10.31271 -10.30415 -10.28223 -10.28106
 Alpha  occ. eigenvalues --  -10.27844 -10.27438 -10.26723 -10.26579 -10.26561
 Alpha  occ. eigenvalues --  -10.26275 -10.25932 -10.25819 -10.25638 -10.25385
 Alpha  occ. eigenvalues --  -10.25038 -10.24810 -10.24467 -10.24432 -10.24115
 Alpha  occ. eigenvalues --  -10.24079 -10.24036 -10.23786 -10.23768 -10.23380
 Alpha  occ. eigenvalues --  -10.23243 -10.23231 -10.23226 -10.23157 -10.22979
 Alpha  occ. eigenvalues --  -10.22960 -10.22763 -10.22710 -10.22606 -10.22561
 Alpha  occ. eigenvalues --  -10.22404 -10.22344 -10.22336 -10.22140 -10.21679
 Alpha  occ. eigenvalues --  -10.21652 -10.20874 -10.20720 -10.20675 -10.20524
 Alpha  occ. eigenvalues --  -10.20198 -10.20100 -10.19982 -10.19920 -10.19089
 Alpha  occ. eigenvalues --  -10.18137  -3.10561  -1.85501  -1.85040  -1.84966
 Alpha  occ. eigenvalues --   -1.15939  -1.12812  -1.06878  -1.04527  -1.04379
 Alpha  occ. eigenvalues --   -1.03351  -1.03318  -1.01698  -1.01278  -1.00011
 Alpha  occ. eigenvalues --   -0.99515  -0.88752  -0.87333  -0.86497  -0.85823
 Alpha  occ. eigenvalues --   -0.85546  -0.85170  -0.84851  -0.84554  -0.84421
 Alpha  occ. eigenvalues --   -0.84016  -0.83055  -0.81903  -0.80854  -0.80437
 Alpha  occ. eigenvalues --   -0.79765  -0.78732  -0.78203  -0.77064  -0.76856
 Alpha  occ. eigenvalues --   -0.76023  -0.75440  -0.74634  -0.73010  -0.72297
 Alpha  occ. eigenvalues --   -0.71620  -0.71530  -0.70654  -0.70131  -0.69814
 Alpha  occ. eigenvalues --   -0.69352  -0.68838  -0.68533  -0.67589  -0.66920
 Alpha  occ. eigenvalues --   -0.66394  -0.64988  -0.64680  -0.62782  -0.62238
 Alpha  occ. eigenvalues --   -0.61771  -0.61531  -0.59833  -0.59657  -0.58873
 Alpha  occ. eigenvalues --   -0.58279  -0.58214  -0.58043  -0.57844  -0.56848
 Alpha  occ. eigenvalues --   -0.56797  -0.56193  -0.55685  -0.55098  -0.54506
 Alpha  occ. eigenvalues --   -0.53952  -0.53407  -0.53042  -0.52845  -0.52479
 Alpha  occ. eigenvalues --   -0.52160  -0.51867  -0.51609  -0.50791  -0.50508
 Alpha  occ. eigenvalues --   -0.50371  -0.50310  -0.50062  -0.49639  -0.49375
 Alpha  occ. eigenvalues --   -0.49137  -0.48983  -0.48462  -0.48207  -0.48080
 Alpha  occ. eigenvalues --   -0.47774  -0.47697  -0.47531  -0.47290  -0.47013
 Alpha  occ. eigenvalues --   -0.46814  -0.46545  -0.46487  -0.46147  -0.45860
 Alpha  occ. eigenvalues --   -0.45597  -0.45519  -0.45258  -0.44943  -0.44822
 Alpha  occ. eigenvalues --   -0.44748  -0.44471  -0.44130  -0.43933  -0.43804
 Alpha  occ. eigenvalues --   -0.43735  -0.43366  -0.43220  -0.42902  -0.42695
 Alpha  occ. eigenvalues --   -0.42626  -0.42376  -0.42227  -0.41943  -0.41731
 Alpha  occ. eigenvalues --   -0.41650  -0.41490  -0.41221  -0.41093  -0.40881
 Alpha  occ. eigenvalues --   -0.40779  -0.40660  -0.40431  -0.40270  -0.40076
 Alpha  occ. eigenvalues --   -0.39953  -0.39831  -0.39694  -0.39390  -0.39318
 Alpha  occ. eigenvalues --   -0.39164  -0.39000  -0.38867  -0.38561  -0.38166
 Alpha  occ. eigenvalues --   -0.37531  -0.37216  -0.37150  -0.36984  -0.36956
 Alpha  occ. eigenvalues --   -0.36551  -0.36303  -0.36062  -0.35878  -0.35858
 Alpha  occ. eigenvalues --   -0.35731  -0.35478  -0.35384  -0.35265  -0.35035
 Alpha  occ. eigenvalues --   -0.34303  -0.34155  -0.33436  -0.33099  -0.32781
 Alpha  occ. eigenvalues --   -0.32638  -0.32632  -0.32263  -0.32056  -0.31453
 Alpha  occ. eigenvalues --   -0.30956  -0.30372  -0.30038  -0.29924  -0.29719
 Alpha  occ. eigenvalues --   -0.29229  -0.28920  -0.28526  -0.28043  -0.27852
 Alpha  occ. eigenvalues --   -0.27569  -0.27523  -0.22805  -0.21465
 Alpha virt. eigenvalues --   -0.08835  -0.06668  -0.02791  -0.01717   0.00082
 Alpha virt. eigenvalues --    0.02138   0.02524   0.03028   0.03315   0.03906
 Alpha virt. eigenvalues --    0.04465   0.05337   0.07918   0.08548   0.09553

 Mulliken charges:
               1
     1  Mg   0.828412
     2  C    0.092830
     3  C   -0.195616
     4  C   -0.184160
     5  C   -0.135554
     6  N   -0.637243
     7  C    0.366321
     8  C   -0.187953
     9  C   -0.130183
    10  C    0.333421
    11  C   -0.295453
    12  C   -0.182015
    13  C   -0.267133
    14  C    0.613169
    15  O   -0.488141
    16  O   -0.466612
    17  N   -0.710216
    18  C    0.310841
    19  C    0.036729
    20  C    0.022426
    21  C    0.302262
    22  C   -0.363580
    23  C    0.225726
    24  O   -0.428541
    25  N   -0.691280
    26  C    0.249366
    27  C    0.092080
    28  C   -0.058082
    29  C    0.364028
    30  C    0.216111
    31  C   -0.237110
    32  C   -0.314376
    33  N   -0.738923
    34  C    0.286876
    35  C    0.026880
    36  C    0.105500
    37  C    0.268450
    38  C   -0.405317
    39  C    0.314211
    40  O   -0.461770
    41  C   -0.362017
    42  C    0.610510
    43  O   -0.495826
    44  O   -0.385205
    45  C   -0.082673
    46  C    0.016547
    47  C   -0.130370
    48  C    0.157977
    49  C   -0.357037
    50  C   -0.226193
    51  C   -0.152662
    52  C   -0.164094
    53  C   -0.053630
    54  C   -0.316347
    55  C   -0.163693
    56  C   -0.186206
    57  C   -0.141454
    58  C   -0.064127
    59  C   -0.307293
    60  C   -0.153821
    61  C   -0.194885
    62  C   -0.142337
    63  C   -0.041684
    64  C   -0.304983
    65  C   -0.296149
    66  H    0.085664
    67  H    0.119693
    68  H    0.076053
    69  H    0.131290
    70  H    0.116196
    71  H    0.127169
    72  H    0.100562
    73  H    0.119978
    74  H    0.110924
    75  H    0.110888
    76  H    0.118443
    77  H    0.135747
    78  H    0.127073
    79  H    0.150557
    80  H    0.114550
    81  H    0.063069
    82  H    0.114158
    83  H    0.113374
    84  H    0.122127
    85  H    0.111705
    86  H    0.107655
    87  H    0.141523
    88  H    0.145070
    89  H    0.128837
    90  H    0.142626
    91  H    0.119212
    92  H    0.117013
    93  H    0.063341
    94  H    0.151622
    95  H    0.111007
    96  H    0.084380
    97  H    0.084410
    98  H    0.095395
    99  H    0.094535
   100  H    0.088572
   101  H    0.084829
   102  H    0.098289
   103  H    0.035517
   104  H    0.081090
   105  H    0.112498
   106  H    0.106910
   107  H    0.103664
   108  H    0.096732
   109  H    0.071380
   110  H    0.103953
   111  H    0.053222
   112  H    0.080611
   113  H    0.085929
   114  H    0.109816
   115  H    0.099390
   116  H    0.088483
   117  H    0.095609
   118  H    0.072609
   119  H    0.074596
   120  H    0.098885
   121  H    0.040202
   122  H    0.067781
   123  H    0.097024
   124  H    0.081122
   125  H    0.086903
   126  H    0.111428
   127  H    0.104071
   128  H    0.098195
   129  H    0.096627
   130  H    0.109325
   131  H    0.114338
   132  H    0.117790
   133  O   -0.439874
   134  H    0.077901
 Sum of Mulliken charges =   0.00000

 Dipole moment (field-independent basis, Debye):
    X=              2.1188    Y=             -5.4004    Z=             -1.2141  Tot=              5.9269
 Quadrupole moment (field-independent basis, Debye-Ang):
   XX=           -365.7811   YY=           -450.5495   ZZ=           -393.3898
   XY=              1.4558   XZ=             32.4393   YZ=            -35.6838

 Normal termination of Gaussian 09 at Tue Oct  8 18:00:23 2019.
