 Gaussian 09, Revision D.01,
 Gaussian 09:  ES64L-G09RevD.01 24-Apr-2013

 ----------------------------------------------------------------------
 # td=(NStates=1) iop(3/107=0140000000,3/108=0140000000) iop(3/107=0140
 000000,3/108=0140000000) CAM-B3LYP/6-31G(d,p)
 ----------------------------------------------------------------------

 --
 TD
 --
 Symbolic Z-matrix:
 Charge =  0 Multiplicity = 1

                         Standard orientation:
 ---------------------------------------------------------------------
 Center     Atomic      Atomic             Coordinates (Angstroms)
 Number     Number       Type             X           Y           Z
 ---------------------------------------------------------------------
      1         12           0       -5.576574    1.294932    0.208080
      2          6           0       -4.937410   -2.070383   -0.523229
      3          6           0       -3.327934    1.238245    2.781152
      4          6           0       -6.169479    4.475467    0.719956
      5          6           0       -8.109983    1.212475   -2.313937
      6          7           0       -4.368718   -0.245748    1.023349
      7          6           0       -4.240463   -1.657365    0.585016
      8          6           0       -3.182583   -2.295884    1.497629
      9          6           0       -2.860026   -1.229781    2.628748
     10          6           0       -3.577156   -0.031424    2.073696
     11          6           0       -3.299619   -1.692203    3.973038
     12          6           0       -1.971991   -2.861468    0.629026
     13          6           0       -1.007677   -3.711877    1.359074
     14          6           0        0.293200   -4.103325    0.559422
     15          8           0        0.513734   -3.672291   -0.561404
     16          8           0        1.089239   -4.945056    1.252416
     17          7           0       -4.971725    2.613600    1.570316
     18          6           0       -3.986456    2.413616    2.486565
     19          6           0       -3.719151    3.672815    3.224277
     20          6           0       -4.479932    4.564537    2.599973
     21          6           0       -5.239261    3.891233    1.625510
     22          6           0       -2.667967    3.817524    4.278056
     23          6           0       -4.493449    5.966561    2.851942
     24          8           0       -3.926452    6.545187    3.824530
     25          7           0       -6.878549    2.562936   -0.672913
     26          6           0       -6.921653    3.888851   -0.318680
     27          6           0       -7.853760    4.615700   -1.171277
     28          6           0       -8.368307    3.790920   -2.080405
     29          6           0       -7.709351    2.518348   -1.760557
     30          6           0       -8.194554    6.098502   -1.140784
     31          6           0       -9.467626    3.876213   -3.102851
     32          6           0       -8.812901    4.016892   -4.476104
     33          7           0       -6.353544   -0.109779   -1.115226
     34          6           0       -7.447438   -0.006963   -2.085864
     35          6           0       -7.581629   -1.272111   -2.778649
     36          6           0       -6.669704   -2.071759   -2.125045
     37          6           0       -5.934261   -1.357358   -1.237904
     38          6           0       -8.654698   -1.543202   -3.754211
     39          6           0       -6.182998   -3.509381   -2.100103
     40          8           0       -6.498815   -4.518670   -2.537206
     41          6           0       -5.039591   -3.502649   -1.055341
     42          6           0       -5.284047   -4.528455    0.047035
     43          8           0       -5.689204   -4.372366    1.188019
     44          8           0       -5.115937   -5.751430   -0.355917
     45          6           0       -5.591323   -6.804158    0.452606
     46          6           0        2.336002   -5.216239    0.512681
     47          6           0        3.433904   -4.305341    1.029466
     48          6           0        3.989898   -3.430041    0.313579
     49          6           0        3.612813   -3.032970   -1.255005
     50          6           0        5.112120   -2.564970    0.668438
     51          6           0        6.528137   -2.705392   -0.018836
     52          6           0        7.558472   -1.825705    0.559389
     53          6           0        9.033866   -2.026542   -0.055981
     54          6           0        9.606578   -3.415042    0.295195
     55          6           0       10.021246   -1.002252    0.325373
     56          6           0       11.390985   -0.919896   -0.310359
     57          6           0       12.133307    0.313472    0.218045
     58          6           0       13.476685    0.458672   -0.404426
     59          6           0       14.467597   -0.732728   -0.098267
     60          6           0       14.200894    1.784944   -0.156181
     61          6           0       15.349539    2.210933   -0.974200
     62          6           0       15.962714    3.602386   -0.660399
     63          6           0       17.209709    4.022237   -1.525497
     64          6           0       16.999376    4.251036   -2.970737
     65          6           0       17.940978    5.244016   -0.932788
     66          1           0       -2.458603    1.225055    3.559623
     67          1           0       -6.336061    5.508061    0.775704
     68          1           0       -8.884138    1.083032   -3.085735
     69          1           0       -3.735826   -3.170934    2.159577
     70          1           0       -1.789666   -1.101575    2.632629
     71          1           0       -2.983621   -2.625244    4.257667
     72          1           0       -3.113028   -0.950943    4.715412
     73          1           0       -4.386163   -2.103370    4.011646
     74          1           0       -2.120947   -3.598687   -0.171046
     75          1           0       -1.241930   -2.101090    0.346167
     76          1           0       -0.553711   -3.313654    2.275619
     77          1           0       -1.420019   -4.740365    1.824241
     78          1           0       -1.667150    3.594083    3.900501
     79          1           0       -2.633049    4.774679    4.605510
     80          1           0       -2.785513    3.080948    5.163628
     81          1           0       -5.182658    6.495592    2.049703
     82          1           0      -10.154112    3.058592   -3.030785
     83          1           0      -10.179623    4.706776   -2.882651
     84          1           0       -9.621630    4.059079   -5.185990
     85          1           0       -8.160580    5.057333   -4.415602
     86          1           0       -8.058616    3.220129   -4.793123
     87          1           0       -8.567716   -1.068128   -4.721992
     88          1           0       -8.699248   -2.690275   -3.891234
     89          1           0       -9.608669   -1.367855   -3.364060
     90          1           0       -4.027623   -3.977626   -1.382280
     91          1           0        2.588433   -6.239520    0.819001
     92          1           0        2.141011   -5.231878   -0.591455
     93          1           0        3.783505   -4.178877    2.235077
     94          1           0        2.500971   -3.270389   -1.295882
     95          1           0        3.879058   -1.875384   -1.117601
     96          1           0        4.099654   -3.483674   -2.004745
     97          1           0        4.622581   -1.587228    0.591703
     98          1           0        5.164954   -2.848678    1.658835
     99          1           0        6.909836   -3.817803   -0.101038
    100          1           0        6.625075   -2.361631   -1.146411
    101          1           0        7.384726   -0.660116    0.747134
    102          1           0        7.670043   -1.850399    1.499269
    103          1           0        9.040305   -1.900884   -1.111023
    104          1           0        8.814035   -4.053949   -0.131937
    105          1           0       10.449872   -3.550872   -0.238194
    106          1           0        9.578528   -3.729680    1.449649
    107          1           0        9.495538   -0.040624    0.054615
    108          1           0       10.089715   -0.767748    1.478778
    109          1           0       12.145644   -1.795673   -0.120746
    110          1           0       11.344595   -0.969087   -1.477412
    111          1           0       11.513134    1.153878    0.113456
    112          1           0       12.212664    0.016383    1.172171
    113          1           0       13.269681    0.426033   -1.500036
    114          1           0       14.726658   -0.593597    0.920666
    115          1           0       14.044243   -1.777837   -0.443385
    116          1           0       15.504650   -0.644139   -0.736047
    117          1           0       13.368293    2.298148   -0.147466
    118          1           0       14.485985    1.861621    1.026377
    119          1           0       16.176025    1.534401   -1.007952
    120          1           0       14.892055    2.024641   -2.040314
    121          1           0       15.259279    4.442811   -0.895894
    122          1           0       16.209206    3.586615    0.347116
    123          1           0       18.031291    3.142454   -1.370895
    124          1           0       16.120597    5.018433   -3.139125
    125          1           0       17.955915    4.493149   -3.489701
    126          1           0       16.483282    3.559984   -3.635291
    127          1           0       18.249547    5.102263    0.243744
    128          1           0       18.954853    5.257735   -1.596693
    129          1           0       17.424072    6.195328   -1.029793
    130          1           0       -5.364075   -7.549374   -0.235220
    131          1           0       -6.633030   -6.762745    0.572922
    132          1           0       -4.989576   -7.112467    1.338894
    133          8           0       -7.867585    6.782889   -0.152953
    134          1           0       -9.007981    6.542046   -1.857415
 ---------------------------------------------------------------------

 SCF Done:  E(RCAM-B3LYP) =  -3043.45075867     A.U. after   15 cycles

 Excitation energies and oscillator strengths:

 Excited State   1:      Singlet-A      1.9921 eV  622.39 nm  f=0.2203  <S**2>=0.000
     243 -> 246       -0.21394
     244 -> 245        0.66720
 This state for optimization and/or second-order correction.
 Total Energy, E(TD-HF/TD-KS) =  -3043.37755105
 Copying the excited state density for this state as the 1-particle RhoCI density.

 The electronic state is 1-A.
 Alpha  occ. eigenvalues --  -46.81149 -19.23291 -19.22097 -19.17837 -19.17643
 Alpha  occ. eigenvalues --  -19.17528 -19.17089 -19.15539 -14.39238 -14.37103
 Alpha  occ. eigenvalues --  -14.36636 -14.35808 -10.35668 -10.34004 -10.31785
 Alpha  occ. eigenvalues --  -10.31308 -10.30489 -10.28625 -10.28186 -10.27759
 Alpha  occ. eigenvalues --  -10.26414 -10.26404 -10.26335 -10.26138 -10.26000
 Alpha  occ. eigenvalues --  -10.25925 -10.25558 -10.25058 -10.24663 -10.24609
 Alpha  occ. eigenvalues --  -10.24525 -10.24518 -10.24275 -10.24216 -10.24043
 Alpha  occ. eigenvalues --  -10.23988 -10.23868 -10.23829 -10.23775 -10.23714
 Alpha  occ. eigenvalues --  -10.23512 -10.23146 -10.22952 -10.22533 -10.22416
 Alpha  occ. eigenvalues --  -10.22340 -10.22092 -10.22078 -10.22026 -10.21925
 Alpha  occ. eigenvalues --  -10.21725 -10.21681 -10.21609 -10.21597 -10.21451
 Alpha  occ. eigenvalues --  -10.21439 -10.21349 -10.21193 -10.21128 -10.20920
 Alpha  occ. eigenvalues --  -10.20863 -10.20739 -10.20593 -10.20057 -10.19979
 Alpha  occ. eigenvalues --  -10.19274  -3.09804  -1.84736  -1.84291  -1.84210
 Alpha  occ. eigenvalues --   -1.15434  -1.13664  -1.11664  -1.05777  -1.05182
 Alpha  occ. eigenvalues --   -1.04025  -1.03311  -1.02186  -0.99884  -0.99166
 Alpha  occ. eigenvalues --   -0.97923  -0.87886  -0.86887  -0.86328  -0.85742
 Alpha  occ. eigenvalues --   -0.85529  -0.84909  -0.84812  -0.84124  -0.83493
 Alpha  occ. eigenvalues --   -0.83436  -0.83013  -0.81904  -0.80851  -0.80037
 Alpha  occ. eigenvalues --   -0.79396  -0.79037  -0.77966  -0.77537  -0.76884
 Alpha  occ. eigenvalues --   -0.75545  -0.75061  -0.74163  -0.72831  -0.72382
 Alpha  occ. eigenvalues --   -0.71017  -0.70790  -0.70619  -0.70327  -0.69785
 Alpha  occ. eigenvalues --   -0.69476  -0.69026  -0.67743  -0.66429  -0.66374
 Alpha  occ. eigenvalues --   -0.66104  -0.65362  -0.63569  -0.63264  -0.61549
 Alpha  occ. eigenvalues --   -0.61502  -0.61182  -0.60467  -0.59275  -0.58990
 Alpha  occ. eigenvalues --   -0.58530  -0.58199  -0.57974  -0.57343  -0.56676
 Alpha  occ. eigenvalues --   -0.56522  -0.55877  -0.55214  -0.54813  -0.54461
 Alpha  occ. eigenvalues --   -0.53611  -0.53251  -0.53145  -0.52491  -0.52350
 Alpha  occ. eigenvalues --   -0.51848  -0.51522  -0.51117  -0.51007  -0.50935
 Alpha  occ. eigenvalues --   -0.50356  -0.50126  -0.49741  -0.49409  -0.49224
 Alpha  occ. eigenvalues --   -0.48961  -0.48697  -0.48464  -0.48119  -0.48033
 Alpha  occ. eigenvalues --   -0.47897  -0.47762  -0.47510  -0.47192  -0.46930
 Alpha  occ. eigenvalues --   -0.46611  -0.46423  -0.46188  -0.45903  -0.45844
 Alpha  occ. eigenvalues --   -0.45793  -0.45755  -0.45259  -0.45076  -0.44959
 Alpha  occ. eigenvalues --   -0.44845  -0.44355  -0.43970  -0.43906  -0.43603
 Alpha  occ. eigenvalues --   -0.43451  -0.43253  -0.43161  -0.42907  -0.42764
 Alpha  occ. eigenvalues --   -0.42536  -0.42398  -0.42367  -0.42070  -0.41997
 Alpha  occ. eigenvalues --   -0.41887  -0.41733  -0.41416  -0.41135  -0.40971
 Alpha  occ. eigenvalues --   -0.40897  -0.40736  -0.40645  -0.40398  -0.40354
 Alpha  occ. eigenvalues --   -0.40224  -0.40081  -0.39805  -0.39479  -0.39249
 Alpha  occ. eigenvalues --   -0.39053  -0.39032  -0.38683  -0.38315  -0.37976
 Alpha  occ. eigenvalues --   -0.37866  -0.37599  -0.37552  -0.37159  -0.37151
 Alpha  occ. eigenvalues --   -0.36846  -0.36820  -0.36684  -0.36409  -0.35786
 Alpha  occ. eigenvalues --   -0.35517  -0.34824  -0.34533  -0.34344  -0.34307
 Alpha  occ. eigenvalues --   -0.34060  -0.33918  -0.33654  -0.32790  -0.32750
 Alpha  occ. eigenvalues --   -0.32323  -0.32187  -0.32144  -0.31708  -0.31560
 Alpha  occ. eigenvalues --   -0.31156  -0.31063  -0.30773  -0.29946  -0.29596
 Alpha  occ. eigenvalues --   -0.29215  -0.29039  -0.28792  -0.28133  -0.27834
 Alpha  occ. eigenvalues --   -0.27563  -0.27527  -0.23347  -0.20618
 Alpha virt. eigenvalues --   -0.08006  -0.06053  -0.01324  -0.01101   0.01098
 Alpha virt. eigenvalues --    0.03127   0.03518   0.04115   0.04593   0.04992
 Alpha virt. eigenvalues --    0.05418   0.05750   0.07871   0.08829   0.09665

 Mulliken charges:
               1
     1  Mg   0.825258
     2  C    0.083694
     3  C   -0.206477
     4  C   -0.197489
     5  C   -0.166603
     6  N   -0.626018
     7  C    0.285050
     8  C   -0.179500
     9  C   -0.129554
    10  C    0.366945
    11  C   -0.322361
    12  C   -0.161492
    13  C   -0.282311
    14  C    0.599693
    15  O   -0.467300
    16  O   -0.455820
    17  N   -0.730539
    18  C    0.310187
    19  C    0.058463
    20  C    0.026052
    21  C    0.349176
    22  C   -0.384820
    23  C    0.231523
    24  O   -0.447741
    25  N   -0.668663
    26  C    0.318668
    27  C   -0.046830
    28  C    0.074855
    29  C    0.225227
    30  C    0.225605
    31  C   -0.240009
    32  C   -0.299971
    33  N   -0.714789
    34  C    0.223311
    35  C    0.039565
    36  C   -0.018727
    37  C    0.335157
    38  C   -0.402147
    39  C    0.389245
    40  O   -0.394838
    41  C   -0.342880
    42  C    0.585474
    43  O   -0.495207
    44  O   -0.408880
    45  C   -0.083459
    46  C   -0.024642
    47  C   -0.140686
    48  C    0.128364
    49  C   -0.360227
    50  C   -0.221796
    51  C   -0.165497
    52  C   -0.153133
    53  C   -0.068396
    54  C   -0.294501
    55  C   -0.170327
    56  C   -0.184544
    57  C   -0.159245
    58  C   -0.078635
    59  C   -0.305396
    60  C   -0.137495
    61  C   -0.166932
    62  C   -0.160201
    63  C   -0.046343
    64  C   -0.298240
    65  C   -0.285587
    66  H    0.091627
    67  H    0.111525
    68  H    0.088289
    69  H    0.121566
    70  H    0.115731
    71  H    0.127731
    72  H    0.115851
    73  H    0.114500
    74  H    0.126144
    75  H    0.129938
    76  H    0.126989
    77  H    0.108756
    78  H    0.127511
    79  H    0.161080
    80  H    0.112969
    81  H    0.078081
    82  H    0.123359
    83  H    0.110538
    84  H    0.114212
    85  H    0.091100
    86  H    0.119254
    87  H    0.132840
    88  H    0.131423
    89  H    0.141532
    90  H    0.148291
    91  H    0.120442
    92  H    0.148278
    93  H    0.064494
    94  H    0.143369
    95  H    0.080466
    96  H    0.128056
    97  H    0.113205
    98  H    0.086736
    99  H    0.098563
   100  H    0.088865
   101  H    0.057988
   102  H    0.106750
   103  H    0.087998
   104  H    0.086520
   105  H    0.115052
   106  H    0.088131
   107  H    0.079432
   108  H    0.065761
   109  H    0.082907
   110  H    0.070971
   111  H    0.097024
   112  H    0.109983
   113  H    0.074725
   114  H    0.114537
   115  H    0.089104
   116  H    0.078054
   117  H    0.097011
   118  H    0.038617
   119  H    0.101229
   120  H    0.069158
   121  H    0.083234
   122  H    0.102264
   123  H    0.057894
   124  H    0.078633
   125  H    0.103377
   126  H    0.108443
   127  H    0.077261
   128  H    0.080040
   129  H    0.110568
   130  H    0.128291
   131  H    0.137705
   132  H    0.117630
   133  O   -0.407128
   134  H    0.082266
 Sum of Mulliken charges =   0.00000

 Dipole moment (field-independent basis, Debye):
    X=              1.2248    Y=             -4.6971    Z=             -2.1505  Tot=              5.3092
 Quadrupole moment (field-independent basis, Debye-Ang):
   XX=           -381.8766   YY=           -436.3510   ZZ=           -393.6554
   XY=              9.1582   XZ=             31.5737   YZ=            -37.2000

 Normal termination of Gaussian 09 at Wed Oct  9 09:43:36 2019.
