 Gaussian 09, Revision D.01,
 Gaussian 09:  ES64L-G09RevD.01 24-Apr-2013

 ----------------------------------------------------------------------
 # td=(NStates=1) iop(3/107=0140000000,3/108=0140000000) iop(3/107=0140
 000000,3/108=0140000000) CAM-B3LYP/6-31G(d,p)
 ----------------------------------------------------------------------

 --
 TD
 --
 Symbolic Z-matrix:
 Charge =  0 Multiplicity = 1

                         Standard orientation:
 ---------------------------------------------------------------------
 Center     Atomic      Atomic             Coordinates (Angstroms)
 Number     Number       Type             X           Y           Z
 ---------------------------------------------------------------------
      1         12           0       -5.539711    1.254940    0.303165
      2          6           0       -4.961745   -2.209217   -0.241216
      3          6           0       -3.267354    1.204903    2.618612
      4          6           0       -6.071879    4.688027    0.549642
      5          6           0       -7.981767    1.213585   -2.166983
      6          7           0       -4.419313   -0.263132    1.118587
      7          6           0       -4.171579   -1.633624    0.695661
      8          6           0       -3.167185   -2.266152    1.435371
      9          6           0       -2.969166   -1.410598    2.604616
     10          6           0       -3.554297   -0.097831    2.026262
     11          6           0       -3.452899   -1.807453    3.892059
     12          6           0       -1.940699   -2.609208    0.559928
     13          6           0       -0.999713   -3.509723    1.410080
     14          6           0        0.180112   -4.014345    0.462222
     15          8           0        0.371291   -3.590435   -0.651532
     16          8           0        1.027580   -4.817845    1.175144
     17          7           0       -4.798600    2.705212    1.466917
     18          6           0       -3.897330    2.461754    2.401491
     19          6           0       -3.549464    3.760822    3.065924
     20          6           0       -4.358737    4.758662    2.469901
     21          6           0       -5.087626    4.003347    1.495666
     22          6           0       -2.699432    3.897912    4.280609
     23          6           0       -4.471302    6.104862    2.897600
     24          8           0       -3.748957    6.655009    3.791285
     25          7           0       -6.882359    2.697505   -0.597596
     26          6           0       -6.853338    3.995314   -0.384143
     27          6           0       -7.857736    4.691112   -1.158811
     28          6           0       -8.390815    3.711307   -1.988148
     29          6           0       -7.741896    2.439696   -1.649099
     30          6           0       -8.166170    6.085930   -1.303564
     31          6           0       -9.312651    3.845699   -3.199354
     32          6           0       -8.578848    3.904262   -4.550958
     33          7           0       -6.366109   -0.113704   -1.059414
     34          6           0       -7.329738    0.023675   -1.945691
     35          6           0       -7.657580   -1.314548   -2.592825
     36          6           0       -6.741389   -2.125519   -1.970715
     37          6           0       -5.993462   -1.364802   -1.035015
     38          6           0       -8.666941   -1.520665   -3.754765
     39          6           0       -6.305874   -3.540261   -1.960290
     40          8           0       -6.708350   -4.544784   -2.575751
     41          6           0       -5.060718   -3.656223   -0.713796
     42          6           0       -5.428802   -4.702449    0.200348
     43          8           0       -5.817456   -4.459860    1.480696
     44          8           0       -5.121736   -5.881706   -0.303972
     45          6           0       -5.479826   -7.072143    0.507692
     46          6           0        2.304400   -5.154761    0.619820
     47          6           0        3.416134   -4.133683    0.897194
     48          6           0        3.983040   -3.242759    0.145104
     49          6           0        3.522110   -2.988606   -1.283846
     50          6           0        5.014882   -2.354408    0.686643
     51          6           0        6.415926   -2.769822    0.122408
     52          6           0        7.544710   -1.877653    0.525299
     53          6           0        8.867908   -1.964339   -0.168334
     54          6           0        9.427834   -3.474660   -0.096230
     55          6           0        9.799885   -0.980392    0.243686
     56          6           0       11.252640   -1.003046   -0.241806
     57          6           0       12.172141    0.189164    0.177484
     58          6           0       13.502973    0.361263   -0.493446
     59          6           0       14.536154   -0.787938   -0.274195
     60          6           0       14.264663    1.718181   -0.058854
     61          6           0       15.445731    2.047258   -0.910298
     62          6           0       16.034592    3.570565   -0.624855
     63          6           0       17.271593    3.894638   -1.309830
     64          6           0       17.138425    3.975479   -2.774220
     65          6           0       17.757202    5.316795   -0.814217
     66          1           0       -2.393821    1.244526    3.465934
     67          1           0       -6.322736    5.736822    0.546047
     68          1           0       -8.685783    0.939957   -2.878772
     69          1           0       -3.669676   -3.212657    1.618983
     70          1           0       -1.831113   -1.299409    2.497880
     71          1           0       -2.656495   -2.591078    4.344900
     72          1           0       -3.334103   -1.166274    4.837236
     73          1           0       -4.547801   -2.180684    4.042586
     74          1           0       -2.299080   -3.139487   -0.275812
     75          1           0       -1.152440   -1.669581    0.354332
     76          1           0       -0.535861   -3.131679    2.214663
     77          1           0       -1.785574   -4.214895    1.748112
     78          1           0       -1.813703    3.149172    4.219827
     79          1           0       -2.282848    4.871152    4.710817
     80          1           0       -3.228004    3.517108    5.208529
     81          1           0       -5.174502    6.686168    2.393654
     82          1           0       -9.877164    3.103876   -3.183711
     83          1           0      -10.044164    4.664702   -2.891636
     84          1           0       -9.305863    4.112433   -5.295105
     85          1           0       -7.891375    4.675980   -4.523332
     86          1           0       -8.018496    2.946455   -4.685932
     87          1           0       -8.647597   -0.823160   -4.448588
     88          1           0       -8.418299   -2.469847   -4.199308
     89          1           0       -9.698392   -1.837214   -3.284398
     90          1           0       -4.163786   -3.863610   -1.365220
     91          1           0        2.771204   -6.045911    0.907474
     92          1           0        2.270081   -5.276781   -0.562107
     93          1           0        3.687996   -4.250432    2.094707
     94          1           0        2.580478   -3.663697   -1.602798
     95          1           0        3.545310   -2.024962   -1.461140
     96          1           0        4.366898   -3.453615   -1.840016
     97          1           0        4.679529   -1.252243    0.525768
     98          1           0        4.904036   -2.513581    1.650128
     99          1           0        6.507404   -3.970544    0.317293
    100          1           0        6.294566   -2.704742   -1.027805
    101          1           0        7.309346   -0.847551    0.456481
    102          1           0        7.765280   -2.007866    1.620385
    103          1           0        8.501745   -1.966478   -1.358223
    104          1           0        8.724203   -4.124674   -0.668021
    105          1           0       10.448161   -3.442307   -0.556211
    106          1           0        9.644433   -3.543571    0.903950
    107          1           0        9.599838    0.095488   -0.161878
    108          1           0        9.956637   -0.838480    1.281413
    109          1           0       11.878524   -1.865461   -0.107651
    110          1           0       11.331480   -1.114552   -1.395440
    111          1           0       11.636727    1.239777   -0.133419
    112          1           0       12.154828    0.230561    1.319690
    113          1           0       13.402977    0.432632   -1.570875
    114          1           0       14.911030   -0.686148    0.786375
    115          1           0       14.153226   -1.722977   -0.435348
    116          1           0       15.500759   -0.678403   -0.931679
    117          1           0       13.575409    2.624767    0.191103
    118          1           0       14.662024    1.357061    1.033940
    119          1           0       16.336802    1.364546   -0.979016
    120          1           0       15.368417    1.979997   -1.969824
    121          1           0       15.066567    4.189394   -0.945217
    122          1           0       16.167263    3.552462    0.431256
    123          1           0       17.907452    3.016399   -0.868496
    124          1           0       16.327677    4.573174   -3.200825
    125          1           0       18.160727    4.060101   -3.159524
    126          1           0       16.883709    2.983309   -3.164343
    127          1           0       17.963779    5.193741    0.193628
    128          1           0       18.695457    5.532899   -1.114283
    129          1           0       17.085419    5.992048   -1.078115
    130          1           0       -5.534582   -7.897875   -0.393195
    131          1           0       -6.567587   -6.693864    0.747433
    132          1           0       -4.894616   -7.208798    1.250740
    133          8           0       -7.656757    7.037108   -0.699718
    134          1           0       -9.086254    6.243763   -2.019520
 ---------------------------------------------------------------------

 SCF Done:  E(RCAM-B3LYP) =  -3043.36444049     A.U. after   16 cycles

 Excitation energies and oscillator strengths:

 Excited State   1:      Singlet-A      1.9211 eV  645.37 nm  f=0.2488  <S**2>=0.000
     243 -> 246        0.15836
     244 -> 245        0.68431
 This state for optimization and/or second-order correction.
 Total Energy, E(TD-HF/TD-KS) =  -3043.29384049
 Copying the excited state density for this state as the 1-particle RhoCI density.

 The electronic state is 1-A.
 Alpha  occ. eigenvalues --  -46.82894 -19.24168 -19.23353 -19.18787 -19.18544
 Alpha  occ. eigenvalues --  -19.16903 -19.16310 -19.16148 -14.39362 -14.37397
 Alpha  occ. eigenvalues --  -14.36993 -14.36522 -10.36343 -10.35854 -10.33381
 Alpha  occ. eigenvalues --  -10.30446 -10.29222 -10.29077 -10.28312 -10.28249
 Alpha  occ. eigenvalues --  -10.27620 -10.27515 -10.26538 -10.26430 -10.25994
 Alpha  occ. eigenvalues --  -10.25650 -10.25627 -10.25616 -10.25603 -10.25443
 Alpha  occ. eigenvalues --  -10.24870 -10.24852 -10.24647 -10.24642 -10.24362
 Alpha  occ. eigenvalues --  -10.24343 -10.23865 -10.23615 -10.23334 -10.23280
 Alpha  occ. eigenvalues --  -10.23139 -10.22940 -10.22901 -10.22850 -10.22827
 Alpha  occ. eigenvalues --  -10.22801 -10.22606 -10.22527 -10.22247 -10.22135
 Alpha  occ. eigenvalues --  -10.22126 -10.22125 -10.21840 -10.21563 -10.21483
 Alpha  occ. eigenvalues --  -10.21410 -10.21363 -10.21158 -10.20676 -10.20671
 Alpha  occ. eigenvalues --  -10.20606 -10.20600 -10.20326 -10.20135 -10.19670
 Alpha  occ. eigenvalues --  -10.17379  -3.11367  -1.86314  -1.85825  -1.85782
 Alpha  occ. eigenvalues --   -1.13574  -1.13459  -1.06328  -1.06086  -1.05446
 Alpha  occ. eigenvalues --   -1.03206  -1.02967  -1.02224  -1.01868  -1.00066
 Alpha  occ. eigenvalues --   -0.98635  -0.89061  -0.87216  -0.87144  -0.85973
 Alpha  occ. eigenvalues --   -0.85419  -0.85101  -0.84372  -0.83828  -0.83600
 Alpha  occ. eigenvalues --   -0.83452  -0.82694  -0.82312  -0.80845  -0.80245
 Alpha  occ. eigenvalues --   -0.79762  -0.78623  -0.78097  -0.77488  -0.76755
 Alpha  occ. eigenvalues --   -0.75386  -0.75070  -0.74710  -0.73104  -0.72484
 Alpha  occ. eigenvalues --   -0.72422  -0.72304  -0.71013  -0.70128  -0.69872
 Alpha  occ. eigenvalues --   -0.69812  -0.68949  -0.67977  -0.67664  -0.67379
 Alpha  occ. eigenvalues --   -0.66454  -0.65918  -0.65167  -0.63279  -0.62574
 Alpha  occ. eigenvalues --   -0.62237  -0.61315  -0.60992  -0.60112  -0.59048
 Alpha  occ. eigenvalues --   -0.58633  -0.58149  -0.57942  -0.57883  -0.57135
 Alpha  occ. eigenvalues --   -0.57093  -0.56301  -0.55477  -0.54766  -0.54660
 Alpha  occ. eigenvalues --   -0.54552  -0.53894  -0.53610  -0.52926  -0.52422
 Alpha  occ. eigenvalues --   -0.52045  -0.51940  -0.51290  -0.51000  -0.50862
 Alpha  occ. eigenvalues --   -0.50755  -0.50320  -0.50075  -0.49939  -0.49414
 Alpha  occ. eigenvalues --   -0.49076  -0.49058  -0.48521  -0.48146  -0.47826
 Alpha  occ. eigenvalues --   -0.47585  -0.47372  -0.47146  -0.47014  -0.46868
 Alpha  occ. eigenvalues --   -0.46583  -0.46487  -0.46438  -0.46219  -0.46006
 Alpha  occ. eigenvalues --   -0.45734  -0.45547  -0.45444  -0.45199  -0.44941
 Alpha  occ. eigenvalues --   -0.44633  -0.44521  -0.44464  -0.44040  -0.43950
 Alpha  occ. eigenvalues --   -0.43727  -0.43513  -0.43391  -0.42941  -0.42891
 Alpha  occ. eigenvalues --   -0.42843  -0.42636  -0.42435  -0.42278  -0.42240
 Alpha  occ. eigenvalues --   -0.42155  -0.41655  -0.41592  -0.41262  -0.41194
 Alpha  occ. eigenvalues --   -0.40928  -0.40855  -0.40538  -0.40465  -0.40369
 Alpha  occ. eigenvalues --   -0.40222  -0.40034  -0.39623  -0.39550  -0.39465
 Alpha  occ. eigenvalues --   -0.39368  -0.39164  -0.38885  -0.38692  -0.38406
 Alpha  occ. eigenvalues --   -0.38055  -0.37854  -0.37634  -0.37192  -0.36906
 Alpha  occ. eigenvalues --   -0.36652  -0.36358  -0.36242  -0.36057  -0.35699
 Alpha  occ. eigenvalues --   -0.35601  -0.35458  -0.35000  -0.34819  -0.34608
 Alpha  occ. eigenvalues --   -0.34178  -0.34109  -0.33565  -0.33419  -0.32492
 Alpha  occ. eigenvalues --   -0.32334  -0.32151  -0.32017  -0.31945  -0.31569
 Alpha  occ. eigenvalues --   -0.31010  -0.30854  -0.29966  -0.29687  -0.29470
 Alpha  occ. eigenvalues --   -0.29205  -0.28552  -0.27877  -0.27836  -0.27828
 Alpha  occ. eigenvalues --   -0.27668  -0.27267  -0.23328  -0.20777
 Alpha virt. eigenvalues --   -0.08722  -0.05975  -0.02021  -0.01223   0.00093
 Alpha virt. eigenvalues --    0.00668   0.02467   0.03166   0.03503   0.04500
 Alpha virt. eigenvalues --    0.05252   0.05508   0.07591   0.08419   0.09115

 Mulliken charges:
               1
     1  Mg   0.843212
     2  C    0.047053
     3  C   -0.227307
     4  C   -0.184759
     5  C   -0.134058
     6  N   -0.616198
     7  C    0.312639
     8  C   -0.190670
     9  C   -0.100176
    10  C    0.354574
    11  C   -0.318594
    12  C   -0.159006
    13  C   -0.265248
    14  C    0.594314
    15  O   -0.435776
    16  O   -0.455027
    17  N   -0.702463
    18  C    0.342383
    19  C    0.032914
    20  C    0.027131
    21  C    0.271543
    22  C   -0.391688
    23  C    0.232060
    24  O   -0.453372
    25  N   -0.687880
    26  C    0.343763
    27  C   -0.005085
    28  C   -0.014656
    29  C    0.300894
    30  C    0.235231
    31  C   -0.216988
    32  C   -0.311199
    33  N   -0.699920
    34  C    0.215966
    35  C    0.008965
    36  C    0.032941
    37  C    0.307894
    38  C   -0.373682
    39  C    0.337342
    40  O   -0.454044
    41  C   -0.339909
    42  C    0.622808
    43  O   -0.547073
    44  O   -0.430830
    45  C   -0.073062
    46  C    0.006904
    47  C   -0.164472
    48  C    0.137080
    49  C   -0.348907
    50  C   -0.210393
    51  C   -0.178065
    52  C   -0.144909
    53  C   -0.059004
    54  C   -0.311857
    55  C   -0.161634
    56  C   -0.202288
    57  C   -0.163806
    58  C   -0.058890
    59  C   -0.312019
    60  C   -0.160443
    61  C   -0.195276
    62  C   -0.152950
    63  C   -0.070892
    64  C   -0.304202
    65  C   -0.297389
    66  H    0.074897
    67  H    0.128450
    68  H    0.073552
    69  H    0.142802
    70  H    0.105409
    71  H    0.094974
    72  H    0.118793
    73  H    0.137481
    74  H    0.122948
    75  H    0.097396
    76  H    0.145089
    77  H    0.128881
    78  H    0.097544
    79  H    0.164630
    80  H    0.131538
    81  H    0.094575
    82  H    0.120581
    83  H    0.097390
    84  H    0.120615
    85  H    0.129242
    86  H    0.109213
    87  H    0.136478
    88  H    0.150791
    89  H    0.126961
    90  H    0.165509
    91  H    0.131748
    92  H    0.093117
    93  H    0.051956
    94  H    0.130365
    95  H    0.119297
    96  H    0.109192
    97  H    0.087202
    98  H    0.110663
    99  H    0.086288
   100  H    0.084251
   101  H    0.101090
   102  H    0.078666
   103  H    0.046980
   104  H    0.107750
   105  H    0.097904
   106  H    0.110297
   107  H    0.095242
   108  H    0.102337
   109  H    0.097680
   110  H    0.073473
   111  H    0.061864
   112  H    0.082740
   113  H    0.095360
   114  H    0.094487
   115  H    0.108418
   116  H    0.089636
   117  H    0.085476
   118  H    0.066833
   119  H    0.080754
   120  H    0.095730
   121  H    0.063258
   122  H    0.095847
   123  H    0.072954
   124  H    0.110354
   125  H    0.102765
   126  H    0.091008
   127  H    0.097526
   128  H    0.101522
   129  H    0.112134
   130  H    0.127179
   131  H    0.144562
   132  H    0.152318
   133  O   -0.438385
   134  H    0.052881
 Sum of Mulliken charges =   0.00000

 Dipole moment (field-independent basis, Debye):
    X=              2.0903    Y=             -6.6224    Z=             -1.3689  Tot=              7.0781
 Quadrupole moment (field-independent basis, Debye-Ang):
   XX=           -370.9558   YY=           -447.6803   ZZ=           -392.8712
   XY=             17.7998   XZ=             22.6687   YZ=            -29.7765

 Normal termination of Gaussian 09 at Sat Oct  5 07:35:56 2019.
