 Gaussian 09, Revision D.01,
 Gaussian 09:  ES64L-G09RevD.01 24-Apr-2013

 ----------------------------------------------------------------------
 # td=(NStates=1) iop(3/107=0140000000,3/108=0140000000) iop(3/107=0140
 000000,3/108=0140000000) CAM-B3LYP/6-31G(d,p)
 ----------------------------------------------------------------------

 --
 TD
 --
 Symbolic Z-matrix:
 Charge =  0 Multiplicity = 1

                         Standard orientation:
 ---------------------------------------------------------------------
 Center     Atomic      Atomic             Coordinates (Angstroms)
 Number     Number       Type             X           Y           Z
 ---------------------------------------------------------------------
      1         12           0       -5.485661    1.239861    0.089320
      2          6           0       -4.964426   -2.091552   -0.383685
      3          6           0       -3.490429    1.161391    2.721166
      4          6           0       -6.166664    4.511677    0.607217
      5          6           0       -7.909329    1.246600   -2.457541
      6          7           0       -4.270529   -0.292392    0.950497
      7          6           0       -4.190216   -1.579267    0.622761
      8          6           0       -3.211357   -2.299806    1.513137
      9          6           0       -2.868146   -1.263714    2.625525
     10          6           0       -3.585037   -0.071772    2.072375
     11          6           0       -3.440049   -1.723452    3.961794
     12          6           0       -2.081871   -2.731435    0.636006
     13          6           0       -0.901309   -3.529212    1.382418
     14          6           0        0.290249   -3.822126    0.566882
     15          8           0        0.494998   -3.507042   -0.547924
     16          8           0        1.133533   -4.738300    1.261545
     17          7           0       -4.908649    2.631120    1.428455
     18          6           0       -4.046452    2.424830    2.430365
     19          6           0       -3.799385    3.592139    3.228028
     20          6           0       -4.520132    4.571971    2.642721
     21          6           0       -5.225407    3.996974    1.474762
     22          6           0       -2.670165    3.815835    4.313064
     23          6           0       -4.532458    6.020953    2.912330
     24          8           0       -4.041160    6.619930    3.851249
     25          7           0       -6.836541    2.612574   -0.628522
     26          6           0       -6.885567    3.913822   -0.290623
     27          6           0       -7.859606    4.647133   -1.178756
     28          6           0       -8.316153    3.761663   -2.063599
     29          6           0       -7.735696    2.419320   -1.740024
     30          6           0       -8.318813    6.053682   -1.097175
     31          6           0       -9.435353    3.843858   -3.065311
     32          6           0       -8.925445    3.954272   -4.601647
     33          7           0       -6.313782   -0.125134   -1.133239
     34          6           0       -7.277116    0.049354   -2.109510
     35          6           0       -7.521487   -1.317277   -2.688909
     36          6           0       -6.743068   -2.118303   -2.072486
     37          6           0       -6.003834   -1.349199   -1.092338
     38          6           0       -8.475827   -1.673622   -3.745618
     39          6           0       -6.249291   -3.504665   -2.023498
     40          8           0       -6.674366   -4.531148   -2.546575
     41          6           0       -5.117971   -3.612768   -0.868581
     42          6           0       -5.445669   -4.643417    0.173748
     43          8           0       -5.839723   -4.529300    1.271581
     44          8           0       -5.110927   -5.845104   -0.479416
     45          6           0       -5.497365   -6.978297    0.411898
     46          6           0        2.367117   -5.103168    0.572936
     47          6           0        3.444485   -3.988995    0.936775
     48          6           0        4.038783   -3.191814    0.115916
     49          6           0        3.854212   -3.196494   -1.356831
     50          6           0        5.141235   -2.322580    0.674583
     51          6           0        6.515957   -2.799608    0.110149
     52          6           0        7.691935   -1.968157    0.650947
     53          6           0        9.038144   -2.163649    0.030146
     54          6           0        9.512143   -3.532873    0.221646
     55          6           0       10.055725   -1.107551    0.524464
     56          6           0       11.401799   -0.940682   -0.260898
     57          6           0       12.192158    0.266317    0.235206
     58          6           0       13.454336    0.405122   -0.543589
     59          6           0       14.532545   -0.639531   -0.253596
     60          6           0       14.141520    1.715136   -0.186196
     61          6           0       15.245574    2.195643   -1.075746
     62          6           0       15.952023    3.606903   -0.704932
     63          6           0       17.209876    4.103254   -1.411792
     64          6           0       17.086156    4.046122   -2.948473
     65          6           0       17.763066    5.345907   -0.913700
     66          1           0       -3.071409    1.119789    3.899885
     67          1           0       -6.440003    5.426669    0.693046
     68          1           0       -8.630939    1.344616   -3.292220
     69          1           0       -3.619671   -3.272880    2.023909
     70          1           0       -1.786897   -1.026421    2.641725
     71          1           0       -2.979409   -2.472646    4.559107
     72          1           0       -3.299550   -1.110345    4.908076
     73          1           0       -4.490372   -2.217236    4.106134
     74          1           0       -2.407842   -3.443466   -0.077473
     75          1           0       -1.587965   -1.962075    0.317098
     76          1           0       -0.716269   -3.002686    2.393232
     77          1           0       -1.118512   -4.597485    1.929197
     78          1           0       -1.460873    3.859375    4.089097
     79          1           0       -2.779097    4.712891    4.939003
     80          1           0       -2.707797    2.938589    5.261343
     81          1           0       -5.220898    6.516043    2.184753
     82          1           0      -10.060919    3.078170   -3.104930
     83          1           0       -9.899629    4.887202   -2.834645
     84          1           0       -9.763440    4.128277   -5.184935
     85          1           0       -8.252464    4.935021   -4.882804
     86          1           0       -8.316684    3.144044   -4.822151
     87          1           0       -8.061220   -1.105034   -4.809112
     88          1           0       -8.413368   -2.768545   -3.818458
     89          1           0       -9.474963   -1.685046   -3.383422
     90          1           0       -4.303680   -3.929187   -1.467611
     91          1           0        2.715021   -5.967880    1.076802
     92          1           0        2.163249   -5.187666   -0.485214
     93          1           0        3.454021   -3.868260    2.046746
     94          1           0        2.786967   -3.358753   -1.598873
     95          1           0        4.085511   -2.174713   -1.795517
     96          1           0        4.664248   -3.974387   -1.780364
     97          1           0        4.766296   -1.310090    0.400476
     98          1           0        4.918913   -2.455919    1.816226
     99          1           0        6.748843   -3.780579    0.220835
    100          1           0        6.484810   -2.730249   -1.050503
    101          1           0        7.348972   -0.810118    0.727571
    102          1           0        7.885558   -2.118034    1.739171
    103          1           0        8.953371   -1.940226   -1.090743
    104          1           0        8.913237   -4.320565   -0.152634
    105          1           0       10.396849   -3.572773   -0.338913
    106          1           0        9.746586   -3.683974    1.266043
    107          1           0        9.349262   -0.209373    0.442076
    108          1           0       10.248490   -1.247036    1.653062
    109          1           0       11.938185   -1.831741   -0.414955
    110          1           0       11.262261   -0.832066   -1.276346
    111          1           0       11.653257    1.060950   -0.313423
    112          1           0       12.401033    0.274926    1.399087
    113          1           0       13.316471    0.529549   -1.657143
    114          1           0       14.764831   -0.611549    0.907352
    115          1           0       14.225663   -1.789223   -0.583233
    116          1           0       15.681499   -0.324028   -0.663149
    117          1           0       13.456238    2.547898    0.081137
    118          1           0       14.683776    1.591226    0.876204
    119          1           0       16.020522    1.466865   -1.248657
    120          1           0       14.943247    2.377173   -2.284073
    121          1           0       15.090192    4.271575   -0.935234
    122          1           0       16.204195    3.482499    0.399806
    123          1           0       18.049061    3.308346   -0.870029
    124          1           0       16.311357    4.747312   -3.203270
    125          1           0       18.007356    4.474635   -3.365232
    126          1           0       16.853537    3.071856   -3.266615
    127          1           0       17.903434    5.441658    0.251565
    128          1           0       18.771488    5.582395   -1.281208
    129          1           0       17.241302    6.162967   -0.864270
    130          1           0       -5.079410   -7.680026   -0.121388
    131          1           0       -6.469004   -7.139101    0.582848
    132          1           0       -5.062797   -6.907123    1.572465
    133          8           0       -7.817602    6.860435   -0.304180
    134          1           0       -9.065281    6.209360   -1.932217
 ---------------------------------------------------------------------

 SCF Done:  E(RCAM-B3LYP) =  -3043.40097329     A.U. after   16 cycles

 Excitation energies and oscillator strengths:

 Excited State   1:      Singlet-A      2.0430 eV  606.86 nm  f=0.2338  <S**2>=0.000
     243 -> 246        0.23020
     244 -> 245        0.66144
 This state for optimization and/or second-order correction.
 Total Energy, E(TD-HF/TD-KS) =  -3043.32589312
 Copying the excited state density for this state as the 1-particle RhoCI density.

 The electronic state is 1-A.
 Alpha  occ. eigenvalues --  -46.81709 -19.22242 -19.20337 -19.18953 -19.18207
 Alpha  occ. eigenvalues --  -19.18149 -19.17867 -19.17116 -14.39120 -14.37309
 Alpha  occ. eigenvalues --  -14.37093 -14.36856 -10.35312 -10.34951 -10.32340
 Alpha  occ. eigenvalues --  -10.31580 -10.29994 -10.27330 -10.27202 -10.26747
 Alpha  occ. eigenvalues --  -10.26485 -10.26434 -10.26404 -10.26340 -10.26020
 Alpha  occ. eigenvalues --  -10.26013 -10.25421 -10.25411 -10.25328 -10.25225
 Alpha  occ. eigenvalues --  -10.25027 -10.24885 -10.24812 -10.24658 -10.24642
 Alpha  occ. eigenvalues --  -10.24486 -10.24199 -10.24073 -10.23611 -10.23582
 Alpha  occ. eigenvalues --  -10.23344 -10.23119 -10.23082 -10.22882 -10.22842
 Alpha  occ. eigenvalues --  -10.22773 -10.22451 -10.22170 -10.22018 -10.21953
 Alpha  occ. eigenvalues --  -10.21818 -10.21789 -10.21745 -10.21703 -10.21660
 Alpha  occ. eigenvalues --  -10.21559 -10.21403 -10.21297 -10.21084 -10.21030
 Alpha  occ. eigenvalues --  -10.20454 -10.20248 -10.19996 -10.19822 -10.19164
 Alpha  occ. eigenvalues --  -10.18611  -3.10394  -1.85328  -1.84845  -1.84825
 Alpha  occ. eigenvalues --   -1.13603  -1.12745  -1.07024  -1.06531  -1.06378
 Alpha  occ. eigenvalues --   -1.05511  -1.04336  -1.03089  -1.02095  -1.00147
 Alpha  occ. eigenvalues --   -0.98289  -0.87607  -0.86682  -0.86471  -0.86342
 Alpha  occ. eigenvalues --   -0.85855  -0.85764  -0.84746  -0.84441  -0.83902
 Alpha  occ. eigenvalues --   -0.83862  -0.83080  -0.81869  -0.80449  -0.79905
 Alpha  occ. eigenvalues --   -0.79044  -0.78237  -0.77607  -0.77466  -0.76207
 Alpha  occ. eigenvalues --   -0.75300  -0.74449  -0.73511  -0.73031  -0.72385
 Alpha  occ. eigenvalues --   -0.71939  -0.71284  -0.70683  -0.70140  -0.69790
 Alpha  occ. eigenvalues --   -0.69345  -0.68904  -0.67909  -0.67449  -0.66732
 Alpha  occ. eigenvalues --   -0.66691  -0.65435  -0.65117  -0.62914  -0.62410
 Alpha  occ. eigenvalues --   -0.62284  -0.61280  -0.61048  -0.59078  -0.58465
 Alpha  occ. eigenvalues --   -0.58121  -0.57898  -0.57547  -0.57177  -0.56874
 Alpha  occ. eigenvalues --   -0.56482  -0.55974  -0.55357  -0.55012  -0.54705
 Alpha  occ. eigenvalues --   -0.54137  -0.53889  -0.53737  -0.52943  -0.52370
 Alpha  occ. eigenvalues --   -0.52005  -0.51464  -0.51076  -0.50777  -0.50593
 Alpha  occ. eigenvalues --   -0.50138  -0.49994  -0.49757  -0.49070  -0.49033
 Alpha  occ. eigenvalues --   -0.48973  -0.48633  -0.48534  -0.48387  -0.48256
 Alpha  occ. eigenvalues --   -0.47828  -0.47698  -0.47402  -0.47069  -0.47002
 Alpha  occ. eigenvalues --   -0.46767  -0.46577  -0.46473  -0.46363  -0.45963
 Alpha  occ. eigenvalues --   -0.45809  -0.45683  -0.45378  -0.45309  -0.44937
 Alpha  occ. eigenvalues --   -0.44759  -0.44674  -0.44499  -0.44202  -0.43738
 Alpha  occ. eigenvalues --   -0.43610  -0.43284  -0.43082  -0.42974  -0.42872
 Alpha  occ. eigenvalues --   -0.42491  -0.42173  -0.41571  -0.41533  -0.41487
 Alpha  occ. eigenvalues --   -0.41279  -0.41270  -0.41154  -0.41083  -0.40988
 Alpha  occ. eigenvalues --   -0.40883  -0.40653  -0.40560  -0.40357  -0.40111
 Alpha  occ. eigenvalues --   -0.39789  -0.39586  -0.39557  -0.39434  -0.39188
 Alpha  occ. eigenvalues --   -0.38936  -0.38746  -0.38594  -0.38506  -0.38445
 Alpha  occ. eigenvalues --   -0.38238  -0.38071  -0.37987  -0.37357  -0.37293
 Alpha  occ. eigenvalues --   -0.36965  -0.36849  -0.36473  -0.36404  -0.35692
 Alpha  occ. eigenvalues --   -0.35329  -0.35097  -0.34972  -0.34722  -0.34480
 Alpha  occ. eigenvalues --   -0.34228  -0.34043  -0.33496  -0.33470  -0.32915
 Alpha  occ. eigenvalues --   -0.32676  -0.32368  -0.32277  -0.32239  -0.31573
 Alpha  occ. eigenvalues --   -0.31348  -0.31237  -0.30662  -0.30633  -0.30402
 Alpha  occ. eigenvalues --   -0.30242  -0.29103  -0.28680  -0.28446  -0.28093
 Alpha  occ. eigenvalues --   -0.27560  -0.26813  -0.23152  -0.21460
 Alpha virt. eigenvalues --   -0.08568  -0.05885  -0.01438  -0.01003   0.00208
 Alpha virt. eigenvalues --    0.02443   0.03127   0.03227   0.04431   0.04957
 Alpha virt. eigenvalues --    0.05852   0.06146   0.07694   0.08423   0.08988

 Mulliken charges:
               1
     1  Mg   0.830876
     2  C    0.006280
     3  C   -0.197006
     4  C   -0.130027
     5  C   -0.166863
     6  N   -0.627594
     7  C    0.333333
     8  C   -0.181523
     9  C   -0.129562
    10  C    0.343697
    11  C   -0.337846
    12  C   -0.143892
    13  C   -0.314054
    14  C    0.630394
    15  O   -0.437435
    16  O   -0.509595
    17  N   -0.707344
    18  C    0.327001
    19  C    0.053354
    20  C   -0.009526
    21  C    0.279057
    22  C   -0.364663
    23  C    0.252269
    24  O   -0.416628
    25  N   -0.709614
    26  C    0.339924
    27  C   -0.018406
    28  C    0.039745
    29  C    0.256688
    30  C    0.263209
    31  C   -0.249783
    32  C   -0.325359
    33  N   -0.715844
    34  C    0.251659
    35  C   -0.032799
    36  C    0.112739
    37  C    0.315322
    38  C   -0.390388
    39  C    0.340103
    40  O   -0.445251
    41  C   -0.296733
    42  C    0.642609
    43  O   -0.439002
    44  O   -0.472903
    45  C   -0.082349
    46  C    0.008319
    47  C   -0.143282
    48  C    0.128613
    49  C   -0.368502
    50  C   -0.212441
    51  C   -0.168210
    52  C   -0.159127
    53  C   -0.067780
    54  C   -0.296880
    55  C   -0.164142
    56  C   -0.191547
    57  C   -0.144891
    58  C   -0.056237
    59  C   -0.285507
    60  C   -0.163953
    61  C   -0.177142
    62  C   -0.163598
    63  C   -0.026905
    64  C   -0.312080
    65  C   -0.304053
    66  H    0.079559
    67  H    0.078612
    68  H    0.100153
    69  H    0.122197
    70  H    0.125351
    71  H    0.118662
    72  H    0.101427
    73  H    0.124882
    74  H    0.130850
    75  H    0.126825
    76  H    0.131241
    77  H    0.128434
    78  H    0.117521
    79  H    0.162453
    80  H    0.068963
    81  H    0.078946
    82  H    0.132339
    83  H    0.096246
    84  H    0.126274
    85  H    0.088217
    86  H    0.125629
    87  H    0.106930
    88  H    0.146323
    89  H    0.140407
    90  H    0.167186
    91  H    0.117304
    92  H    0.122310
    93  H    0.079846
    94  H    0.143161
    95  H    0.101710
    96  H    0.103712
    97  H    0.099298
    98  H    0.082464
    99  H    0.113942
   100  H    0.085732
   101  H    0.059352
   102  H    0.084179
   103  H    0.066254
   104  H    0.100405
   105  H    0.103542
   106  H    0.099266
   107  H    0.083903
   108  H    0.073978
   109  H    0.094418
   110  H    0.095909
   111  H    0.108570
   112  H    0.089774
   113  H    0.090957
   114  H    0.088410
   115  H    0.075413
   116  H    0.081205
   117  H    0.086579
   118  H    0.065532
   119  H    0.098932
   120  H    0.040516
   121  H    0.085576
   122  H    0.081809
   123  H    0.040313
   124  H    0.107934
   125  H    0.100971
   126  H    0.117709
   127  H    0.071997
   128  H    0.103511
   129  H    0.113055
   130  H    0.129668
   131  H    0.145344
   132  H    0.095871
   133  O   -0.427580
   134  H    0.074700
 Sum of Mulliken charges =   0.00000

 Dipole moment (field-independent basis, Debye):
    X=              0.4344    Y=             -4.1626    Z=             -2.0316  Tot=              4.6522
 Quadrupole moment (field-independent basis, Debye-Ang):
   XX=           -380.0465   YY=           -441.9017   ZZ=           -392.2044
   XY=             14.0100   XZ=             24.5682   YZ=            -38.8768

 Normal termination of Gaussian 09 at Tue Oct  8 03:24:42 2019.
