 Gaussian 09, Revision D.01,
 Gaussian 09:  ES64L-G09RevD.01 24-Apr-2013

 ----------------------------------------------------------------------
 # td=(NStates=1) iop(3/107=0140000000,3/108=0140000000) iop(3/107=0140
 000000,3/108=0140000000) CAM-B3LYP/6-31G(d,p)
 ----------------------------------------------------------------------

 --
 TD
 --
 Symbolic Z-matrix:
 Charge =  0 Multiplicity = 1

                         Standard orientation:
 ---------------------------------------------------------------------
 Center     Atomic      Atomic             Coordinates (Angstroms)
 Number     Number       Type             X           Y           Z
 ---------------------------------------------------------------------
      1         12           0       -5.646248    1.227400    0.286667
      2          6           0       -4.875584   -2.087537   -0.528204
      3          6           0       -3.295733    1.156844    2.701259
      4          6           0       -6.182573    4.485791    0.729742
      5          6           0       -8.087694    1.208857   -2.300586
      6          7           0       -4.367988   -0.313167    1.107249
      7          6           0       -4.167726   -1.559890    0.591014
      8          6           0       -3.232650   -2.378667    1.421388
      9          6           0       -2.795716   -1.320585    2.565016
     10          6           0       -3.535214   -0.089620    2.085661
     11          6           0       -3.241409   -1.778944    3.980416
     12          6           0       -1.975022   -2.767216    0.596883
     13          6           0       -1.018045   -3.682339    1.430741
     14          6           0        0.244082   -3.894664    0.705508
     15          8           0        0.448550   -3.544218   -0.429616
     16          8           0        0.997124   -4.756211    1.327269
     17          7           0       -4.951368    2.590956    1.525491
     18          6           0       -3.971966    2.454858    2.399060
     19          6           0       -3.736681    3.680759    3.191845
     20          6           0       -4.490820    4.627108    2.620320
     21          6           0       -5.171941    3.957749    1.532579
     22          6           0       -2.726959    3.784864    4.210326
     23          6           0       -4.502147    6.036651    2.882703
     24          8           0       -3.938670    6.557124    3.802357
     25          7           0       -6.903389    2.584228   -0.564577
     26          6           0       -6.928274    3.993934   -0.323185
     27          6           0       -7.786115    4.715712   -1.239482
     28          6           0       -8.412916    3.654822   -2.040863
     29          6           0       -7.755001    2.423865   -1.716510
     30          6           0       -8.269788    6.053823   -1.168419
     31          6           0       -9.303179    3.901798   -3.157517
     32          6           0       -8.493885    3.899990   -4.544336
     33          7           0       -6.356749   -0.126773   -1.036183
     34          6           0       -7.343336   -0.016920   -2.017461
     35          6           0       -7.634743   -1.295202   -2.617621
     36          6           0       -6.655838   -2.180198   -1.982399
     37          6           0       -5.994028   -1.353907   -1.160040
     38          6           0       -8.526197   -1.550617   -3.802564
     39          6           0       -6.200549   -3.494399   -2.099092
     40          8           0       -6.579778   -4.496216   -2.599631
     41          6           0       -5.030991   -3.489005   -0.996139
     42          6           0       -5.261532   -4.554773    0.015163
     43          8           0       -5.626768   -4.428555    1.125712
     44          8           0       -4.916294   -5.828812   -0.486760
     45          6           0       -5.332697   -6.945068    0.271822
     46          6           0        2.319289   -5.132294    0.611448
     47          6           0        3.460613   -4.222884    1.053606
     48          6           0        4.067304   -3.270756    0.319256
     49          6           0        3.737257   -3.310143   -1.192178
     50          6           0        5.166245   -2.498481    0.853319
     51          6           0        6.539336   -2.874283    0.060380
     52          6           0        7.606018   -1.958228    0.663483
     53          6           0        8.988814   -2.098377   -0.101932
     54          6           0        9.653482   -3.441715    0.303443
     55          6           0        9.907752   -0.899026    0.358314
     56          6           0       11.331559   -0.914524   -0.289298
     57          6           0       12.114507    0.314484    0.135082
     58          6           0       13.447582    0.511418   -0.671826
     59          6           0       14.411632   -0.740844   -0.425265
     60          6           0       14.142238    1.829175   -0.211365
     61          6           0       15.350751    2.187658   -1.000962
     62          6           0       15.728247    3.727030   -0.679076
     63          6           0       17.027838    4.123435   -1.361259
     64          6           0       16.948749    4.109418   -2.907964
     65          6           0       17.470371    5.426743   -0.826280
     66          1           0       -2.693607    1.440953    3.795613
     67          1           0       -6.301770    5.559804    1.035501
     68          1           0       -8.754807    0.942085   -3.202426
     69          1           0       -3.656770   -3.356572    1.799200
     70          1           0       -1.564148   -1.006687    2.706945
     71          1           0       -2.508196   -2.628472    4.191186
     72          1           0       -2.857409   -1.227491    4.783608
     73          1           0       -4.347719   -1.865214    3.949382
     74          1           0       -2.369832   -3.332113   -0.252942
     75          1           0       -1.393210   -2.014585    0.135422
     76          1           0       -0.713434   -3.103231    2.443582
     77          1           0       -1.414748   -4.575137    1.741545
     78          1           0       -1.724941    3.140858    4.214452
     79          1           0       -2.644870    4.893835    4.408282
     80          1           0       -3.205413    3.300092    5.190627
     81          1           0       -5.229972    6.606839    2.263186
     82          1           0      -10.039000    3.030605   -3.194431
     83          1           0       -9.912119    4.851095   -2.940399
     84          1           0       -9.045062    3.845213   -5.350212
     85          1           0       -7.871769    4.878327   -4.591596
     86          1           0       -7.796745    2.956111   -4.597519
     87          1           0       -7.971440   -0.996953   -4.721453
     88          1           0       -8.637387   -2.602115   -3.992893
     89          1           0       -9.559329   -1.098854   -3.575843
     90          1           0       -4.211858   -3.717186   -1.548168
     91          1           0        2.968483   -6.103220    0.988176
     92          1           0        2.159803   -5.431776   -0.401344
     93          1           0        3.683750   -4.471295    2.044473
     94          1           0        2.746634   -3.694822   -1.117307
     95          1           0        3.947294   -2.333229   -1.570697
     96          1           0        4.472714   -3.911762   -1.746303
     97          1           0        4.910403   -1.514982    0.521187
     98          1           0        5.093990   -2.399347    1.961520
     99          1           0        6.699561   -4.006886    0.349084
    100          1           0        6.415076   -2.700130   -0.963736
    101          1           0        7.315743   -0.942809    0.534105
    102          1           0        7.640052   -2.212044    1.609566
    103          1           0        8.845234   -2.217574   -1.289159
    104          1           0        9.113268   -4.441258   -0.133708
    105          1           0       10.636462   -3.457314    0.015877
    106          1           0        9.693893   -3.551994    1.417433
    107          1           0        9.426033   -0.020594    0.050147
    108          1           0        9.892398   -0.906421    1.524399
    109          1           0       11.615954   -1.740626    0.197723
    110          1           0       11.330090   -1.058056   -1.326629
    111          1           0       11.602563    1.231594   -0.022135
    112          1           0       12.224515    0.194547    1.215444
    113          1           0       13.307440    0.599473   -1.825456
    114          1           0       14.618384   -0.810528    0.437753
    115          1           0       13.831760   -1.688427   -0.875914
    116          1           0       15.211546   -0.599743   -1.148826
    117          1           0       13.498575    2.582533   -0.235163
    118          1           0       14.374410    1.704618    0.841693
    119          1           0       16.278715    1.526531   -0.843979
    120          1           0       14.907452    2.106976   -1.944224
    121          1           0       14.936109    4.437241   -1.103672
    122          1           0       15.740177    3.843511    0.429368
    123          1           0       17.835596    3.411324   -1.027283
    124          1           0       15.907087    4.748747   -3.223637
    125          1           0       17.931626    4.532277   -3.366544
    126          1           0       16.515532    3.246516   -3.511219
    127          1           0       17.946588    5.337379    0.142272
    128          1           0       18.389453    5.914165   -1.315842
    129          1           0       16.737307    6.327002   -0.819783
    130          1           0       -4.858432   -7.877855   -0.288446
    131          1           0       -6.357148   -6.911316    0.569617
    132          1           0       -4.782478   -6.864184    1.254719
    133          8           0       -7.796072    6.898945   -0.371475
    134          1           0       -9.231658    6.316507   -1.868629
 ---------------------------------------------------------------------

 SCF Done:  E(RCAM-B3LYP) =  -3043.43433029     A.U. after   16 cycles

 Excitation energies and oscillator strengths:

 Excited State   1:      Singlet-A      2.0381 eV  608.34 nm  f=0.1294  <S**2>=0.000
     243 -> 245       -0.16630
     243 -> 246       -0.31465
     244 -> 245        0.59650
 This state for optimization and/or second-order correction.
 Total Energy, E(TD-HF/TD-KS) =  -3043.35943229
 Copying the excited state density for this state as the 1-particle RhoCI density.

 The electronic state is 1-A.
 Alpha  occ. eigenvalues --  -46.81537 -19.22137 -19.20341 -19.17972 -19.17435
 Alpha  occ. eigenvalues --  -19.17077 -19.16735 -19.15596 -14.38885 -14.37613
 Alpha  occ. eigenvalues --  -14.37330 -14.36488 -10.34438 -10.33547 -10.31054
 Alpha  occ. eigenvalues --  -10.30680 -10.30597 -10.28830 -10.27715 -10.27447
 Alpha  occ. eigenvalues --  -10.27391 -10.27379 -10.26839 -10.26837 -10.26749
 Alpha  occ. eigenvalues --  -10.26310 -10.26234 -10.25645 -10.25635 -10.25396
 Alpha  occ. eigenvalues --  -10.25053 -10.24964 -10.24858 -10.24703 -10.24566
 Alpha  occ. eigenvalues --  -10.24069 -10.23944 -10.23676 -10.23559 -10.23208
 Alpha  occ. eigenvalues --  -10.23146 -10.23138 -10.23098 -10.23023 -10.22744
 Alpha  occ. eigenvalues --  -10.22710 -10.22401 -10.22324 -10.22155 -10.22133
 Alpha  occ. eigenvalues --  -10.22092 -10.22052 -10.21508 -10.21375 -10.21296
 Alpha  occ. eigenvalues --  -10.21167 -10.20672 -10.20576 -10.20525 -10.20507
 Alpha  occ. eigenvalues --  -10.20154 -10.19869 -10.19662 -10.19133 -10.18951
 Alpha  occ. eigenvalues --  -10.18711  -3.10246  -1.85172  -1.84701  -1.84690
 Alpha  occ. eigenvalues --   -1.13401  -1.12952  -1.08861  -1.08837  -1.04815
 Alpha  occ. eigenvalues --   -1.04504  -1.03579  -1.02186  -1.01712  -1.01036
 Alpha  occ. eigenvalues --   -0.97031  -0.88916  -0.86210  -0.85958  -0.85570
 Alpha  occ. eigenvalues --   -0.85249  -0.84878  -0.84197  -0.84154  -0.83371
 Alpha  occ. eigenvalues --   -0.82922  -0.82822  -0.81192  -0.80583  -0.79713
 Alpha  occ. eigenvalues --   -0.78821  -0.78099  -0.77436  -0.76376  -0.76244
 Alpha  occ. eigenvalues --   -0.75013  -0.74863  -0.73960  -0.72766  -0.71842
 Alpha  occ. eigenvalues --   -0.71562  -0.70832  -0.70033  -0.69754  -0.69408
 Alpha  occ. eigenvalues --   -0.69200  -0.68718  -0.67847  -0.67167  -0.66890
 Alpha  occ. eigenvalues --   -0.66517  -0.65122  -0.64065  -0.62762  -0.61726
 Alpha  occ. eigenvalues --   -0.61398  -0.61305  -0.60271  -0.59261  -0.58652
 Alpha  occ. eigenvalues --   -0.58275  -0.58137  -0.57746  -0.57707  -0.57001
 Alpha  occ. eigenvalues --   -0.56807  -0.56341  -0.55402  -0.55267  -0.54472
 Alpha  occ. eigenvalues --   -0.54082  -0.53316  -0.52267  -0.52106  -0.51690
 Alpha  occ. eigenvalues --   -0.51271  -0.51208  -0.50908  -0.50777  -0.50576
 Alpha  occ. eigenvalues --   -0.50349  -0.49905  -0.49660  -0.49342  -0.49173
 Alpha  occ. eigenvalues --   -0.48689  -0.48456  -0.48338  -0.48173  -0.47857
 Alpha  occ. eigenvalues --   -0.47827  -0.47697  -0.47365  -0.46959  -0.46798
 Alpha  occ. eigenvalues --   -0.46708  -0.46294  -0.46267  -0.45987  -0.45848
 Alpha  occ. eigenvalues --   -0.45534  -0.45253  -0.45066  -0.44963  -0.44831
 Alpha  occ. eigenvalues --   -0.44613  -0.44492  -0.44231  -0.44013  -0.43724
 Alpha  occ. eigenvalues --   -0.43523  -0.43212  -0.43119  -0.43011  -0.42733
 Alpha  occ. eigenvalues --   -0.42479  -0.42353  -0.42249  -0.42025  -0.41948
 Alpha  occ. eigenvalues --   -0.41712  -0.41667  -0.41422  -0.41322  -0.41033
 Alpha  occ. eigenvalues --   -0.40744  -0.40690  -0.40202  -0.40124  -0.39998
 Alpha  occ. eigenvalues --   -0.39814  -0.39514  -0.39384  -0.39310  -0.39127
 Alpha  occ. eigenvalues --   -0.38886  -0.38758  -0.38456  -0.38292  -0.38055
 Alpha  occ. eigenvalues --   -0.37845  -0.37726  -0.37571  -0.37474  -0.37207
 Alpha  occ. eigenvalues --   -0.36741  -0.36603  -0.36157  -0.35826  -0.35747
 Alpha  occ. eigenvalues --   -0.35576  -0.35296  -0.35255  -0.34870  -0.34761
 Alpha  occ. eigenvalues --   -0.34503  -0.34310  -0.34169  -0.34048  -0.33371
 Alpha  occ. eigenvalues --   -0.32662  -0.32483  -0.32320  -0.31812  -0.31608
 Alpha  occ. eigenvalues --   -0.31001  -0.30767  -0.30003  -0.29782  -0.29666
 Alpha  occ. eigenvalues --   -0.28878  -0.28548  -0.28218  -0.27741  -0.27548
 Alpha  occ. eigenvalues --   -0.27362  -0.26015  -0.22475  -0.22260
 Alpha virt. eigenvalues --   -0.09035  -0.06987  -0.01666  -0.01546   0.00998
 Alpha virt. eigenvalues --    0.03328   0.03557   0.03912   0.04103   0.04526
 Alpha virt. eigenvalues --    0.05096   0.05271   0.07628   0.07841   0.08577

 Mulliken charges:
               1
     1  Mg   0.831319
     2  C    0.026396
     3  C   -0.189465
     4  C   -0.212451
     5  C   -0.149205
     6  N   -0.616642
     7  C    0.311266
     8  C   -0.178242
     9  C   -0.144388
    10  C    0.355444
    11  C   -0.296792
    12  C   -0.171542
    13  C   -0.267610
    14  C    0.615716
    15  O   -0.478754
    16  O   -0.460484
    17  N   -0.671433
    18  C    0.305414
    19  C    0.077598
    20  C    0.015453
    21  C    0.271498
    22  C   -0.425010
    23  C    0.247874
    24  O   -0.406912
    25  N   -0.674298
    26  C    0.303037
    27  C    0.021650
    28  C    0.038415
    29  C    0.293250
    30  C    0.217915
    31  C   -0.260481
    32  C   -0.300000
    33  N   -0.701268
    34  C    0.218028
    35  C    0.015494
    36  C    0.063078
    37  C    0.334118
    38  C   -0.377182
    39  C    0.311476
    40  O   -0.428500
    41  C   -0.328289
    42  C    0.619102
    43  O   -0.447297
    44  O   -0.469801
    45  C   -0.074287
    46  C   -0.019688
    47  C   -0.139649
    48  C    0.116745
    49  C   -0.362575
    50  C   -0.247302
    51  C   -0.183343
    52  C   -0.147235
    53  C   -0.064090
    54  C   -0.309765
    55  C   -0.195666
    56  C   -0.176895
    57  C   -0.165588
    58  C   -0.091036
    59  C   -0.281828
    60  C   -0.166274
    61  C   -0.171431
    62  C   -0.174672
    63  C   -0.028586
    64  C   -0.293171
    65  C   -0.311410
    66  H    0.067339
    67  H    0.115166
    68  H    0.102876
    69  H    0.138131
    70  H    0.081733
    71  H    0.102170
    72  H    0.117270
    73  H    0.128662
    74  H    0.112771
    75  H    0.130815
    76  H    0.106008
    77  H    0.147185
    78  H    0.130721
    79  H    0.161501
    80  H    0.120169
    81  H    0.086052
    82  H    0.106477
    83  H    0.107585
    84  H    0.128598
    85  H    0.111765
    86  H    0.101764
    87  H    0.124046
    88  H    0.155438
    89  H    0.120216
    90  H    0.161836
    91  H    0.098372
    92  H    0.143962
    93  H    0.087712
    94  H    0.152133
    95  H    0.100766
    96  H    0.113727
    97  H    0.107273
    98  H    0.097166
    99  H    0.093114
   100  H    0.108138
   101  H    0.092454
   102  H    0.104330
   103  H    0.064192
   104  H    0.077023
   105  H    0.114225
   106  H    0.090451
   107  H    0.096566
   108  H    0.077742
   109  H    0.115536
   110  H    0.095956
   111  H    0.089850
   112  H    0.087157
   113  H    0.061990
   114  H    0.106521
   115  H    0.076083
   116  H    0.101907
   117  H    0.097278
   118  H    0.080568
   119  H    0.088830
   120  H    0.097298
   121  H    0.082340
   122  H    0.092014
   123  H    0.083535
   124  H    0.055356
   125  H    0.100283
   126  H    0.106777
   127  H    0.105712
   128  H    0.080451
   129  H    0.091645
   130  H    0.116075
   131  H    0.133216
   132  H    0.103664
   133  O   -0.441418
   134  H    0.055983
 Sum of Mulliken charges =   0.00000

 Dipole moment (field-independent basis, Debye):
    X=              2.4926    Y=             -3.0434    Z=             -0.7095  Tot=              3.9973
 Quadrupole moment (field-independent basis, Debye-Ang):
   XX=           -369.4872   YY=           -450.0632   ZZ=           -387.1983
   XY=              2.2167   XZ=             30.5279   YZ=            -29.1664

 Normal termination of Gaussian 09 at Thu Oct  3 14:07:35 2019.
