 Gaussian 09, Revision D.01,
 Gaussian 09:  ES64L-G09RevD.01 24-Apr-2013

 ----------------------------------------------------------------------
 # td=(NStates=1) iop(3/107=0140000000,3/108=0140000000) iop(3/107=0140
 000000,3/108=0140000000) CAM-B3LYP/6-31G(d,p)
 ----------------------------------------------------------------------

 --
 TD
 --
 Symbolic Z-matrix:
 Charge =  0 Multiplicity = 1

                         Standard orientation:
 ---------------------------------------------------------------------
 Center     Atomic      Atomic             Coordinates (Angstroms)
 Number     Number       Type             X           Y           Z
 ---------------------------------------------------------------------
      1         12           0       -5.642920    1.204621    0.233731
      2          6           0       -4.977372   -2.133437   -0.374315
      3          6           0       -3.343605    1.103497    2.788468
      4          6           0       -6.170064    4.605295    0.795880
      5          6           0       -7.926984    1.339735   -2.343803
      6          7           0       -4.397675   -0.314439    1.090396
      7          6           0       -4.254085   -1.594024    0.653385
      8          6           0       -3.282617   -2.368629    1.494247
      9          6           0       -2.990604   -1.410444    2.663846
     10          6           0       -3.619967   -0.146271    2.225935
     11          6           0       -3.677154   -1.904104    3.974030
     12          6           0       -2.025795   -2.884235    0.741701
     13          6           0       -1.037950   -3.613875    1.544036
     14          6           0        0.157615   -4.080960    0.663458
     15          8           0        0.329769   -3.852495   -0.502271
     16          8           0        1.016646   -4.789394    1.413882
     17          7           0       -4.918991    2.633927    1.534450
     18          6           0       -3.934199    2.408285    2.521414
     19          6           0       -3.629955    3.574906    3.179940
     20          6           0       -4.340591    4.668104    2.641231
     21          6           0       -5.273015    3.989733    1.585352
     22          6           0       -2.728589    3.743758    4.335219
     23          6           0       -4.513491    6.051625    2.948995
     24          8           0       -3.911895    6.714189    3.784234
     25          7           0       -6.929041    2.637049   -0.622473
     26          6           0       -6.849031    3.981170   -0.305493
     27          6           0       -7.791175    4.723942   -1.254522
     28          6           0       -8.326691    3.807552   -1.994106
     29          6           0       -7.795772    2.462933   -1.670104
     30          6           0       -8.071342    6.149889   -1.307368
     31          6           0       -9.270586    3.985518   -3.115420
     32          6           0       -8.589414    4.107613   -4.526716
     33          7           0       -6.438238   -0.030331   -1.085424
     34          6           0       -7.312543    0.087205   -2.103284
     35          6           0       -7.539625   -1.256228   -2.708111
     36          6           0       -6.697010   -2.121613   -2.073906
     37          6           0       -5.970597   -1.340020   -1.086759
     38          6           0       -8.444519   -1.461851   -3.807172
     39          6           0       -6.061117   -3.516611   -2.103033
     40          8           0       -6.485066   -4.495101   -2.820243
     41          6           0       -4.967958   -3.479220   -1.061066
     42          6           0       -5.358080   -4.612644   -0.013991
     43          8           0       -5.767630   -4.404026    1.085272
     44          8           0       -5.156562   -5.844251   -0.576412
     45          6           0       -5.456488   -6.960827    0.342322
     46          6           0        2.286154   -5.074714    0.624002
     47          6           0        3.305224   -4.155649    1.066703
     48          6           0        3.963642   -3.379355    0.224471
     49          6           0        3.644361   -3.123138   -1.253851
     50          6           0        5.162672   -2.520822    0.705129
     51          6           0        6.513361   -2.855106   -0.044414
     52          6           0        7.626409   -1.932718    0.570749
     53          6           0        8.933574   -2.102691   -0.155588
     54          6           0        9.494564   -3.402681    0.130348
     55          6           0        9.918361   -0.903675    0.405214
     56          6           0       11.264343   -0.903802   -0.375245
     57          6           0       12.111836    0.409519    0.161205
     58          6           0       13.536614    0.447017   -0.525663
     59          6           0       14.455564   -0.706277   -0.375752
     60          6           0       14.124686    1.825080   -0.159025
     61          6           0       15.417699    2.236610   -0.990470
     62          6           0       16.035174    3.569385   -0.518570
     63          6           0       17.375354    3.932168   -1.303198
     64          6           0       17.173025    4.033002   -2.865241
     65          6           0       17.927740    5.238648   -0.783335
     66          1           0       -2.760137    0.938528    3.656558
     67          1           0       -6.396367    5.743830    0.846334
     68          1           0       -8.636062    1.336852   -3.212621
     69          1           0       -3.828465   -3.295823    1.913397
     70          1           0       -1.912747   -1.300315    2.752439
     71          1           0       -3.442213   -3.024943    4.355395
     72          1           0       -3.405114   -1.154403    4.789736
     73          1           0       -4.718878   -1.899765    3.972704
     74          1           0       -2.350286   -3.444934   -0.065839
     75          1           0       -1.579519   -2.042366    0.448995
     76          1           0       -0.625935   -3.012269    2.430062
     77          1           0       -1.595900   -4.513229    2.085841
     78          1           0       -1.547968    3.706603    3.938768
     79          1           0       -2.685454    4.716345    4.766968
     80          1           0       -2.901667    3.125314    5.256343
     81          1           0       -5.169982    6.726635    2.178096
     82          1           0      -10.107881    3.020939   -2.957875
     83          1           0       -9.821072    4.760602   -2.976382
     84          1           0       -9.305795    4.430471   -5.336696
     85          1           0       -7.798352    4.781328   -4.585320
     86          1           0       -8.204085    3.148331   -5.031632
     87          1           0       -8.408594   -0.830512   -4.752866
     88          1           0       -8.246893   -2.457882   -4.404684
     89          1           0       -9.658352   -1.447519   -3.633279
     90          1           0       -4.030190   -3.854900   -1.386845
     91          1           0        2.529112   -6.093758    1.081358
     92          1           0        1.967283   -5.301230   -0.297300
     93          1           0        3.423895   -4.283839    2.121494
     94          1           0        2.522244   -3.370485   -1.493004
     95          1           0        3.923117   -2.035589   -1.399963
     96          1           0        4.163316   -3.790808   -1.940277
     97          1           0        4.871909   -1.536930    0.472488
     98          1           0        5.210807   -2.632911    1.918689
     99          1           0        6.748248   -3.896833   -0.157318
    100          1           0        6.532999   -2.738854   -1.129290
    101          1           0        7.243100   -0.863689    0.576716
    102          1           0        7.717179   -2.357787    1.536685
    103          1           0        8.891529   -2.000880   -1.168202
    104          1           0        9.070813   -4.263699   -0.388413
    105          1           0       10.598509   -3.252992   -0.205160
    106          1           0        9.638599   -3.756838    1.166840
    107          1           0        9.398612   -0.068553    0.326086
    108          1           0       10.095361   -1.314721    1.455717
    109          1           0       11.956998   -1.853947   -0.189153
    110          1           0       11.177589   -0.491293   -1.476203
    111          1           0       11.612281    1.417733   -0.080042
    112          1           0       12.300836    0.182317    1.180885
    113          1           0       13.194114    0.712742   -1.530272
    114          1           0       14.685772   -1.141262    0.614464
    115          1           0       13.798374   -1.596203   -0.588565
    116          1           0       15.582375   -0.506811   -0.794450
    117          1           0       13.483210    2.696328   -0.374657
    118          1           0       14.247989    1.817173    0.962653
    119          1           0       16.309063    1.270097   -1.035350
    120          1           0       14.955574    2.211397   -1.983229
    121          1           0       15.351306    4.381316   -0.804932
    122          1           0       16.108178    3.335181    0.496972
    123          1           0       17.966064    3.119631   -1.015431
    124          1           0       16.486947    4.832505   -3.112524
    125          1           0       18.148991    4.243809   -3.379565
    126          1           0       16.964855    2.949442   -3.255444
    127          1           0       17.966002    5.398644    0.204937
    128          1           0       18.731767    5.632117   -1.407366
    129          1           0       17.086655    5.991014   -1.074918
    130          1           0       -5.039687   -7.853455   -0.113060
    131          1           0       -6.624964   -7.085259    0.678464
    132          1           0       -4.725706   -6.830700    1.183063
    133          8           0       -7.651873    6.907397   -0.422016
    134          1           0       -8.817677    6.522109   -2.280533
 ---------------------------------------------------------------------

 SCF Done:  E(RCAM-B3LYP) =  -3043.48279029     A.U. after   16 cycles

 Excitation energies and oscillator strengths:

 Excited State   1:      Singlet-A      1.9133 eV  648.02 nm  f=0.2770  <S**2>=0.000
     243 -> 246       -0.20660
     244 -> 245        0.66632
 This state for optimization and/or second-order correction.
 Total Energy, E(TD-HF/TD-KS) =  -3043.41247892
 Copying the excited state density for this state as the 1-particle RhoCI density.

 The electronic state is 1-A.
 Alpha  occ. eigenvalues --  -46.81464 -19.23380 -19.21490 -19.18719 -19.18690
 Alpha  occ. eigenvalues --  -19.17348 -19.17233 -19.16060 -14.38951 -14.37335
 Alpha  occ. eigenvalues --  -14.37243 -14.36875 -10.36063 -10.34871 -10.32880
 Alpha  occ. eigenvalues --  -10.32575 -10.29959 -10.29206 -10.27443 -10.27405
 Alpha  occ. eigenvalues --  -10.27079 -10.27044 -10.26558 -10.26400 -10.26343
 Alpha  occ. eigenvalues --  -10.26224 -10.26142 -10.25565 -10.24910 -10.24834
 Alpha  occ. eigenvalues --  -10.24463 -10.24461 -10.24242 -10.24224 -10.24021
 Alpha  occ. eigenvalues --  -10.23878 -10.23792 -10.23712 -10.23658 -10.23654
 Alpha  occ. eigenvalues --  -10.23391 -10.23322 -10.23275 -10.23146 -10.23001
 Alpha  occ. eigenvalues --  -10.22955 -10.22927 -10.22689 -10.22558 -10.22365
 Alpha  occ. eigenvalues --  -10.22220 -10.21674 -10.21455 -10.21411 -10.21308
 Alpha  occ. eigenvalues --  -10.21304 -10.21257 -10.21255 -10.21025 -10.20988
 Alpha  occ. eigenvalues --  -10.20712 -10.20704 -10.20466 -10.20306 -10.20107
 Alpha  occ. eigenvalues --  -10.19312  -3.10016  -1.84960  -1.84494  -1.84417
 Alpha  occ. eigenvalues --   -1.13910  -1.13172  -1.07067  -1.06194  -1.05334
 Alpha  occ. eigenvalues --   -1.04492  -1.03363  -1.00454  -0.99772  -0.98877
 Alpha  occ. eigenvalues --   -0.97547  -0.88920  -0.86564  -0.86286  -0.86071
 Alpha  occ. eigenvalues --   -0.85166  -0.84893  -0.84352  -0.84094  -0.83165
 Alpha  occ. eigenvalues --   -0.82835  -0.82629  -0.81711  -0.80380  -0.79582
 Alpha  occ. eigenvalues --   -0.78779  -0.77962  -0.77277  -0.76963  -0.76334
 Alpha  occ. eigenvalues --   -0.75013  -0.74348  -0.73548  -0.73505  -0.71701
 Alpha  occ. eigenvalues --   -0.70880  -0.70726  -0.70508  -0.69957  -0.69867
 Alpha  occ. eigenvalues --   -0.69196  -0.68956  -0.67669  -0.67221  -0.66431
 Alpha  occ. eigenvalues --   -0.65739  -0.64636  -0.64469  -0.62664  -0.62160
 Alpha  occ. eigenvalues --   -0.61674  -0.60633  -0.60264  -0.59488  -0.58938
 Alpha  occ. eigenvalues --   -0.58739  -0.58306  -0.57859  -0.57702  -0.56952
 Alpha  occ. eigenvalues --   -0.56375  -0.56018  -0.55577  -0.54613  -0.54500
 Alpha  occ. eigenvalues --   -0.54259  -0.53381  -0.53284  -0.52433  -0.51991
 Alpha  occ. eigenvalues --   -0.51767  -0.51567  -0.51552  -0.51284  -0.50892
 Alpha  occ. eigenvalues --   -0.50786  -0.50103  -0.49942  -0.49424  -0.49254
 Alpha  occ. eigenvalues --   -0.48734  -0.48606  -0.48468  -0.48310  -0.47794
 Alpha  occ. eigenvalues --   -0.47566  -0.47162  -0.47077  -0.46967  -0.46567
 Alpha  occ. eigenvalues --   -0.46283  -0.46169  -0.46103  -0.45924  -0.45803
 Alpha  occ. eigenvalues --   -0.45476  -0.45253  -0.45142  -0.44882  -0.44735
 Alpha  occ. eigenvalues --   -0.44645  -0.44344  -0.43888  -0.43737  -0.43222
 Alpha  occ. eigenvalues --   -0.43001  -0.42967  -0.42823  -0.42703  -0.42475
 Alpha  occ. eigenvalues --   -0.42398  -0.42220  -0.42049  -0.41877  -0.41610
 Alpha  occ. eigenvalues --   -0.41567  -0.41435  -0.41086  -0.40737  -0.40728
 Alpha  occ. eigenvalues --   -0.40576  -0.40484  -0.40378  -0.40358  -0.40227
 Alpha  occ. eigenvalues --   -0.40008  -0.39927  -0.39577  -0.39073  -0.38963
 Alpha  occ. eigenvalues --   -0.38831  -0.38764  -0.38579  -0.38371  -0.38342
 Alpha  occ. eigenvalues --   -0.38188  -0.37705  -0.37531  -0.37468  -0.37377
 Alpha  occ. eigenvalues --   -0.37086  -0.36954  -0.36808  -0.36146  -0.36116
 Alpha  occ. eigenvalues --   -0.35749  -0.35138  -0.35075  -0.34778  -0.34509
 Alpha  occ. eigenvalues --   -0.34262  -0.34231  -0.33975  -0.33874  -0.33591
 Alpha  occ. eigenvalues --   -0.33430  -0.32755  -0.31868  -0.31779  -0.31389
 Alpha  occ. eigenvalues --   -0.31350  -0.30985  -0.30494  -0.29862  -0.29434
 Alpha  occ. eigenvalues --   -0.29073  -0.28713  -0.28235  -0.27873  -0.27556
 Alpha  occ. eigenvalues --   -0.27536  -0.26659  -0.23153  -0.21255
 Alpha virt. eigenvalues --   -0.09080  -0.06114  -0.02076  -0.01537  -0.00113
 Alpha virt. eigenvalues --    0.03140   0.03612   0.03911   0.04276   0.04536
 Alpha virt. eigenvalues --    0.04768   0.05805   0.07503   0.07881   0.08347

 Mulliken charges:
               1
     1  Mg   0.823573
     2  C    0.102156
     3  C   -0.174329
     4  C   -0.181957
     5  C   -0.185545
     6  N   -0.643971
     7  C    0.335825
     8  C   -0.182190
     9  C   -0.151768
    10  C    0.323952
    11  C   -0.310449
    12  C   -0.142424
    13  C   -0.277551
    14  C    0.619335
    15  O   -0.469530
    16  O   -0.484023
    17  N   -0.711352
    18  C    0.324000
    19  C    0.060156
    20  C    0.018944
    21  C    0.303370
    22  C   -0.395483
    23  C    0.208165
    24  O   -0.422498
    25  N   -0.691384
    26  C    0.268095
    27  C    0.019048
    28  C    0.027855
    29  C    0.348343
    30  C    0.233923
    31  C   -0.215184
    32  C   -0.328787
    33  N   -0.738488
    34  C    0.291690
    35  C    0.037998
    36  C    0.042231
    37  C    0.259836
    38  C   -0.426673
    39  C    0.393929
    40  O   -0.479487
    41  C   -0.330656
    42  C    0.609501
    43  O   -0.434072
    44  O   -0.447651
    45  C   -0.087588
    46  C   -0.016310
    47  C   -0.111302
    48  C    0.128030
    49  C   -0.373925
    50  C   -0.223041
    51  C   -0.199109
    52  C   -0.150430
    53  C   -0.062149
    54  C   -0.315666
    55  C   -0.154620
    56  C   -0.192829
    57  C   -0.196248
    58  C   -0.031136
    59  C   -0.316403
    60  C   -0.189021
    61  C   -0.168647
    62  C   -0.162976
    63  C   -0.055463
    64  C   -0.316427
    65  C   -0.299257
    66  H    0.082123
    67  H    0.155458
    68  H    0.094754
    69  H    0.121598
    70  H    0.109908
    71  H    0.094769
    72  H    0.099716
    73  H    0.142499
    74  H    0.114658
    75  H    0.122898
    76  H    0.128839
    77  H    0.112590
    78  H    0.095693
    79  H    0.161283
    80  H    0.120294
    81  H    0.060283
    82  H    0.075731
    83  H    0.115769
    84  H    0.108362
    85  H    0.130847
    86  H    0.108234
    87  H    0.121867
    88  H    0.133348
    89  H    0.109514
    90  H    0.174504
    91  H    0.102936
    92  H    0.138052
    93  H    0.094792
    94  H    0.138621
    95  H    0.108507
    96  H    0.124435
    97  H    0.112934
    98  H    0.076421
    99  H    0.100717
   100  H    0.092612
   101  H    0.077216
   102  H    0.102861
   103  H    0.091489
   104  H    0.102283
   105  H    0.079770
   106  H    0.098318
   107  H    0.098255
   108  H    0.088937
   109  H    0.093746
   110  H    0.087633
   111  H    0.087802
   112  H    0.098985
   113  H    0.083469
   114  H    0.101300
   115  H    0.095241
   116  H    0.100501
   117  H    0.085931
   118  H    0.073124
   119  H    0.028234
   120  H    0.097476
   121  H    0.087255
   122  H    0.107687
   123  H    0.092624
   124  H    0.109347
   125  H    0.099871
   126  H    0.098453
   127  H    0.110882
   128  H    0.100873
   129  H    0.070416
   130  H    0.135613
   131  H    0.131841
   132  H    0.122623
   133  O   -0.411939
   134  H    0.054364
 Sum of Mulliken charges =   0.00000

 Dipole moment (field-independent basis, Debye):
    X=              2.4280    Y=             -4.9437    Z=             -1.1418  Tot=              5.6249
 Quadrupole moment (field-independent basis, Debye-Ang):
   XX=           -386.1922   YY=           -435.6693   ZZ=           -395.6410
   XY=              4.7415   XZ=             20.9169   YZ=            -45.3944

 Normal termination of Gaussian 09 at Sat Oct  5 03:51:24 2019.
