 Gaussian 09, Revision D.01,
 Gaussian 09:  ES64L-G09RevD.01 24-Apr-2013

 ----------------------------------------------------------------------
 # td=(NStates=1) iop(3/107=0140000000,3/108=0140000000) iop(3/107=0140
 000000,3/108=0140000000) CAM-B3LYP/6-31G(d,p)
 ----------------------------------------------------------------------

 --
 TD
 --
 Symbolic Z-matrix:
 Charge =  0 Multiplicity = 1

                         Standard orientation:
 ---------------------------------------------------------------------
 Center     Atomic      Atomic             Coordinates (Angstroms)
 Number     Number       Type             X           Y           Z
 ---------------------------------------------------------------------
      1         12           0       -5.607462    1.234754    0.176762
      2          6           0       -5.118908   -2.227634   -0.265793
      3          6           0       -3.373715    1.200160    2.709871
      4          6           0       -6.170504    4.604129    0.652820
      5          6           0       -7.968940    1.078301   -2.330508
      6          7           0       -4.492891   -0.323029    1.052766
      7          6           0       -4.402983   -1.639973    0.745798
      8          6           0       -3.298933   -2.348753    1.415940
      9          6           0       -2.908948   -1.285371    2.554650
     10          6           0       -3.649552   -0.034037    2.033199
     11          6           0       -3.566654   -1.734855    3.916017
     12          6           0       -1.983374   -2.667675    0.537774
     13          6           0       -0.972416   -3.523624    1.353420
     14          6           0        0.282541   -3.881289    0.532586
     15          8           0        0.526165   -3.529126   -0.636893
     16          8           0        1.063230   -4.576227    1.265546
     17          7           0       -4.928406    2.716552    1.510132
     18          6           0       -3.959990    2.501620    2.391609
     19          6           0       -3.734835    3.694257    3.178475
     20          6           0       -4.514287    4.681735    2.551098
     21          6           0       -5.339259    3.969212    1.535153
     22          6           0       -2.773574    3.815006    4.263584
     23          6           0       -4.808939    6.147242    2.922475
     24          8           0       -4.130411    6.752746    3.793176
     25          7           0       -6.825793    2.614693   -0.686362
     26          6           0       -6.917463    3.999636   -0.472457
     27          6           0       -7.829599    4.607090   -1.264598
     28          6           0       -8.377951    3.647564   -2.150097
     29          6           0       -7.732683    2.364787   -1.800218
     30          6           0       -8.233300    6.023041   -1.255508
     31          6           0       -9.401293    3.859260   -3.267310
     32          6           0       -8.623883    3.885426   -4.634376
     33          7           0       -6.343623   -0.161140   -1.095621
     34          6           0       -7.287866   -0.084217   -2.111214
     35          6           0       -7.561450   -1.394398   -2.640824
     36          6           0       -6.799687   -2.270939   -1.941314
     37          6           0       -6.008145   -1.452626   -1.061142
     38          6           0       -8.619390   -1.633881   -3.704087
     39          6           0       -6.343128   -3.614948   -1.907014
     40          8           0       -6.779870   -4.608961   -2.399908
     41          6           0       -5.011834   -3.625957   -0.900042
     42          6           0       -5.218339   -4.690827    0.148249
     43          8           0       -5.591059   -4.429079    1.274922
     44          8           0       -5.079332   -5.947289   -0.427658
     45          6           0       -5.461573   -7.081518    0.515704
     46          6           0        2.324855   -4.916012    0.702099
     47          6           0        3.414608   -4.075746    1.109771
     48          6           0        4.074397   -3.305459    0.265404
     49          6           0        3.773890   -3.146381   -1.286884
     50          6           0        5.166934   -2.343069    0.776937
     51          6           0        6.595520   -2.534922    0.066577
     52          6           0        7.721097   -1.618630    0.577569
     53          6           0        9.086350   -2.028201   -0.012580
     54          6           0        9.486230   -3.424405    0.384358
     55          6           0       10.130200   -0.861780    0.366225
     56          6           0       11.354596   -0.937039   -0.376137
     57          6           0       12.244574    0.272933    0.212382
     58          6           0       13.526326    0.436533   -0.535802
     59          6           0       14.509062   -0.736177   -0.308559
     60          6           0       14.192194    1.684722   -0.195722
     61          6           0       15.605162    2.117931   -0.989409
     62          6           0       15.973912    3.393620   -0.648330
     63          6           0       17.337733    3.843831   -1.382621
     64          6           0       17.174814    4.054746   -2.970077
     65          6           0       17.927107    5.144002   -0.775547
     66          1           0       -2.337170    1.247327    3.345129
     67          1           0       -6.365825    5.540674    0.993074
     68          1           0       -8.801129    1.021005   -3.165404
     69          1           0       -3.729173   -3.255128    1.821613
     70          1           0       -1.865574   -1.078308    2.759337
     71          1           0       -3.121363   -2.600492    4.178178
     72          1           0       -3.387217   -0.894090    4.732919
     73          1           0       -4.514202   -1.917758    3.809369
     74          1           0       -2.376785   -3.166981   -0.300047
     75          1           0       -1.474391   -1.774375    0.363025
     76          1           0       -0.425473   -3.084285    2.201773
     77          1           0       -1.258005   -4.569221    1.845840
     78          1           0       -1.677755    3.858428    3.996280
     79          1           0       -3.006957    4.849411    4.619984
     80          1           0       -2.958739    3.132230    5.074319
     81          1           0       -5.624698    6.620946    2.267429
     82          1           0      -10.208768    3.018191   -3.255228
     83          1           0       -9.990696    4.672369   -3.186029
     84          1           0       -9.440785    3.893340   -5.296187
     85          1           0       -8.082007    5.023532   -4.544541
     86          1           0       -7.963756    3.039790   -4.791965
     87          1           0       -8.587888   -0.893054   -4.577352
     88          1           0       -8.399298   -2.691117   -4.269588
     89          1           0       -9.579049   -1.595906   -3.227490
     90          1           0       -4.071615   -3.595820   -1.356999
     91          1           0        2.606904   -5.886958    1.241410
     92          1           0        2.193951   -4.935657   -0.327607
     93          1           0        3.808519   -3.972462    2.119703
     94          1           0        2.739051   -3.297104   -1.512859
     95          1           0        4.196649   -2.137318   -1.750638
     96          1           0        4.216373   -3.947190   -1.827151
     97          1           0        4.794278   -1.422830    0.397597
     98          1           0        5.176087   -2.459491    1.873016
     99          1           0        7.039762   -3.543865   -0.005702
    100          1           0        6.493832   -2.507253   -1.055496
    101          1           0        7.773229   -0.545801    0.398786
    102          1           0        7.717064   -1.618183    1.676505
    103          1           0        9.041667   -2.120191   -1.120468
    104          1           0        8.886635   -4.179886   -0.167646
    105          1           0       10.596649   -3.514763    0.123723
    106          1           0        9.319801   -3.686633    1.356753
    107          1           0        9.597978    0.269376    0.046857
    108          1           0       10.185101   -0.858597    1.374780
    109          1           0       12.029569   -1.776435   -0.216500
    110          1           0       11.127746   -0.911912   -1.603553
    111          1           0       11.650779    1.287368    0.227870
    112          1           0       12.553460   -0.028248    1.247232
    113          1           0       13.287743    0.424655   -1.471326
    114          1           0       15.004952   -0.715427    0.738283
    115          1           0       13.633395   -1.701904   -0.387977
    116          1           0       15.390202   -0.818030   -0.929944
    117          1           0       13.449034    2.586366   -0.393832
    118          1           0       14.497535    1.629229    0.747466
    119          1           0       16.279751    1.278941   -0.669790
    120          1           0       15.502566    1.967185   -2.135990
    121          1           0       15.315556    4.392485   -0.774581
    122          1           0       16.246318    3.462039    0.502497
    123          1           0       18.041048    3.129666   -1.361823
    124          1           0       16.433409    4.912777   -3.179562
    125          1           0       18.048755    4.428338   -3.160178
    126          1           0       17.030448    3.166832   -3.566974
    127          1           0       18.191176    4.924753    0.266284
    128          1           0       18.989082    5.393286   -1.457999
    129          1           0       17.220162    6.113477   -0.685999
    130          1           0       -5.260176   -7.995579   -0.149403
    131          1           0       -6.532912   -7.100539    0.744494
    132          1           0       -4.913142   -7.000988    1.330859
    133          8           0       -7.949774    6.812101   -0.318177
    134          1           0       -8.970964    6.537211   -1.923622
 ---------------------------------------------------------------------

 SCF Done:  E(RCAM-B3LYP) =  -3043.46270991     A.U. after   15 cycles

 Excitation energies and oscillator strengths:

 Excited State   1:      Singlet-A      2.1441 eV  578.26 nm  f=0.1081  <S**2>=0.000
     243 -> 246        0.34500
     244 -> 245        0.60541
 This state for optimization and/or second-order correction.
 Total Energy, E(TD-HF/TD-KS) =  -3043.38391618
 Copying the excited state density for this state as the 1-particle RhoCI density.

 The electronic state is 1-A.
 Alpha  occ. eigenvalues --  -46.81461 -19.23259 -19.22633 -19.17939 -19.17858
 Alpha  occ. eigenvalues --  -19.17616 -19.16324 -19.16224 -14.38675 -14.36948
 Alpha  occ. eigenvalues --  -14.36694 -14.36123 -10.35368 -10.34693 -10.31979
 Alpha  occ. eigenvalues --  -10.31579 -10.30460 -10.27689 -10.27404 -10.27217
 Alpha  occ. eigenvalues --  -10.26548 -10.26540 -10.26480 -10.26334 -10.25806
 Alpha  occ. eigenvalues --  -10.25639 -10.25402 -10.25388 -10.25373 -10.25093
 Alpha  occ. eigenvalues --  -10.24876 -10.24707 -10.24306 -10.24047 -10.24009
 Alpha  occ. eigenvalues --  -10.23745 -10.23735 -10.23546 -10.23428 -10.23334
 Alpha  occ. eigenvalues --  -10.23298 -10.23190 -10.22972 -10.22900 -10.22780
 Alpha  occ. eigenvalues --  -10.22679 -10.22413 -10.22359 -10.22190 -10.22180
 Alpha  occ. eigenvalues --  -10.22032 -10.21860 -10.21783 -10.21664 -10.21467
 Alpha  occ. eigenvalues --  -10.21389 -10.21282 -10.21260 -10.21253 -10.20515
 Alpha  occ. eigenvalues --  -10.20467 -10.20356 -10.19952 -10.19848 -10.19144
 Alpha  occ. eigenvalues --  -10.18995  -3.10002  -1.84949  -1.84473  -1.84405
 Alpha  occ. eigenvalues --   -1.16467  -1.11679  -1.08831  -1.04526  -1.04391
 Alpha  occ. eigenvalues --   -1.04304  -1.03448  -1.01532  -1.00951  -1.00281
 Alpha  occ. eigenvalues --   -0.96918  -0.88306  -0.86517  -0.86301  -0.84880
 Alpha  occ. eigenvalues --   -0.84735  -0.84551  -0.84103  -0.83428  -0.83330
 Alpha  occ. eigenvalues --   -0.83082  -0.82626  -0.81703  -0.80456  -0.79718
 Alpha  occ. eigenvalues --   -0.79029  -0.78437  -0.77384  -0.77122  -0.76477
 Alpha  occ. eigenvalues --   -0.75402  -0.74343  -0.73886  -0.73115  -0.72302
 Alpha  occ. eigenvalues --   -0.71593  -0.70769  -0.70323  -0.69649  -0.69437
 Alpha  occ. eigenvalues --   -0.69319  -0.68809  -0.67184  -0.66536  -0.66447
 Alpha  occ. eigenvalues --   -0.65615  -0.64924  -0.64300  -0.62633  -0.62112
 Alpha  occ. eigenvalues --   -0.62012  -0.60546  -0.60332  -0.59986  -0.59956
 Alpha  occ. eigenvalues --   -0.58917  -0.58566  -0.58496  -0.57996  -0.56705
 Alpha  occ. eigenvalues --   -0.56431  -0.56047  -0.55354  -0.54865  -0.54431
 Alpha  occ. eigenvalues --   -0.54077  -0.53369  -0.52862  -0.52579  -0.52021
 Alpha  occ. eigenvalues --   -0.51715  -0.51566  -0.51481  -0.51141  -0.50298
 Alpha  occ. eigenvalues --   -0.50123  -0.49721  -0.49171  -0.48966  -0.48842
 Alpha  occ. eigenvalues --   -0.48745  -0.48469  -0.48146  -0.47872  -0.47797
 Alpha  occ. eigenvalues --   -0.47591  -0.47341  -0.47052  -0.47005  -0.46756
 Alpha  occ. eigenvalues --   -0.46555  -0.46400  -0.46042  -0.45709  -0.45585
 Alpha  occ. eigenvalues --   -0.45521  -0.45313  -0.45094  -0.44773  -0.44743
 Alpha  occ. eigenvalues --   -0.44580  -0.44311  -0.44052  -0.43602  -0.43535
 Alpha  occ. eigenvalues --   -0.43167  -0.42960  -0.42825  -0.42631  -0.42543
 Alpha  occ. eigenvalues --   -0.42470  -0.42387  -0.42287  -0.42051  -0.41786
 Alpha  occ. eigenvalues --   -0.41641  -0.41248  -0.41145  -0.40998  -0.40892
 Alpha  occ. eigenvalues --   -0.40633  -0.40497  -0.40335  -0.40211  -0.40098
 Alpha  occ. eigenvalues --   -0.39875  -0.39799  -0.39604  -0.39565  -0.39366
 Alpha  occ. eigenvalues --   -0.39196  -0.39082  -0.39002  -0.38685  -0.38484
 Alpha  occ. eigenvalues --   -0.38221  -0.38104  -0.38031  -0.37716  -0.37242
 Alpha  occ. eigenvalues --   -0.37063  -0.37056  -0.36714  -0.36405  -0.35735
 Alpha  occ. eigenvalues --   -0.35643  -0.35262  -0.34942  -0.34821  -0.34698
 Alpha  occ. eigenvalues --   -0.34505  -0.33820  -0.33753  -0.33565  -0.33020
 Alpha  occ. eigenvalues --   -0.32691  -0.32225  -0.31749  -0.31634  -0.31488
 Alpha  occ. eigenvalues --   -0.31409  -0.31129  -0.29973  -0.29668  -0.28929
 Alpha  occ. eigenvalues --   -0.28867  -0.28220  -0.28028  -0.27795  -0.27574
 Alpha  occ. eigenvalues --   -0.27277  -0.27182  -0.22421  -0.21918
 Alpha virt. eigenvalues --   -0.07974  -0.06593  -0.01679  -0.00932   0.00527
 Alpha virt. eigenvalues --    0.02996   0.03405   0.04012   0.04498   0.05043
 Alpha virt. eigenvalues --    0.05165   0.05423   0.07988   0.08474   0.08583

 Mulliken charges:
               1
     1  Mg   0.820648
     2  C    0.048569
     3  C   -0.204995
     4  C   -0.117485
     5  C   -0.190811
     6  N   -0.636841
     7  C    0.323436
     8  C   -0.178419
     9  C   -0.167184
    10  C    0.359925
    11  C   -0.293823
    12  C   -0.146343
    13  C   -0.276037
    14  C    0.588886
    15  O   -0.511357
    16  O   -0.411202
    17  N   -0.692201
    18  C    0.316777
    19  C    0.042173
    20  C   -0.054893
    21  C    0.309981
    22  C   -0.408064
    23  C    0.246032
    24  O   -0.426497
    25  N   -0.686373
    26  C    0.283264
    27  C    0.010205
    28  C    0.029621
    29  C    0.254301
    30  C    0.212087
    31  C   -0.250570
    32  C   -0.291017
    33  N   -0.718817
    34  C    0.300372
    35  C    0.016449
    36  C    0.074158
    37  C    0.281549
    38  C   -0.381416
    39  C    0.344828
    40  O   -0.426603
    41  C   -0.333572
    42  C    0.636973
    43  O   -0.463387
    44  O   -0.476108
    45  C   -0.094431
    46  C   -0.001108
    47  C   -0.136583
    48  C    0.141095
    49  C   -0.395387
    50  C   -0.228855
    51  C   -0.191219
    52  C   -0.155895
    53  C   -0.071750
    54  C   -0.311725
    55  C   -0.148939
    56  C   -0.166190
    57  C   -0.186561
    58  C   -0.021651
    59  C   -0.307850
    60  C   -0.167874
    61  C   -0.186842
    62  C   -0.127324
    63  C   -0.063801
    64  C   -0.311154
    65  C   -0.297787
    66  H    0.086270
    67  H    0.099094
    68  H    0.088686
    69  H    0.131521
    70  H    0.096785
    71  H    0.116268
    72  H    0.090400
    73  H    0.133663
    74  H    0.117358
    75  H    0.130424
    76  H    0.139866
    77  H    0.121749
    78  H    0.127325
    79  H    0.153208
    80  H    0.127395
    81  H    0.109679
    82  H    0.095510
    83  H    0.122696
    84  H    0.119882
    85  H    0.088274
    86  H    0.125707
    87  H    0.118251
    88  H    0.124490
    89  H    0.147511
    90  H    0.164345
    91  H    0.105602
    92  H    0.133763
    93  H    0.077341
    94  H    0.157224
    95  H    0.097198
    96  H    0.124174
    97  H    0.123780
    98  H    0.089923
    99  H    0.092389
   100  H    0.088417
   101  H    0.087457
   102  H    0.084135
   103  H    0.079310
   104  H    0.100603
   105  H    0.087945
   106  H    0.111467
   107  H    0.052554
   108  H    0.108542
   109  H    0.104245
   110  H    0.069404
   111  H    0.082426
   112  H    0.090728
   113  H    0.096962
   114  H    0.086480
   115  H    0.052433
   116  H    0.114401
   117  H    0.062501
   118  H    0.097121
   119  H    0.092549
   120  H    0.082098
   121  H    0.079223
   122  H    0.066317
   123  H    0.099076
   124  H    0.086814
   125  H    0.112223
   126  H    0.099817
   127  H    0.107455
   128  H    0.063049
   129  H    0.089085
   130  H    0.128352
   131  H    0.141944
   132  H    0.145181
   133  O   -0.434792
   134  H    0.082344
 Sum of Mulliken charges =   0.00000

 Dipole moment (field-independent basis, Debye):
    X=              2.2898    Y=             -5.9746    Z=             -1.4382  Tot=              6.5580
 Quadrupole moment (field-independent basis, Debye-Ang):
   XX=           -366.4116   YY=           -438.1187   ZZ=           -394.9508
   XY=              8.3191   XZ=             32.9851   YZ=            -37.2519

 Normal termination of Gaussian 09 at Sat Oct  5 12:47:11 2019.
