 Gaussian 09, Revision D.01,
 Gaussian 09:  ES64L-G09RevD.01 24-Apr-2013

 ----------------------------------------------------------------------
 # td=(NStates=1) iop(3/107=0140000000,3/108=0140000000) iop(3/107=0140
 000000,3/108=0140000000) CAM-B3LYP/6-31G(d,p)
 ----------------------------------------------------------------------

 --
 TD
 --
 Symbolic Z-matrix:
 Charge =  0 Multiplicity = 1

                         Standard orientation:
 ---------------------------------------------------------------------
 Center     Atomic      Atomic             Coordinates (Angstroms)
 Number     Number       Type             X           Y           Z
 ---------------------------------------------------------------------
      1         12           0       -5.523357    1.263244    0.121905
      2          6           0       -5.098123   -2.169077   -0.321307
      3          6           0       -3.265735    1.106228    2.725745
      4          6           0       -6.232258    4.491901    0.757703
      5          6           0       -7.880753    1.317281   -2.496699
      6          7           0       -4.450515   -0.401078    1.139678
      7          6           0       -4.391464   -1.655157    0.752863
      8          6           0       -3.270260   -2.336880    1.523332
      9          6           0       -2.984386   -1.438672    2.645020
     10          6           0       -3.531456   -0.085470    2.159083
     11          6           0       -3.420526   -1.808633    3.955544
     12          6           0       -2.053906   -2.673299    0.574060
     13          6           0       -1.043500   -3.607054    1.415605
     14          6           0        0.187210   -3.930956    0.608605
     15          8           0        0.464298   -3.552225   -0.504018
     16          8           0        0.890658   -4.740173    1.392335
     17          7           0       -4.793742    2.528193    1.490773
     18          6           0       -3.940746    2.303412    2.476141
     19          6           0       -3.661250    3.491332    3.277984
     20          6           0       -4.448732    4.529053    2.706775
     21          6           0       -5.214302    3.812672    1.568835
     22          6           0       -2.652591    3.773814    4.341322
     23          6           0       -4.602861    5.978944    3.079519
     24          8           0       -3.979113    6.479855    3.988826
     25          7           0       -6.782243    2.664867   -0.673387
     26          6           0       -6.909779    3.920333   -0.301478
     27          6           0       -7.843114    4.595579   -1.116089
     28          6           0       -8.302845    3.788862   -2.032249
     29          6           0       -7.656061    2.498910   -1.768406
     30          6           0       -8.170737    6.046229   -1.110960
     31          6           0       -9.415927    3.872056   -3.037612
     32          6           0       -8.862961    4.389538   -4.428388
     33          7           0       -6.220980    0.026001   -1.233389
     34          6           0       -7.254746    0.102846   -2.186428
     35          6           0       -7.423665   -1.099353   -2.841064
     36          6           0       -6.655975   -2.034459   -2.141917
     37          6           0       -5.865476   -1.323500   -1.117601
     38          6           0       -8.360406   -1.614248   -3.929475
     39          6           0       -6.178914   -3.370866   -2.120695
     40          8           0       -6.481808   -4.369004   -2.876134
     41          6           0       -5.118356   -3.560063   -1.049057
     42          6           0       -5.379913   -4.619965   -0.012891
     43          8           0       -5.804514   -4.470420    1.120866
     44          8           0       -5.095003   -5.813915   -0.547778
     45          6           0       -5.574463   -6.968798    0.278902
     46          6           0        2.201898   -5.105428    0.800551
     47          6           0        3.212026   -4.091881    1.075232
     48          6           0        3.990633   -3.310977    0.243788
     49          6           0        3.667582   -3.262493   -1.273745
     50          6           0        5.149759   -2.472084    0.767651
     51          6           0        6.513746   -2.788323    0.066137
     52          6           0        7.574922   -1.916109    0.654488
     53          6           0        8.969129   -1.988197   -0.061371
     54          6           0        9.527251   -3.475138    0.167215
     55          6           0        9.957876   -0.957679    0.480467
     56          6           0       11.352742   -0.902903   -0.199490
     57          6           0       12.188288    0.351529    0.214797
     58          6           0       13.446337    0.426077   -0.644470
     59          6           0       14.428685   -0.751579   -0.420336
     60          6           0       14.173587    1.789889   -0.313832
     61          6           0       15.504050    2.187909   -1.029233
     62          6           0       16.033637    3.596909   -0.650534
     63          6           0       17.281715    3.960617   -1.377389
     64          6           0       17.238962    3.977862   -2.884355
     65          6           0       17.836260    5.305938   -0.851390
     66          1           0       -2.371627    1.125087    3.439983
     67          1           0       -6.466464    5.576233    1.192728
     68          1           0       -8.794750    1.331809   -3.264132
     69          1           0       -3.571391   -3.216172    1.908760
     70          1           0       -1.825975   -1.381399    2.710284
     71          1           0       -3.085737   -3.000357    4.064314
     72          1           0       -3.091290   -1.145102    4.835805
     73          1           0       -4.603957   -1.991286    3.811475
     74          1           0       -2.549074   -3.410070   -0.175373
     75          1           0       -1.464982   -1.828969    0.140827
     76          1           0       -0.749920   -3.207783    2.417209
     77          1           0       -1.632808   -4.531103    1.646526
     78          1           0       -1.747028    3.264720    4.016514
     79          1           0       -2.825754    4.804264    4.751383
     80          1           0       -2.868767    3.110789    5.088789
     81          1           0       -5.247498    6.560796    2.716126
     82          1           0      -10.166107    3.154779   -3.342341
     83          1           0       -9.997412    4.617395   -2.615912
     84          1           0       -9.455745    4.722464   -5.143748
     85          1           0       -8.089373    5.276049   -4.256636
     86          1           0       -8.336525    3.619315   -4.969986
     87          1           0       -8.353020   -0.931246   -4.797431
     88          1           0       -7.993998   -2.595949   -4.235618
     89          1           0       -9.605115   -1.711759   -3.711923
     90          1           0       -4.215563   -3.705084   -1.472500
     91          1           0        2.491213   -6.192723    1.216725
     92          1           0        1.859974   -5.328857   -0.151937
     93          1           0        3.589292   -4.283470    2.074988
     94          1           0        2.803583   -3.742364   -1.576046
     95          1           0        3.692055   -2.164938   -1.430818
     96          1           0        4.253363   -3.884763   -1.594290
     97          1           0        4.848967   -1.446304    0.520146
     98          1           0        5.236269   -2.614159    1.949124
     99          1           0        6.624575   -3.875756    0.322484
    100          1           0        6.387851   -2.819458   -1.084482
    101          1           0        7.319990   -0.790339    0.577824
    102          1           0        7.724985   -2.125819    1.723229
    103          1           0        8.977582   -1.885277   -1.045456
    104          1           0        8.666951   -4.351094   -0.116709
    105          1           0       10.692875   -3.585337   -0.108209
    106          1           0        9.441011   -3.586411    1.290863
    107          1           0        9.485795    0.203568    0.439433
    108          1           0        9.941839   -0.942990    1.655127
    109          1           0       11.792530   -1.738359    0.124346
    110          1           0       11.189839   -1.017063   -1.450300
    111          1           0       11.482446    1.148984   -0.140902
    112          1           0       12.264139    0.558678    1.351677
    113          1           0       13.379002    0.541672   -1.701172
    114          1           0       14.541337   -1.149509    0.684960
    115          1           0       13.943338   -1.591878   -0.809449
    116          1           0       15.467607   -0.581878   -0.748765
    117          1           0       13.542033    2.662639   -0.590138
    118          1           0       14.276650    1.875690    0.893525
    119          1           0       16.399076    1.602663   -0.614278
    120          1           0       15.200318    2.065177   -2.022399
    121          1           0       15.341622    4.364194   -0.967821
    122          1           0       16.409456    3.585172    0.300571
    123          1           0       18.165189    3.234403   -1.079686
    124          1           0       16.662780    4.762743   -3.162684
    125          1           0       18.055449    4.055248   -3.519020
    126          1           0       16.875269    3.130979   -3.484700
    127          1           0       17.763314    5.362278    0.270191
    128          1           0       18.917867    5.576316   -1.198749
    129          1           0       17.047280    6.058895   -1.354991
    130          1           0       -5.073844   -8.045918    0.009277
    131          1           0       -6.760056   -6.963703    0.385364
    132          1           0       -5.049510   -6.927870    1.351478
    133          8           0       -7.789941    6.889831   -0.351153
    134          1           0       -9.006043    6.284233   -1.848988
 ---------------------------------------------------------------------

 SCF Done:  E(RCAM-B3LYP) =  -3043.39401926     A.U. after   16 cycles

 Excitation energies and oscillator strengths:

 Excited State   1:      Singlet-A      2.0325 eV  610.02 nm  f=0.2429  <S**2>=0.000
     243 -> 246        0.24945
     244 -> 245        0.65026
 This state for optimization and/or second-order correction.
 Total Energy, E(TD-HF/TD-KS) =  -3043.31932773
 Copying the excited state density for this state as the 1-particle RhoCI density.

 The electronic state is 1-A.
 Alpha  occ. eigenvalues --  -46.80994 -19.23321 -19.21792 -19.17899 -19.17353
 Alpha  occ. eigenvalues --  -19.17076 -19.16824 -19.15596 -14.38498 -14.37636
 Alpha  occ. eigenvalues --  -14.36967 -14.36462 -10.35276 -10.34383 -10.30883
 Alpha  occ. eigenvalues --  -10.30568 -10.30497 -10.29173 -10.27577 -10.27469
 Alpha  occ. eigenvalues --  -10.27066 -10.27011 -10.26795 -10.26212 -10.26069
 Alpha  occ. eigenvalues --  -10.26069 -10.25763 -10.25338 -10.24893 -10.24629
 Alpha  occ. eigenvalues --  -10.24600 -10.24555 -10.24385 -10.24357 -10.24331
 Alpha  occ. eigenvalues --  -10.24190 -10.23873 -10.23791 -10.23640 -10.23637
 Alpha  occ. eigenvalues --  -10.23611 -10.23519 -10.23476 -10.23199 -10.23135
 Alpha  occ. eigenvalues --  -10.23010 -10.22995 -10.22322 -10.22303 -10.22280
 Alpha  occ. eigenvalues --  -10.22230 -10.22224 -10.22040 -10.22031 -10.21985
 Alpha  occ. eigenvalues --  -10.21960 -10.21635 -10.21510 -10.21311 -10.21228
 Alpha  occ. eigenvalues --  -10.21037 -10.20854 -10.20273 -10.19880 -10.19074
 Alpha  occ. eigenvalues --  -10.18291  -3.09728  -1.84650  -1.84226  -1.84126
 Alpha  occ. eigenvalues --   -1.13496  -1.13405  -1.08431  -1.07344  -1.04915
 Alpha  occ. eigenvalues --   -1.04367  -1.02429  -1.01442  -1.00739  -1.00162
 Alpha  occ. eigenvalues --   -0.98159  -0.88721  -0.86438  -0.86305  -0.85984
 Alpha  occ. eigenvalues --   -0.85386  -0.84857  -0.84567  -0.83545  -0.83345
 Alpha  occ. eigenvalues --   -0.83245  -0.82711  -0.81594  -0.80239  -0.79624
 Alpha  occ. eigenvalues --   -0.79448  -0.78379  -0.77528  -0.76984  -0.76647
 Alpha  occ. eigenvalues --   -0.75343  -0.74892  -0.74051  -0.72614  -0.72245
 Alpha  occ. eigenvalues --   -0.71895  -0.71700  -0.69998  -0.69950  -0.69694
 Alpha  occ. eigenvalues --   -0.68864  -0.68561  -0.67846  -0.67599  -0.66626
 Alpha  occ. eigenvalues --   -0.65989  -0.64667  -0.64198  -0.62597  -0.62347
 Alpha  occ. eigenvalues --   -0.61375  -0.60584  -0.60502  -0.59311  -0.59203
 Alpha  occ. eigenvalues --   -0.58849  -0.58623  -0.58258  -0.57957  -0.57619
 Alpha  occ. eigenvalues --   -0.56890  -0.56100  -0.55737  -0.55411  -0.54794
 Alpha  occ. eigenvalues --   -0.54228  -0.53762  -0.52907  -0.52698  -0.52543
 Alpha  occ. eigenvalues --   -0.52245  -0.51498  -0.51351  -0.50891  -0.50737
 Alpha  occ. eigenvalues --   -0.50417  -0.50171  -0.49860  -0.49520  -0.49077
 Alpha  occ. eigenvalues --   -0.48964  -0.48612  -0.48232  -0.48096  -0.47884
 Alpha  occ. eigenvalues --   -0.47593  -0.47360  -0.47329  -0.47272  -0.46969
 Alpha  occ. eigenvalues --   -0.46690  -0.46376  -0.46131  -0.46079  -0.45582
 Alpha  occ. eigenvalues --   -0.45493  -0.45233  -0.45121  -0.44979  -0.44734
 Alpha  occ. eigenvalues --   -0.44350  -0.44121  -0.44077  -0.44003  -0.43759
 Alpha  occ. eigenvalues --   -0.43497  -0.43380  -0.42989  -0.42685  -0.42527
 Alpha  occ. eigenvalues --   -0.42374  -0.42125  -0.41884  -0.41828  -0.41734
 Alpha  occ. eigenvalues --   -0.41574  -0.41456  -0.41300  -0.41226  -0.40551
 Alpha  occ. eigenvalues --   -0.40486  -0.40204  -0.40140  -0.39952  -0.39823
 Alpha  occ. eigenvalues --   -0.39783  -0.39490  -0.39149  -0.39113  -0.38918
 Alpha  occ. eigenvalues --   -0.38816  -0.38504  -0.38362  -0.38273  -0.38130
 Alpha  occ. eigenvalues --   -0.37823  -0.37468  -0.37256  -0.37142  -0.36901
 Alpha  occ. eigenvalues --   -0.36758  -0.36561  -0.36324  -0.35981  -0.35739
 Alpha  occ. eigenvalues --   -0.35560  -0.34929  -0.34714  -0.34626  -0.34512
 Alpha  occ. eigenvalues --   -0.34358  -0.33936  -0.33654  -0.33588  -0.33376
 Alpha  occ. eigenvalues --   -0.33331  -0.32481  -0.32131  -0.31618  -0.31491
 Alpha  occ. eigenvalues --   -0.31385  -0.31241  -0.30996  -0.30783  -0.30369
 Alpha  occ. eigenvalues --   -0.29587  -0.28209  -0.28064  -0.27709  -0.27534
 Alpha  occ. eigenvalues --   -0.27063  -0.26955  -0.23028  -0.21536
 Alpha virt. eigenvalues --   -0.08777  -0.06079  -0.01816  -0.00617   0.00728
 Alpha virt. eigenvalues --    0.02898   0.03065   0.03445   0.04333   0.04688
 Alpha virt. eigenvalues --    0.05100   0.06036   0.08092   0.08589   0.08876

 Mulliken charges:
               1
     1  Mg   0.829550
     2  C    0.053916
     3  C   -0.193653
     4  C   -0.183968
     5  C   -0.167058
     6  N   -0.644889
     7  C    0.352119
     8  C   -0.143438
     9  C   -0.123747
    10  C    0.335853
    11  C   -0.281898
    12  C   -0.177092
    13  C   -0.278772
    14  C    0.618634
    15  O   -0.476193
    16  O   -0.464070
    17  N   -0.699452
    18  C    0.331020
    19  C    0.021625
    20  C   -0.072108
    21  C    0.277899
    22  C   -0.385865
    23  C    0.289444
    24  O   -0.416358
    25  N   -0.707878
    26  C    0.358883
    27  C   -0.015234
    28  C    0.045483
    29  C    0.250733
    30  C    0.253900
    31  C   -0.252496
    32  C   -0.327009
    33  N   -0.765876
    34  C    0.285210
    35  C    0.053967
    36  C    0.045220
    37  C    0.279573
    38  C   -0.370914
    39  C    0.317975
    40  O   -0.509240
    41  C   -0.269487
    42  C    0.632767
    43  O   -0.471743
    44  O   -0.438638
    45  C   -0.087867
    46  C   -0.011577
    47  C   -0.119687
    48  C    0.081370
    49  C   -0.325561
    50  C   -0.225485
    51  C   -0.178939
    52  C   -0.165572
    53  C   -0.037577
    54  C   -0.314627
    55  C   -0.172742
    56  C   -0.170909
    57  C   -0.172281
    58  C   -0.044547
    59  C   -0.318059
    60  C   -0.178426
    61  C   -0.170919
    62  C   -0.143413
    63  C   -0.066447
    64  C   -0.316867
    65  C   -0.291017
    66  H    0.089551
    67  H    0.137149
    68  H    0.103352
    69  H    0.106570
    70  H    0.083277
    71  H    0.081313
    72  H    0.115080
    73  H    0.104883
    74  H    0.102336
    75  H    0.127894
    76  H    0.135828
    77  H    0.133548
    78  H    0.122972
    79  H    0.172078
    80  H    0.130308
    81  H    0.074990
    82  H    0.126562
    83  H    0.119978
    84  H    0.122568
    85  H    0.091978
    86  H    0.116252
    87  H    0.114952
    88  H    0.159664
    89  H    0.099182
    90  H    0.173731
    91  H    0.101006
    92  H    0.124405
    93  H    0.075242
    94  H    0.136915
    95  H    0.111084
    96  H    0.127559
    97  H    0.110906
    98  H    0.091570
    99  H    0.099935
   100  H    0.101509
   101  H    0.086183
   102  H    0.099672
   103  H    0.099750
   104  H    0.079917
   105  H    0.094429
   106  H    0.094919
   107  H    0.044270
   108  H    0.075223
   109  H    0.119284
   110  H    0.063828
   111  H    0.096786
   112  H    0.100032
   113  H    0.095188
   114  H    0.078202
   115  H    0.110292
   116  H    0.110200
   117  H    0.080146
   118  H    0.050684
   119  H    0.082260
   120  H    0.099183
   121  H    0.085163
   122  H    0.105199
   123  H    0.059343
   124  H    0.102571
   125  H    0.107250
   126  H    0.091507
   127  H    0.097175
   128  H    0.097803
   129  H    0.073934
   130  H    0.118623
   131  H    0.142867
   132  H    0.117894
   133  O   -0.406683
   134  H    0.055239
 Sum of Mulliken charges =   0.00000

 Dipole moment (field-independent basis, Debye):
    X=              2.5854    Y=             -3.5303    Z=             -0.6340  Tot=              4.4215
 Quadrupole moment (field-independent basis, Debye-Ang):
   XX=           -373.2552   YY=           -432.3570   ZZ=           -397.1997
   XY=             -5.2542   XZ=             15.2211   YZ=            -37.2154

 Normal termination of Gaussian 09 at Mon Oct  7 19:04:23 2019.
