 Gaussian 09, Revision D.01,
 Gaussian 09:  ES64L-G09RevD.01 24-Apr-2013

 ----------------------------------------------------------------------
 # td=(NStates=1) iop(3/107=0140000000,3/108=0140000000) iop(3/107=0140
 000000,3/108=0140000000) CAM-B3LYP/6-31G(d,p)
 ----------------------------------------------------------------------

 --
 TD
 --
 Symbolic Z-matrix:
 Charge =  0 Multiplicity = 1

                         Standard orientation:
 ---------------------------------------------------------------------
 Center     Atomic      Atomic             Coordinates (Angstroms)
 Number     Number       Type             X           Y           Z
 ---------------------------------------------------------------------
      1         12           0       -5.569145    1.242061    0.063843
      2          6           0       -4.953852   -2.123435   -0.454230
      3          6           0       -3.317721    1.187667    2.774617
      4          6           0       -6.147236    4.565308    0.674378
      5          6           0       -8.001376    1.137619   -2.320252
      6          7           0       -4.329722   -0.219789    0.983213
      7          6           0       -4.281478   -1.556469    0.642844
      8          6           0       -3.135869   -2.281127    1.590993
      9          6           0       -2.987321   -1.388653    2.667922
     10          6           0       -3.536814   -0.011282    2.147841
     11          6           0       -3.603299   -1.786423    3.972829
     12          6           0       -1.854724   -2.685527    0.697193
     13          6           0       -0.977168   -3.551855    1.449671
     14          6           0        0.263352   -3.885669    0.600146
     15          8           0        0.396926   -3.519423   -0.516366
     16          8           0        1.039785   -4.750408    1.336302
     17          7           0       -4.837233    2.639898    1.393730
     18          6           0       -3.947957    2.498119    2.494568
     19          6           0       -3.689853    3.632853    3.192592
     20          6           0       -4.479554    4.568772    2.629546
     21          6           0       -5.221087    3.986891    1.484318
     22          6           0       -2.905132    3.710344    4.394526
     23          6           0       -4.503828    6.042953    2.881819
     24          8           0       -3.866787    6.665258    3.785929
     25          7           0       -6.803714    2.664429   -0.740891
     26          6           0       -6.950011    4.027132   -0.388315
     27          6           0       -7.918606    4.608307   -1.233595
     28          6           0       -8.403706    3.678813   -2.067014
     29          6           0       -7.722266    2.415156   -1.741830
     30          6           0       -8.263675    6.051945   -1.095927
     31          6           0       -9.512852    3.848143   -3.180100
     32          6           0       -8.796445    3.849007   -4.612259
     33          7           0       -6.241322   -0.067831   -1.159194
     34          6           0       -7.340533   -0.014329   -2.093166
     35          6           0       -7.563253   -1.299340   -2.744894
     36          6           0       -6.666537   -2.178449   -2.130243
     37          6           0       -5.944708   -1.401768   -1.114335
     38          6           0       -8.467575   -1.732078   -3.782571
     39          6           0       -6.183467   -3.596518   -2.004894
     40          8           0       -6.580780   -4.554591   -2.640418
     41          6           0       -5.104278   -3.496969   -0.946887
     42          6           0       -5.353574   -4.562098    0.120129
     43          8           0       -5.709165   -4.395462    1.285854
     44          8           0       -5.160413   -5.754793   -0.352594
     45          6           0       -5.479742   -6.940308    0.438371
     46          6           0        2.308365   -5.116874    0.730386
     47          6           0        3.470675   -4.256956    1.101579
     48          6           0        4.022800   -3.428070    0.206983
     49          6           0        3.803239   -3.304684   -1.319657
     50          6           0        5.078281   -2.425258    0.693017
     51          6           0        6.444586   -2.695232    0.101107
     52          6           0        7.616432   -1.724955    0.604464
     53          6           0        9.050445   -1.972098   -0.112303
     54          6           0        9.531738   -3.446334    0.174544
     55          6           0        9.977143   -0.908277    0.439080
     56          6           0       11.395809   -0.919047   -0.289974
     57          6           0       12.210185    0.320587    0.105034
     58          6           0       13.631164    0.546760   -0.498884
     59          6           0       14.455808   -0.815413   -0.314612
     60          6           0       14.241614    1.810686   -0.159811
     61          6           0       15.404040    2.132433   -0.981059
     62          6           0       15.981159    3.583779   -0.615694
     63          6           0       17.232747    3.964987   -1.462695
     64          6           0       16.909700    3.998092   -2.917064
     65          6           0       17.800389    5.301151   -0.886388
     66          1           0       -2.554626    1.136487    3.429155
     67          1           0       -6.565010    5.349586    0.748616
     68          1           0       -8.730098    1.154439   -3.113240
     69          1           0       -3.504090   -3.293151    1.899746
     70          1           0       -1.906293   -1.293030    2.809278
     71          1           0       -2.991958   -2.643323    4.493664
     72          1           0       -3.726692   -0.954761    4.750308
     73          1           0       -4.627045   -2.209253    3.760972
     74          1           0       -2.186063   -2.907688   -0.393936
     75          1           0       -1.115354   -1.794529    0.524339
     76          1           0       -0.487800   -3.187919    2.432132
     77          1           0       -1.266569   -4.563355    1.924337
     78          1           0       -1.852777    3.440097    4.123390
     79          1           0       -2.928973    4.645198    4.927723
     80          1           0       -3.202548    3.179472    5.260756
     81          1           0       -5.330043    6.788317    2.425647
     82          1           0      -10.414808    3.144916   -3.107553
     83          1           0       -9.752216    4.805584   -2.997641
     84          1           0       -9.352868    4.171513   -5.437191
     85          1           0       -7.835011    4.364533   -4.502834
     86          1           0       -8.115984    2.849213   -4.605882
     87          1           0       -8.496494   -1.080865   -4.636313
     88          1           0       -8.337510   -2.761029   -4.098791
     89          1           0       -9.492933   -1.467407   -3.572536
     90          1           0       -4.190468   -3.914401   -1.434682
     91          1           0        2.452872   -6.184235    1.122825
     92          1           0        2.175046   -5.188763   -0.325997
     93          1           0        3.551879   -4.129600    2.117970
     94          1           0        2.844749   -3.721220   -1.525276
     95          1           0        3.906752   -2.255830   -1.632059
     96          1           0        4.532805   -3.924789   -1.867950
     97          1           0        5.017336   -1.296631    0.468923
     98          1           0        5.310756   -2.237898    1.876294
     99          1           0        6.843923   -3.831495    0.239254
    100          1           0        6.195763   -2.695810   -1.145181
    101          1           0        7.386843   -0.683400    0.328896
    102          1           0        7.723466   -1.904492    1.545669
    103          1           0        8.805595   -1.772046   -1.217999
    104          1           0        9.038615   -4.204037   -0.470448
    105          1           0       10.599434   -3.550808   -0.155652
    106          1           0        9.531924   -3.501270    1.259025
    107          1           0        9.492938   -0.092122    0.278110
    108          1           0       10.436282   -1.033826    1.594204
    109          1           0       11.760747   -1.922363   -0.055702
    110          1           0       11.148705   -0.969818   -1.561644
    111          1           0       11.499237    1.287209   -0.059656
    112          1           0       12.410250    0.414804    1.291750
    113          1           0       13.405920    0.564982   -1.643219
    114          1           0       14.553478   -0.871804    0.828828
    115          1           0       13.956064   -1.646085   -0.619305
    116          1           0       15.447163   -0.732647   -0.799073
    117          1           0       13.413794    2.503518   -0.298719
    118          1           0       14.461998    1.909168    1.022012
    119          1           0       16.159791    1.333409   -0.695041
    120          1           0       15.135718    1.937638   -2.121559
    121          1           0       15.165163    4.198079   -0.710323
    122          1           0       16.198655    3.803343    0.443732
    123          1           0       17.871803    3.218111   -1.199835
    124          1           0       16.090241    4.745829   -3.087250
    125          1           0       17.812203    4.455518   -3.342551
    126          1           0       16.726876    3.022110   -3.159756
    127          1           0       17.893686    5.174411    0.114572
    128          1           0       18.779214    5.451681   -1.687964
    129          1           0       17.086544    6.190276   -1.202918
    130          1           0       -5.279731   -7.874237   -0.075326
    131          1           0       -6.448150   -6.853266    0.788711
    132          1           0       -4.664904   -6.966624    1.270390
    133          8           0       -7.852865    6.883364   -0.290217
    134          1           0       -8.972199    6.491098   -1.763330
 ---------------------------------------------------------------------

 SCF Done:  E(RCAM-B3LYP) =  -3043.44110442     A.U. after   15 cycles

 Excitation energies and oscillator strengths:

 Excited State   1:      Singlet-A      2.0544 eV  603.51 nm  f=0.1670  <S**2>=0.000
     243 -> 246       -0.28453
     244 -> 245        0.63413
 This state for optimization and/or second-order correction.
 Total Energy, E(TD-HF/TD-KS) =  -3043.36560671
 Copying the excited state density for this state as the 1-particle RhoCI density.

 The electronic state is 1-A.
 Alpha  occ. eigenvalues --  -46.80056 -19.22987 -19.22275 -19.18233 -19.17855
 Alpha  occ. eigenvalues --  -19.17536 -19.16375 -19.16141 -14.38706 -14.36857
 Alpha  occ. eigenvalues --  -14.36796 -14.36719 -10.35155 -10.34976 -10.32240
 Alpha  occ. eigenvalues --  -10.30558 -10.30541 -10.28578 -10.28367 -10.27385
 Alpha  occ. eigenvalues --  -10.27218 -10.26716 -10.26435 -10.26297 -10.26253
 Alpha  occ. eigenvalues --  -10.26173 -10.26050 -10.25888 -10.25555 -10.24564
 Alpha  occ. eigenvalues --  -10.24516 -10.24392 -10.24354 -10.24217 -10.24069
 Alpha  occ. eigenvalues --  -10.23986 -10.23657 -10.23555 -10.23468 -10.23227
 Alpha  occ. eigenvalues --  -10.23171 -10.23129 -10.23104 -10.23019 -10.22929
 Alpha  occ. eigenvalues --  -10.22913 -10.22879 -10.22761 -10.22760 -10.22415
 Alpha  occ. eigenvalues --  -10.21997 -10.21973 -10.21893 -10.21864 -10.21761
 Alpha  occ. eigenvalues --  -10.21703 -10.21285 -10.21200 -10.21010 -10.20802
 Alpha  occ. eigenvalues --  -10.20666 -10.20665 -10.20096 -10.20029 -10.19884
 Alpha  occ. eigenvalues --  -10.19172  -3.08884  -1.83801  -1.83357  -1.83322
 Alpha  occ. eigenvalues --   -1.14903  -1.13475  -1.07658  -1.06717  -1.06486
 Alpha  occ. eigenvalues --   -1.03651  -1.02977  -0.99364  -0.98527  -0.98143
 Alpha  occ. eigenvalues --   -0.97114  -0.89556  -0.86412  -0.85821  -0.85685
 Alpha  occ. eigenvalues --   -0.85626  -0.84855  -0.84224  -0.84198  -0.83654
 Alpha  occ. eigenvalues --   -0.83322  -0.83109  -0.82028  -0.80753  -0.79828
 Alpha  occ. eigenvalues --   -0.78882  -0.78394  -0.78127  -0.77108  -0.76131
 Alpha  occ. eigenvalues --   -0.75510  -0.74432  -0.73819  -0.73645  -0.72771
 Alpha  occ. eigenvalues --   -0.71472  -0.71422  -0.70571  -0.70495  -0.70299
 Alpha  occ. eigenvalues --   -0.69504  -0.69134  -0.67094  -0.66828  -0.66020
 Alpha  occ. eigenvalues --   -0.65229  -0.64598  -0.64392  -0.62311  -0.61547
 Alpha  occ. eigenvalues --   -0.61023  -0.60419  -0.59453  -0.59371  -0.59341
 Alpha  occ. eigenvalues --   -0.58529  -0.58223  -0.58008  -0.57444  -0.57075
 Alpha  occ. eigenvalues --   -0.56668  -0.56508  -0.55953  -0.55291  -0.54936
 Alpha  occ. eigenvalues --   -0.54150  -0.53885  -0.53248  -0.52965  -0.52230
 Alpha  occ. eigenvalues --   -0.51899  -0.51689  -0.51359  -0.51075  -0.50621
 Alpha  occ. eigenvalues --   -0.50267  -0.49983  -0.49904  -0.49351  -0.49049
 Alpha  occ. eigenvalues --   -0.48917  -0.48758  -0.48473  -0.48176  -0.47941
 Alpha  occ. eigenvalues --   -0.47845  -0.47750  -0.47356  -0.47161  -0.46703
 Alpha  occ. eigenvalues --   -0.46434  -0.46336  -0.46199  -0.46010  -0.45850
 Alpha  occ. eigenvalues --   -0.45507  -0.45401  -0.45230  -0.45178  -0.45086
 Alpha  occ. eigenvalues --   -0.44695  -0.44611  -0.44468  -0.44015  -0.43751
 Alpha  occ. eigenvalues --   -0.43420  -0.43274  -0.43058  -0.42995  -0.42932
 Alpha  occ. eigenvalues --   -0.42765  -0.42513  -0.42344  -0.42088  -0.41843
 Alpha  occ. eigenvalues --   -0.41681  -0.41442  -0.41307  -0.41172  -0.41025
 Alpha  occ. eigenvalues --   -0.40730  -0.40658  -0.40491  -0.40324  -0.40097
 Alpha  occ. eigenvalues --   -0.39925  -0.39834  -0.39490  -0.39154  -0.38890
 Alpha  occ. eigenvalues --   -0.38695  -0.38575  -0.38474  -0.38266  -0.38203
 Alpha  occ. eigenvalues --   -0.38012  -0.37765  -0.37584  -0.37392  -0.36835
 Alpha  occ. eigenvalues --   -0.36467  -0.36093  -0.36017  -0.35866  -0.35576
 Alpha  occ. eigenvalues --   -0.35289  -0.35154  -0.34792  -0.34665  -0.34234
 Alpha  occ. eigenvalues --   -0.34179  -0.34141  -0.33853  -0.33283  -0.33008
 Alpha  occ. eigenvalues --   -0.32665  -0.32380  -0.31981  -0.31717  -0.31532
 Alpha  occ. eigenvalues --   -0.31383  -0.31137  -0.30374  -0.30281  -0.29721
 Alpha  occ. eigenvalues --   -0.28989  -0.28504  -0.28208  -0.28102  -0.28017
 Alpha  occ. eigenvalues --   -0.27712  -0.26327  -0.22977  -0.21940
 Alpha virt. eigenvalues --   -0.08594  -0.06608  -0.01570  -0.00835   0.00725
 Alpha virt. eigenvalues --    0.02746   0.03711   0.04105   0.04390   0.04684
 Alpha virt. eigenvalues --    0.05052   0.05701   0.07935   0.08641   0.09427

 Mulliken charges:
               1
     1  Mg   0.821107
     2  C    0.064574
     3  C   -0.179382
     4  C   -0.020149
     5  C   -0.178435
     6  N   -0.620364
     7  C    0.296896
     8  C   -0.135843
     9  C   -0.111182
    10  C    0.314421
    11  C   -0.307761
    12  C   -0.173635
    13  C   -0.276003
    14  C    0.612478
    15  O   -0.440343
    16  O   -0.482934
    17  N   -0.679095
    18  C    0.274304
    19  C    0.116768
    20  C   -0.043956
    21  C    0.321021
    22  C   -0.393273
    23  C    0.214352
    24  O   -0.432646
    25  N   -0.686829
    26  C    0.195110
    27  C    0.023086
    28  C   -0.043713
    29  C    0.286198
    30  C    0.247791
    31  C   -0.210139
    32  C   -0.325886
    33  N   -0.737424
    34  C    0.291259
    35  C    0.069629
    36  C   -0.018034
    37  C    0.282411
    38  C   -0.405485
    39  C    0.399176
    40  O   -0.452902
    41  C   -0.327161
    42  C    0.599028
    43  O   -0.497609
    44  O   -0.419707
    45  C   -0.079991
    46  C   -0.007717
    47  C   -0.118351
    48  C    0.141811
    49  C   -0.377935
    50  C   -0.222484
    51  C   -0.161427
    52  C   -0.172275
    53  C   -0.078977
    54  C   -0.314143
    55  C   -0.132974
    56  C   -0.167758
    57  C   -0.155823
    58  C   -0.054851
    59  C   -0.314637
    60  C   -0.143497
    61  C   -0.179933
    62  C   -0.179104
    63  C   -0.063785
    64  C   -0.288008
    65  C   -0.288132
    66  H    0.073559
    67  H    0.030568
    68  H    0.089087
    69  H    0.121650
    70  H    0.102819
    71  H    0.094448
    72  H    0.109148
    73  H    0.129399
    74  H    0.122717
    75  H    0.109255
    76  H    0.132901
    77  H    0.128367
    78  H    0.116921
    79  H    0.155535
    80  H    0.132686
    81  H    0.089791
    82  H    0.112139
    83  H    0.119856
    84  H    0.125768
    85  H    0.122267
    86  H    0.087422
    87  H    0.131535
    88  H    0.159386
    89  H    0.133993
    90  H    0.167371
    91  H    0.100274
    92  H    0.119257
    93  H    0.093895
    94  H    0.139704
    95  H    0.128736
    96  H    0.130124
    97  H    0.098953
    98  H    0.068161
    99  H    0.075512
   100  H    0.047989
   101  H    0.087654
   102  H    0.109053
   103  H    0.082651
   104  H    0.109639
   105  H    0.092729
   106  H    0.109957
   107  H    0.097448
   108  H    0.064932
   109  H    0.105637
   110  H    0.042752
   111  H    0.068386
   112  H    0.063433
   113  H    0.066637
   114  H    0.085448
   115  H    0.118673
   116  H    0.098928
   117  H    0.093927
   118  H    0.064720
   119  H    0.089110
   120  H    0.083844
   121  H    0.096177
   122  H    0.076822
   123  H    0.099227
   124  H    0.097114
   125  H    0.090577
   126  H    0.112998
   127  H    0.113059
   128  H    0.062605
   129  H    0.087864
   130  H    0.138360
   131  H    0.150818
   132  H    0.115907
   133  O   -0.420355
   134  H    0.072350
 Sum of Mulliken charges =   0.00000

 Dipole moment (field-independent basis, Debye):
    X=              1.0557    Y=             -6.2370    Z=             -1.9666  Tot=              6.6244
 Quadrupole moment (field-independent basis, Debye-Ang):
   XX=           -377.2351   YY=           -436.4427   ZZ=           -392.9796
   XY=              9.3744   XZ=             31.2837   YZ=            -33.5618

 Normal termination of Gaussian 09 at Fri Oct  4 13:07:01 2019.
