 Gaussian 09, Revision D.01,
 Gaussian 09:  ES64L-G09RevD.01 24-Apr-2013

 ----------------------------------------------------------------------
 # td=(NStates=1) iop(3/107=0140000000,3/108=0140000000) iop(3/107=0140
 000000,3/108=0140000000) CAM-B3LYP/6-31G(d,p)
 ----------------------------------------------------------------------

 --
 TD
 --
 Symbolic Z-matrix:
 Charge =  0 Multiplicity = 1

                         Standard orientation:
 ---------------------------------------------------------------------
 Center     Atomic      Atomic             Coordinates (Angstroms)
 Number     Number       Type             X           Y           Z
 ---------------------------------------------------------------------
      1         12           0       -5.592755    1.183134    0.096313
      2          6           0       -5.021391   -2.129746   -0.384447
      3          6           0       -3.463523    1.203725    2.808832
      4          6           0       -6.220604    4.607382    0.645124
      5          6           0       -8.031526    1.201859   -2.315695
      6          7           0       -4.488330   -0.391668    1.176919
      7          6           0       -4.330142   -1.666923    0.730338
      8          6           0       -3.217343   -2.354181    1.518083
      9          6           0       -2.903045   -1.347061    2.649895
     10          6           0       -3.595924   -0.042615    2.232405
     11          6           0       -3.474105   -1.774148    3.941754
     12          6           0       -2.045412   -2.666017    0.608076
     13          6           0       -1.086919   -3.540109    1.389685
     14          6           0        0.196096   -3.824717    0.518680
     15          8           0        0.471523   -3.231660   -0.482000
     16          8           0        0.964171   -4.717104    1.223966
     17          7           0       -4.938185    2.622521    1.478127
     18          6           0       -4.023910    2.448266    2.416032
     19          6           0       -3.742216    3.655657    3.179238
     20          6           0       -4.538143    4.614288    2.561537
     21          6           0       -5.262755    4.004101    1.479496
     22          6           0       -2.684196    3.622460    4.321176
     23          6           0       -4.642463    6.049467    2.926828
     24          8           0       -3.951820    6.590265    3.772238
     25          7           0       -6.913669    2.622096   -0.703735
     26          6           0       -7.020448    3.978158   -0.261797
     27          6           0       -8.021120    4.615376   -1.098556
     28          6           0       -8.530080    3.597105   -2.010085
     29          6           0       -7.729556    2.397100   -1.714821
     30          6           0       -8.259594    6.074561   -1.256424
     31          6           0       -9.435794    3.819667   -3.095722
     32          6           0       -8.790312    3.976802   -4.359140
     33          7           0       -6.416062   -0.111707   -1.028859
     34          6           0       -7.282309   -0.011927   -2.149323
     35          6           0       -7.608557   -1.336916   -2.823770
     36          6           0       -6.717943   -2.178629   -2.131945
     37          6           0       -5.942907   -1.401188   -1.129969
     38          6           0       -8.537649   -1.586034   -3.975093
     39          6           0       -6.187637   -3.553945   -2.034881
     40          8           0       -6.566388   -4.530244   -2.700510
     41          6           0       -5.097431   -3.565837   -0.946488
     42          6           0       -5.467185   -4.592604    0.190107
     43          8           0       -5.978126   -4.253459    1.280291
     44          8           0       -5.177792   -5.833074   -0.147718
     45          6           0       -5.574403   -6.888285    0.649119
     46          6           0        2.224057   -5.017053    0.504957
     47          6           0        3.395080   -4.147089    0.957689
     48          6           0        4.105048   -3.297559    0.146798
     49          6           0        3.793775   -3.178780   -1.245152
     50          6           0        5.176600   -2.418041    0.659775
     51          6           0        6.550732   -2.687350   -0.043253
     52          6           0        7.683141   -1.833462    0.526156
     53          6           0        9.018371   -1.966527   -0.147679
     54          6           0        9.629390   -3.377863    0.094790
     55          6           0        9.958940   -0.940166    0.381861
     56          6           0       11.344974   -0.875504   -0.378519
     57          6           0       12.319298    0.277291    0.143007
     58          6           0       13.704696    0.395618   -0.594106
     59          6           0       14.637381   -0.750542   -0.241487
     60          6           0       14.389321    1.743939   -0.119479
     61          6           0       15.639019    2.055327   -0.929170
     62          6           0       16.199932    3.497276   -0.512436
     63          6           0       17.424999    3.853847   -1.366061
     64          6           0       17.101630    3.977955   -2.799809
     65          6           0       18.040286    5.170764   -0.788521
     66          1           0       -2.834845    1.186883    3.629402
     67          1           0       -6.236622    5.842209    0.627397
     68          1           0       -8.858268    0.929760   -3.138062
     69          1           0       -3.660313   -3.475913    1.856628
     70          1           0       -1.806238   -1.168903    2.835921
     71          1           0       -2.849778   -2.589233    4.517151
     72          1           0       -3.562559   -1.115402    4.633126
     73          1           0       -4.386277   -2.304188    3.828388
     74          1           0       -2.267731   -3.401564   -0.089997
     75          1           0       -1.516665   -1.807871    0.172435
     76          1           0       -0.484406   -3.167245    2.183952
     77          1           0       -1.439670   -4.598075    1.881425
     78          1           0       -1.578474    3.508566    4.154345
     79          1           0       -2.662619    4.678697    4.773149
     80          1           0       -2.952453    2.863332    4.950898
     81          1           0       -5.177427    6.680114    2.112839
     82          1           0      -10.276678    3.073490   -3.088921
     83          1           0      -10.171666    4.702477   -3.010909
     84          1           0       -9.446909    4.452213   -5.084011
     85          1           0       -7.862864    4.767650   -4.443678
     86          1           0       -8.149041    3.044673   -4.852857
     87          1           0       -8.304340   -0.553991   -4.711365
     88          1           0       -8.409426   -2.634920   -4.354655
     89          1           0       -9.615227   -1.400289   -3.615738
     90          1           0       -4.252395   -4.030166   -1.376613
     91          1           0        2.327676   -6.131703    1.070840
     92          1           0        1.820953   -5.119875   -0.545824
     93          1           0        3.762814   -4.276459    1.913839
     94          1           0        2.660096   -3.285317   -1.358570
     95          1           0        4.021542   -2.166467   -1.558034
     96          1           0        4.389411   -3.844126   -1.932056
     97          1           0        4.853039   -1.471224    0.529042
     98          1           0        5.404138   -2.703611    1.633239
     99          1           0        7.040992   -3.789529   -0.024258
    100          1           0        6.429427   -2.326545   -1.239600
    101          1           0        7.152232   -0.793363    0.478842
    102          1           0        7.865140   -2.116610    1.683108
    103          1           0        8.558277   -1.870783   -1.239878
    104          1           0        8.765671   -4.275320    0.033486
    105          1           0       10.468287   -3.740169   -0.643360
    106          1           0       10.061671   -3.382931    1.048553
    107          1           0        9.619348    0.189868    0.414622
    108          1           0       10.022253   -1.245535    1.350770
    109          1           0       11.966742   -1.844542   -0.465456
    110          1           0       11.006315   -0.578716   -1.417922
    111          1           0       11.783293    1.210940   -0.125206
    112          1           0       12.482607    0.096229    1.252352
    113          1           0       13.607710    0.385251   -1.809593
    114          1           0       14.815682   -0.731534    0.799302
    115          1           0       14.108619   -1.758242   -0.411499
    116          1           0       15.685772   -0.808431   -0.569536
    117          1           0       13.592153    2.668850   -0.364603
    118          1           0       14.485246    1.839657    0.965595
    119          1           0       16.518651    1.516324   -0.588496
    120          1           0       15.550212    2.440820   -1.951861
    121          1           0       15.428385    4.228879   -0.546711
    122          1           0       16.678389    3.490513    0.523516
    123          1           0       18.269076    3.133483   -1.068204
    124          1           0       16.172122    4.488736   -2.860026
    125          1           0       17.928568    4.453289   -3.489095
    126          1           0       16.913349    2.926675   -3.176537
    127          1           0       18.571915    5.412500    0.227248
    128          1           0       18.709706    5.470961   -1.574819
    129          1           0       17.046014    5.790426   -0.915500
    130          1           0       -5.534941   -7.873119    0.096787
    131          1           0       -6.772035   -6.792876    0.875744
    132          1           0       -5.005704   -6.876837    1.602186
    133          8           0       -7.674567    6.929506   -0.531169
    134          1           0       -9.034497    6.234977   -1.912045
 ---------------------------------------------------------------------

 SCF Done:  E(RCAM-B3LYP) =  -3043.44876192     A.U. after   16 cycles

 Excitation energies and oscillator strengths:

 Excited State   1:      Singlet-A      1.9990 eV  620.24 nm  f=0.1904  <S**2>=0.000
     243 -> 246       -0.26669
     244 -> 245        0.64519
 This state for optimization and/or second-order correction.
 Total Energy, E(TD-HF/TD-KS) =  -3043.37530102
 Copying the excited state density for this state as the 1-particle RhoCI density.

 The electronic state is 1-A.
 Alpha  occ. eigenvalues --  -46.81323 -19.24485 -19.21830 -19.18250 -19.17492
 Alpha  occ. eigenvalues --  -19.17226 -19.17210 -19.16888 -14.38432 -14.37123
 Alpha  occ. eigenvalues --  -14.36765 -14.36662 -10.36325 -10.34838 -10.31793
 Alpha  occ. eigenvalues --  -10.30200 -10.30149 -10.29485 -10.29303 -10.27763
 Alpha  occ. eigenvalues --  -10.27342 -10.27339 -10.26995 -10.26687 -10.26476
 Alpha  occ. eigenvalues --  -10.26169 -10.25976 -10.25903 -10.25767 -10.25639
 Alpha  occ. eigenvalues --  -10.25354 -10.24948 -10.24482 -10.24352 -10.24315
 Alpha  occ. eigenvalues --  -10.24121 -10.24036 -10.24021 -10.23903 -10.23870
 Alpha  occ. eigenvalues --  -10.23747 -10.23579 -10.23064 -10.23020 -10.22802
 Alpha  occ. eigenvalues --  -10.22796 -10.22755 -10.22698 -10.22629 -10.22473
 Alpha  occ. eigenvalues --  -10.22258 -10.22244 -10.22003 -10.22000 -10.21881
 Alpha  occ. eigenvalues --  -10.21780 -10.21319 -10.21302 -10.21263 -10.20967
 Alpha  occ. eigenvalues --  -10.20917 -10.20624 -10.20404 -10.20343 -10.20195
 Alpha  occ. eigenvalues --  -10.19875  -3.09930  -1.84851  -1.84398  -1.84354
 Alpha  occ. eigenvalues --   -1.16057  -1.12969  -1.06189  -1.05902  -1.05650
 Alpha  occ. eigenvalues --   -1.04334  -1.04278  -0.99702  -0.99005  -0.98629
 Alpha  occ. eigenvalues --   -0.97573  -0.88310  -0.87051  -0.86179  -0.86007
 Alpha  occ. eigenvalues --   -0.85484  -0.85188  -0.84688  -0.83801  -0.83302
 Alpha  occ. eigenvalues --   -0.82867  -0.82117  -0.81673  -0.80290  -0.79740
 Alpha  occ. eigenvalues --   -0.78707  -0.78078  -0.77875  -0.77246  -0.76340
 Alpha  occ. eigenvalues --   -0.75001  -0.74771  -0.73775  -0.73435  -0.71992
 Alpha  occ. eigenvalues --   -0.71643  -0.70946  -0.70214  -0.69650  -0.69588
 Alpha  occ. eigenvalues --   -0.69225  -0.69046  -0.67612  -0.66324  -0.65734
 Alpha  occ. eigenvalues --   -0.65559  -0.64518  -0.63973  -0.61934  -0.61730
 Alpha  occ. eigenvalues --   -0.61018  -0.60870  -0.59665  -0.59215  -0.58344
 Alpha  occ. eigenvalues --   -0.57965  -0.57687  -0.57562  -0.57071  -0.56304
 Alpha  occ. eigenvalues --   -0.55869  -0.55709  -0.55354  -0.54627  -0.54476
 Alpha  occ. eigenvalues --   -0.54018  -0.53408  -0.53220  -0.53028  -0.52381
 Alpha  occ. eigenvalues --   -0.52131  -0.51831  -0.51612  -0.51146  -0.50774
 Alpha  occ. eigenvalues --   -0.50308  -0.50098  -0.49834  -0.49606  -0.48918
 Alpha  occ. eigenvalues --   -0.48851  -0.48724  -0.48277  -0.48153  -0.47669
 Alpha  occ. eigenvalues --   -0.47557  -0.47437  -0.47369  -0.47073  -0.46836
 Alpha  occ. eigenvalues --   -0.46521  -0.46322  -0.46108  -0.45794  -0.45622
 Alpha  occ. eigenvalues --   -0.45336  -0.45117  -0.45054  -0.45010  -0.44832
 Alpha  occ. eigenvalues --   -0.44472  -0.44116  -0.43939  -0.43747  -0.43588
 Alpha  occ. eigenvalues --   -0.43243  -0.43159  -0.43019  -0.42825  -0.42667
 Alpha  occ. eigenvalues --   -0.42541  -0.42448  -0.42266  -0.41716  -0.41268
 Alpha  occ. eigenvalues --   -0.41201  -0.41049  -0.41019  -0.40898  -0.40879
 Alpha  occ. eigenvalues --   -0.40607  -0.40476  -0.40413  -0.40174  -0.39983
 Alpha  occ. eigenvalues --   -0.39788  -0.39587  -0.39454  -0.39115  -0.38942
 Alpha  occ. eigenvalues --   -0.38840  -0.38749  -0.38161  -0.38157  -0.37944
 Alpha  occ. eigenvalues --   -0.37727  -0.37614  -0.37571  -0.37319  -0.37219
 Alpha  occ. eigenvalues --   -0.37049  -0.36720  -0.36357  -0.35766  -0.35244
 Alpha  occ. eigenvalues --   -0.35115  -0.34913  -0.34849  -0.34415  -0.34347
 Alpha  occ. eigenvalues --   -0.34042  -0.33781  -0.33588  -0.33543  -0.33354
 Alpha  occ. eigenvalues --   -0.32955  -0.32816  -0.32129  -0.31581  -0.31482
 Alpha  occ. eigenvalues --   -0.31000  -0.30564  -0.30464  -0.30122  -0.29384
 Alpha  occ. eigenvalues --   -0.28759  -0.28181  -0.28025  -0.27745  -0.27215
 Alpha  occ. eigenvalues --   -0.26863  -0.26644  -0.22818  -0.21349
 Alpha virt. eigenvalues --   -0.08436  -0.06479  -0.02052  -0.01167   0.00320
 Alpha virt. eigenvalues --    0.02512   0.02572   0.02737   0.04237   0.04616
 Alpha virt. eigenvalues --    0.05096   0.05653   0.06784   0.08332   0.08964

 Mulliken charges:
               1
     1  Mg   0.844055
     2  C    0.072231
     3  C   -0.160901
     4  C   -0.187141
     5  C   -0.157452
     6  N   -0.643534
     7  C    0.352110
     8  C   -0.164599
     9  C   -0.135933
    10  C    0.303258
    11  C   -0.300552
    12  C   -0.156159
    13  C   -0.270205
    14  C    0.579873
    15  O   -0.451365
    16  O   -0.475987
    17  N   -0.695289
    18  C    0.332316
    19  C    0.049638
    20  C   -0.058326
    21  C    0.297774
    22  C   -0.383259
    23  C    0.245208
    24  O   -0.407026
    25  N   -0.690833
    26  C    0.274023
    27  C   -0.051708
    28  C    0.034674
    29  C    0.343367
    30  C    0.276377
    31  C   -0.270587
    32  C   -0.290109
    33  N   -0.723480
    34  C    0.206433
    35  C    0.065298
    36  C    0.010304
    37  C    0.293362
    38  C   -0.374706
    39  C    0.362617
    40  O   -0.473188
    41  C   -0.303900
    42  C    0.597731
    43  O   -0.481593
    44  O   -0.393170
    45  C   -0.090994
    46  C   -0.011413
    47  C   -0.118815
    48  C    0.156006
    49  C   -0.387592
    50  C   -0.216173
    51  C   -0.175938
    52  C   -0.145267
    53  C   -0.040393
    54  C   -0.307019
    55  C   -0.152536
    56  C   -0.191336
    57  C   -0.167943
    58  C   -0.043118
    59  C   -0.314055
    60  C   -0.159773
    61  C   -0.160847
    62  C   -0.203435
    63  C   -0.063018
    64  C   -0.316498
    65  C   -0.297522
    66  H    0.071215
    67  H    0.161429
    68  H    0.088386
    69  H    0.101694
    70  H    0.106156
    71  H    0.079843
    72  H    0.119195
    73  H    0.135980
    74  H    0.124758
    75  H    0.135563
    76  H    0.143279
    77  H    0.112520
    78  H    0.124325
    79  H    0.146091
    80  H    0.131971
    81  H    0.066456
    82  H    0.116164
    83  H    0.111159
    84  H    0.114724
    85  H    0.093221
    86  H    0.090164
    87  H    0.108402
    88  H    0.162069
    89  H    0.139121
    90  H    0.156504
    91  H    0.087953
    92  H    0.131507
    93  H    0.080373
    94  H    0.141207
    95  H    0.101170
    96  H    0.123207
    97  H    0.121913
    98  H    0.107473
    99  H    0.080645
   100  H    0.059712
   101  H    0.079992
   102  H    0.055181
   103  H    0.065978
   104  H    0.073303
   105  H    0.104797
   106  H    0.117102
   107  H    0.078079
   108  H    0.098163
   109  H    0.083687
   110  H    0.092400
   111  H    0.093377
   112  H    0.086874
   113  H    0.064470
   114  H    0.101460
   115  H    0.085740
   116  H    0.105901
   117  H    0.047919
   118  H    0.099328
   119  H    0.104349
   120  H    0.101589
   121  H    0.091733
   122  H    0.079652
   123  H    0.077981
   124  H    0.113885
   125  H    0.093767
   126  H    0.117033
   127  H    0.099385
   128  H    0.097795
   129  H    0.074256
   130  H    0.133170
   131  H    0.112310
   132  H    0.128787
   133  O   -0.451242
   134  H    0.084281
 Sum of Mulliken charges =   0.00000

 Dipole moment (field-independent basis, Debye):
    X=              2.4592    Y=             -5.6511    Z=             -2.0189  Tot=              6.4853
 Quadrupole moment (field-independent basis, Debye-Ang):
   XX=           -363.4301   YY=           -439.1983   ZZ=           -396.2300
   XY=             11.7409   XZ=             34.0579   YZ=            -36.3592

 Normal termination of Gaussian 09 at Fri Oct  4 19:29:41 2019.
