 Gaussian 09, Revision D.01,
 Gaussian 09:  ES64L-G09RevD.01 24-Apr-2013

 ----------------------------------------------------------------------
 # td=(NStates=1) iop(3/107=0140000000,3/108=0140000000) iop(3/107=0140
 000000,3/108=0140000000) CAM-B3LYP/6-31G(d,p)
 ----------------------------------------------------------------------

 --
 TD
 --
 Symbolic Z-matrix:
 Charge =  0 Multiplicity = 1

                         Standard orientation:
 ---------------------------------------------------------------------
 Center     Atomic      Atomic             Coordinates (Angstroms)
 Number     Number       Type             X           Y           Z
 ---------------------------------------------------------------------
      1         12           0       -5.633960    1.206784    0.131129
      2          6           0       -5.017210   -2.170594   -0.427846
      3          6           0       -3.385143    1.139957    2.754252
      4          6           0       -6.094499    4.681644    0.662168
      5          6           0       -7.811426    1.290694   -2.350424
      6          7           0       -4.392767   -0.300039    1.028396
      7          6           0       -4.200104   -1.555403    0.629469
      8          6           0       -3.158859   -2.279663    1.387107
      9          6           0       -2.916113   -1.352481    2.566872
     10          6           0       -3.622830   -0.080255    2.129853
     11          6           0       -3.606631   -1.834927    3.844238
     12          6           0       -1.864408   -2.640169    0.648951
     13          6           0       -0.953212   -3.587736    1.386107
     14          6           0        0.313263   -3.978881    0.520200
     15          8           0        0.538016   -3.637651   -0.638739
     16          8           0        1.047447   -4.899284    1.211386
     17          7           0       -4.829576    2.667716    1.499351
     18          6           0       -3.959774    2.347537    2.527003
     19          6           0       -3.677227    3.503660    3.242671
     20          6           0       -4.395570    4.560711    2.686906
     21          6           0       -5.086887    3.896809    1.509679
     22          6           0       -2.734219    3.766610    4.369735
     23          6           0       -4.570803    5.997862    2.920704
     24          8           0       -3.981567    6.504206    3.820790
     25          7           0       -6.848760    2.679094   -0.601003
     26          6           0       -6.951918    4.025535   -0.280928
     27          6           0       -7.940739    4.682609   -1.148648
     28          6           0       -8.386825    3.718532   -2.007399
     29          6           0       -7.644776    2.439288   -1.618484
     30          6           0       -8.060012    6.204255   -1.260146
     31          6           0       -9.288841    3.931105   -3.114796
     32          6           0       -8.652404    4.095600   -4.423050
     33          7           0       -6.369841   -0.187168   -1.098274
     34          6           0       -7.264973    0.048264   -2.120851
     35          6           0       -7.457526   -1.201236   -2.809287
     36          6           0       -6.632291   -2.153266   -2.138471
     37          6           0       -6.045209   -1.483101   -0.992257
     38          6           0       -8.510289   -1.520998   -3.868045
     39          6           0       -6.248599   -3.574447   -2.048575
     40          8           0       -6.651840   -4.530839   -2.705286
     41          6           0       -5.153312   -3.582281   -0.976546
     42          6           0       -5.277051   -4.631036    0.128751
     43          8           0       -5.665511   -4.452852    1.274835
     44          8           0       -5.153196   -5.848300   -0.302420
     45          6           0       -5.412056   -6.973232    0.630241
     46          6           0        2.308831   -5.167125    0.712047
     47          6           0        3.357004   -4.085561    1.099000
     48          6           0        3.952458   -3.262510    0.260292
     49          6           0        3.680269   -3.163321   -1.266184
     50          6           0        5.085323   -2.405952    0.719831
     51          6           0        6.455881   -2.792856    0.094603
     52          6           0        7.576362   -1.874167    0.571922
     53          6           0        8.959254   -2.042317   -0.096874
     54          6           0        9.519074   -3.485394    0.113377
     55          6           0        9.934164   -0.963385    0.329515
     56          6           0       11.284776   -0.805466   -0.348184
     57          6           0       12.212877    0.307139    0.121016
     58          6           0       13.473412    0.497206   -0.638945
     59          6           0       14.309719   -0.704247   -0.511840
     60          6           0       14.102269    1.835741   -0.117963
     61          6           0       15.337207    2.155527   -1.005272
     62          6           0       15.846573    3.539838   -0.596437
     63          6           0       17.180988    4.025514   -1.256775
     64          6           0       17.016066    4.120564   -2.778881
     65          6           0       17.758774    5.201203   -0.690064
     66          1           0       -2.590108    0.963542    3.428302
     67          1           0       -6.206561    5.666697    0.751640
     68          1           0       -8.430468    1.321212   -3.246885
     69          1           0       -3.782518   -3.281578    1.761198
     70          1           0       -1.819793   -1.457609    2.940747
     71          1           0       -3.326304   -2.770572    4.072609
     72          1           0       -3.286446   -1.152709    4.680024
     73          1           0       -4.883991   -1.916268    3.586256
     74          1           0       -2.175388   -3.219115   -0.042606
     75          1           0       -1.372805   -1.845277    0.186823
     76          1           0       -0.475971   -3.269436    2.286757
     77          1           0       -1.446541   -4.495643    1.615712
     78          1           0       -1.787581    3.492028    4.160212
     79          1           0       -2.733839    4.890482    4.756188
     80          1           0       -3.003021    3.254216    5.355211
     81          1           0       -5.276851    6.568578    2.344799
     82          1           0       -9.909399    3.078913   -3.224587
     83          1           0       -9.739921    4.822013   -2.828811
     84          1           0       -9.340278    4.166832   -5.276036
     85          1           0       -7.944834    4.975070   -4.308518
     86          1           0       -8.098599    3.256202   -4.593443
     87          1           0       -8.180236   -1.184063   -4.960196
     88          1           0       -8.919524   -2.553965   -4.075154
     89          1           0       -9.456024   -0.991991   -3.553775
     90          1           0       -4.251825   -4.011709   -1.451281
     91          1           0        2.577868   -6.148991    1.108899
     92          1           0        2.294849   -5.270132   -0.356363
     93          1           0        3.476931   -4.013207    2.141995
     94          1           0        2.671368   -3.381198   -1.566343
     95          1           0        4.092801   -2.220015   -1.560620
     96          1           0        4.394942   -3.754472   -1.825275
     97          1           0        4.992332   -1.388362    0.244994
     98          1           0        5.121322   -2.364249    1.844167
     99          1           0        6.634308   -3.869062    0.072399
    100          1           0        6.479010   -2.797229   -0.952042
    101          1           0        7.396091   -0.825785    0.502997
    102          1           0        7.692549   -2.186090    1.567477
    103          1           0        8.694785   -1.808443   -1.202147
    104          1           0        8.903425   -4.461352   -0.263993
    105          1           0       10.502351   -3.702972   -0.290017
    106          1           0        9.598724   -3.444812    1.400443
    107          1           0        9.505350    0.026351    0.247192
    108          1           0       10.103942   -0.700512    1.371388
    109          1           0       11.803234   -1.917521   -0.106257
    110          1           0       11.155138   -0.587809   -1.314262
    111          1           0       11.502282    1.362364   -0.040150
    112          1           0       12.517897    0.101915    1.194026
    113          1           0       13.459093    0.689405   -1.900428
    114          1           0       14.340855   -1.123024    0.683171
    115          1           0       13.915623   -1.445265   -1.117265
    116          1           0       15.347868   -0.521916   -1.025580
    117          1           0       13.268676    2.561097   -0.481174
    118          1           0       14.372289    1.780899    0.867037
    119          1           0       16.035652    1.285029   -0.579529
    120          1           0       15.255842    2.005228   -2.053391
    121          1           0       15.047846    4.313157   -0.810265
    122          1           0       15.939070    3.594128    0.719337
    123          1           0       17.997185    3.104696   -1.138110
    124          1           0       16.435183    5.057373   -2.941402
    125          1           0       18.181940    3.805586   -3.201055
    126          1           0       16.237351    3.310733   -3.369479
    127          1           0       18.153258    4.965888    0.407013
    128          1           0       18.813115    5.446261   -1.198896
    129          1           0       17.012045    5.948477   -0.724760
    130          1           0       -4.920158   -7.910439    0.274317
    131          1           0       -6.539193   -7.061477    0.673854
    132          1           0       -5.029221   -6.579085    1.441050
    133          8           0       -7.588645    6.982105   -0.467303
    134          1           0       -8.757340    6.412879   -2.067139
 ---------------------------------------------------------------------

 SCF Done:  E(RCAM-B3LYP) =  -3043.41165079     A.U. after   16 cycles

 Excitation energies and oscillator strengths:

 Excited State   1:      Singlet-A      1.9259 eV  643.78 nm  f=0.2290  <S**2>=0.000
     243 -> 246        0.23422
     244 -> 245        0.66162
 This state for optimization and/or second-order correction.
 Total Energy, E(TD-HF/TD-KS) =  -3043.34087578
 Copying the excited state density for this state as the 1-particle RhoCI density.

 The electronic state is 1-A.
 Alpha  occ. eigenvalues --  -46.82091 -19.22823 -19.22605 -19.19114 -19.18241
 Alpha  occ. eigenvalues --  -19.17059 -19.16404 -19.15482 -14.39661 -14.37189
 Alpha  occ. eigenvalues --  -14.36294 -14.36026 -10.35969 -10.35078 -10.32054
 Alpha  occ. eigenvalues --  -10.31661 -10.28653 -10.28017 -10.27792 -10.26914
 Alpha  occ. eigenvalues --  -10.26912 -10.26633 -10.26615 -10.26304 -10.26044
 Alpha  occ. eigenvalues --  -10.25768 -10.25465 -10.25079 -10.24979 -10.24669
 Alpha  occ. eigenvalues --  -10.24566 -10.24176 -10.24078 -10.24055 -10.23867
 Alpha  occ. eigenvalues --  -10.23653 -10.23407 -10.23342 -10.23336 -10.23254
 Alpha  occ. eigenvalues --  -10.23192 -10.23077 -10.22876 -10.22748 -10.22740
 Alpha  occ. eigenvalues --  -10.22717 -10.22598 -10.22543 -10.22509 -10.22336
 Alpha  occ. eigenvalues --  -10.22232 -10.21998 -10.21478 -10.21451 -10.21364
 Alpha  occ. eigenvalues --  -10.21350 -10.21266 -10.21195 -10.20932 -10.20752
 Alpha  occ. eigenvalues --  -10.20703 -10.20624 -10.20619 -10.20378 -10.20258
 Alpha  occ. eigenvalues --  -10.20160  -3.10578  -1.85531  -1.85067  -1.84952
 Alpha  occ. eigenvalues --   -1.14997  -1.14158  -1.08915  -1.07239  -1.06240
 Alpha  occ. eigenvalues --   -1.05390  -1.03771  -1.01891  -1.01111  -1.00530
 Alpha  occ. eigenvalues --   -0.99455  -0.89279  -0.87420  -0.86863  -0.86387
 Alpha  occ. eigenvalues --   -0.85825  -0.85152  -0.84471  -0.83889  -0.83811
 Alpha  occ. eigenvalues --   -0.82928  -0.81970  -0.81834  -0.80590  -0.80258
 Alpha  occ. eigenvalues --   -0.79589  -0.78807  -0.78126  -0.77591  -0.76714
 Alpha  occ. eigenvalues --   -0.75245  -0.74267  -0.73812  -0.73466  -0.72052
 Alpha  occ. eigenvalues --   -0.71626  -0.70561  -0.70157  -0.70079  -0.70002
 Alpha  occ. eigenvalues --   -0.69318  -0.68931  -0.67718  -0.67486  -0.67255
 Alpha  occ. eigenvalues --   -0.65644  -0.65072  -0.64565  -0.62960  -0.62280
 Alpha  occ. eigenvalues --   -0.61510  -0.60802  -0.60081  -0.59581  -0.59356
 Alpha  occ. eigenvalues --   -0.59029  -0.57767  -0.57608  -0.57107  -0.56867
 Alpha  occ. eigenvalues --   -0.56460  -0.56091  -0.56017  -0.55697  -0.54962
 Alpha  occ. eigenvalues --   -0.54443  -0.54067  -0.53447  -0.52842  -0.52639
 Alpha  occ. eigenvalues --   -0.52382  -0.52004  -0.51579  -0.51228  -0.51180
 Alpha  occ. eigenvalues --   -0.50634  -0.50598  -0.49828  -0.49635  -0.49507
 Alpha  occ. eigenvalues --   -0.49408  -0.48937  -0.48677  -0.48412  -0.48233
 Alpha  occ. eigenvalues --   -0.48073  -0.47813  -0.47411  -0.47256  -0.47159
 Alpha  occ. eigenvalues --   -0.46850  -0.46610  -0.46282  -0.46265  -0.46042
 Alpha  occ. eigenvalues --   -0.45792  -0.45517  -0.45446  -0.45161  -0.45005
 Alpha  occ. eigenvalues --   -0.44790  -0.44754  -0.43977  -0.43852  -0.43742
 Alpha  occ. eigenvalues --   -0.43666  -0.43414  -0.43276  -0.43211  -0.43122
 Alpha  occ. eigenvalues --   -0.42973  -0.42945  -0.42661  -0.42434  -0.42190
 Alpha  occ. eigenvalues --   -0.42179  -0.41968  -0.41733  -0.41566  -0.41362
 Alpha  occ. eigenvalues --   -0.41072  -0.40753  -0.40564  -0.40258  -0.40061
 Alpha  occ. eigenvalues --   -0.39946  -0.39816  -0.39733  -0.39163  -0.39061
 Alpha  occ. eigenvalues --   -0.38867  -0.38691  -0.38274  -0.38203  -0.37934
 Alpha  occ. eigenvalues --   -0.37656  -0.37504  -0.37312  -0.37182  -0.37134
 Alpha  occ. eigenvalues --   -0.36508  -0.36470  -0.36318  -0.36077  -0.35451
 Alpha  occ. eigenvalues --   -0.35062  -0.35002  -0.34966  -0.34821  -0.33953
 Alpha  occ. eigenvalues --   -0.33482  -0.33315  -0.33281  -0.33108  -0.32762
 Alpha  occ. eigenvalues --   -0.32565  -0.32319  -0.32037  -0.31744  -0.31566
 Alpha  occ. eigenvalues --   -0.31424  -0.31109  -0.30530  -0.30346  -0.29735
 Alpha  occ. eigenvalues --   -0.29327  -0.28928  -0.28112  -0.27449  -0.27444
 Alpha  occ. eigenvalues --   -0.27212  -0.26485  -0.22570  -0.20852
 Alpha virt. eigenvalues --   -0.08565  -0.06049  -0.01896  -0.00459   0.00965
 Alpha virt. eigenvalues --    0.02714   0.02959   0.03271   0.04117   0.04593
 Alpha virt. eigenvalues --    0.05191   0.05752   0.07860   0.07931   0.08503

 Mulliken charges:
               1
     1  Mg   0.829804
     2  C    0.074153
     3  C   -0.151254
     4  C   -0.137393
     5  C   -0.179840
     6  N   -0.617699
     7  C    0.311566
     8  C   -0.188638
     9  C   -0.161360
    10  C    0.318867
    11  C   -0.281607
    12  C   -0.135441
    13  C   -0.272901
    14  C    0.587298
    15  O   -0.462634
    16  O   -0.441682
    17  N   -0.671121
    18  C    0.301408
    19  C    0.052381
    20  C   -0.049491
    21  C    0.292159
    22  C   -0.404022
    23  C    0.244837
    24  O   -0.409731
    25  N   -0.705625
    26  C    0.259233
    27  C   -0.050096
    28  C    0.020049
    29  C    0.369536
    30  C    0.282585
    31  C   -0.247428
    32  C   -0.300501
    33  N   -0.744486
    34  C    0.328953
    35  C    0.002830
    36  C   -0.022821
    37  C    0.280392
    38  C   -0.382889
    39  C    0.395553
    40  O   -0.459486
    41  C   -0.302202
    42  C    0.584225
    43  O   -0.494554
    44  O   -0.434815
    45  C   -0.078252
    46  C   -0.005186
    47  C   -0.161103
    48  C    0.160330
    49  C   -0.384784
    50  C   -0.229206
    51  C   -0.192888
    52  C   -0.157066
    53  C   -0.053561
    54  C   -0.285789
    55  C   -0.185469
    56  C   -0.148732
    57  C   -0.159510
    58  C   -0.038397
    59  C   -0.287982
    60  C   -0.147198
    61  C   -0.168555
    62  C   -0.141863
    63  C   -0.035010
    64  C   -0.274229
    65  C   -0.279538
    66  H    0.089112
    67  H    0.101937
    68  H    0.083424
    69  H    0.119574
    70  H    0.096064
    71  H    0.121661
    72  H    0.103472
    73  H    0.086733
    74  H    0.118459
    75  H    0.128222
    76  H    0.131828
    77  H    0.141143
    78  H    0.126451
    79  H    0.153125
    80  H    0.104598
    81  H    0.084601
    82  H    0.116461
    83  H    0.111450
    84  H    0.112925
    85  H    0.097081
    86  H    0.120673
    87  H    0.110146
    88  H    0.148103
    89  H    0.117205
    90  H    0.162019
    91  H    0.109200
    92  H    0.118360
    93  H    0.078064
    94  H    0.155066
    95  H    0.108555
    96  H    0.115277
    97  H    0.096562
    98  H    0.093095
    99  H    0.095461
   100  H    0.093359
   101  H    0.094021
   102  H    0.099533
   103  H    0.071246
   104  H    0.085752
   105  H    0.114113
   106  H    0.063292
   107  H    0.081787
   108  H    0.085980
   109  H    0.059492
   110  H    0.103191
   111  H    0.044991
   112  H    0.089234
   113  H    0.042051
   114  H    0.062670
   115  H    0.124661
   116  H    0.086849
   117  H    0.082956
   118  H    0.103958
   119  H    0.079813
   120  H    0.097489
   121  H    0.080280
   122  H    0.036694
   123  H    0.050200
   124  H    0.104071
   125  H    0.085993
   126  H    0.066185
   127  H    0.092385
   128  H    0.087626
   129  H    0.105825
   130  H    0.133639
   131  H    0.141242
   132  H    0.147489
   133  O   -0.401237
   134  H    0.074935
 Sum of Mulliken charges =   0.00000

 Dipole moment (field-independent basis, Debye):
    X=              1.4854    Y=             -4.6648    Z=             -1.9907  Tot=              5.2849
 Quadrupole moment (field-independent basis, Debye-Ang):
   XX=           -379.5855   YY=           -428.5605   ZZ=           -399.7342
   XY=              2.6809   XZ=             23.9600   YZ=            -40.2721

 Normal termination of Gaussian 09 at Tue Oct  8 18:28:17 2019.
