 Gaussian 09, Revision D.01,
 Gaussian 09:  ES64L-G09RevD.01 24-Apr-2013

 ----------------------------------------------------------------------
 # td=(NStates=1) iop(3/107=0140000000,3/108=0140000000) iop(3/107=0140
 000000,3/108=0140000000) CAM-B3LYP/6-31G(d,p)
 ----------------------------------------------------------------------

 --
 TD
 --
 Symbolic Z-matrix:
 Charge =  0 Multiplicity = 1

                         Standard orientation:
 ---------------------------------------------------------------------
 Center     Atomic      Atomic             Coordinates (Angstroms)
 Number     Number       Type             X           Y           Z
 ---------------------------------------------------------------------
      1         12           0       -5.574045    1.256287    0.135302
      2          6           0       -4.940806   -2.080221   -0.458497
      3          6           0       -3.442771    1.099496    2.735333
      4          6           0       -6.153503    4.537787    0.700107
      5          6           0       -7.939691    1.287024   -2.404723
      6          7           0       -4.503047   -0.289844    1.099266
      7          6           0       -4.317465   -1.598057    0.658047
      8          6           0       -3.275965   -2.333161    1.413151
      9          6           0       -2.964246   -1.324266    2.628190
     10          6           0       -3.713383   -0.109546    2.224003
     11          6           0       -3.517945   -1.918277    3.977062
     12          6           0       -1.985133   -2.694745    0.653044
     13          6           0       -1.000766   -3.650025    1.354461
     14          6           0        0.228749   -3.928502    0.516386
     15          8           0        0.535526   -3.388095   -0.449707
     16          8           0        0.965627   -4.851909    1.228348
     17          7           0       -4.943322    2.555162    1.510471
     18          6           0       -4.026200    2.369523    2.492922
     19          6           0       -3.720266    3.702361    3.151669
     20          6           0       -4.546015    4.551402    2.513751
     21          6           0       -5.193606    3.912330    1.429574
     22          6           0       -2.865357    3.742204    4.368756
     23          6           0       -4.692611    5.984158    2.875898
     24          8           0       -4.003530    6.518261    3.807030
     25          7           0       -6.878558    2.626607   -0.720434
     26          6           0       -6.954442    3.953864   -0.282262
     27          6           0       -7.898056    4.628989   -1.080990
     28          6           0       -8.444894    3.689719   -2.040290
     29          6           0       -7.719188    2.503872   -1.693566
     30          6           0       -8.235356    6.041453   -1.058621
     31          6           0       -9.406424    3.935074   -3.188589
     32          6           0       -8.851588    4.022545   -4.616330
     33          7           0       -6.187913   -0.092545   -1.265956
     34          6           0       -7.263431    0.053868   -2.143392
     35          6           0       -7.515439   -1.248325   -2.748234
     36          6           0       -6.679815   -2.136921   -2.034151
     37          6           0       -5.911444   -1.385934   -1.207420
     38          6           0       -8.533920   -1.586838   -3.795712
     39          6           0       -6.171706   -3.517862   -1.983950
     40          8           0       -6.566379   -4.446888   -2.605357
     41          6           0       -5.080428   -3.584803   -0.872120
     42          6           0       -5.338215   -4.668021    0.104714
     43          8           0       -5.794133   -4.422787    1.181968
     44          8           0       -4.880413   -5.901574   -0.343637
     45          6           0       -5.320453   -6.971160    0.584123
     46          6           0        2.265836   -5.046498    0.599716
     47          6           0        3.389597   -4.206140    1.021416
     48          6           0        4.042899   -3.298378    0.244447
     49          6           0        3.768360   -3.122001   -1.200010
     50          6           0        5.226679   -2.454868    0.816916
     51          6           0        6.575847   -2.776196   -0.007578
     52          6           0        7.790727   -2.030891    0.482321
     53          6           0        9.026524   -2.132629   -0.185430
     54          6           0        9.515185   -3.540015    0.044808
     55          6           0       10.047742   -1.033374    0.362025
     56          6           0       11.363357   -0.840659   -0.437547
     57          6           0       12.237619    0.234384    0.149859
     58          6           0       13.666369    0.544816   -0.697814
     59          6           0       14.457004   -0.758997   -0.533908
     60          6           0       14.351335    1.680288   -0.132704
     61          6           0       15.496343    2.157274   -0.880857
     62          6           0       15.961449    3.633336   -0.488615
     63          6           0       17.222642    4.127763   -1.210721
     64          6           0       17.040721    4.290070   -2.691204
     65          6           0       17.768145    5.431404   -0.695613
     66          1           0       -2.836147    1.187675    3.687796
     67          1           0       -6.255627    5.528875    0.802071
     68          1           0       -8.674486    1.377656   -3.099169
     69          1           0       -3.768428   -3.178822    1.933993
     70          1           0       -1.804787   -1.234103    2.675565
     71          1           0       -2.929550   -2.729061    4.222404
     72          1           0       -3.492642   -1.178008    4.820365
     73          1           0       -4.626740   -2.028137    3.942831
     74          1           0       -2.252424   -3.216959   -0.376274
     75          1           0       -1.324947   -1.738742    0.556649
     76          1           0       -0.831845   -3.330077    2.374708
     77          1           0       -1.608204   -4.585984    1.338731
     78          1           0       -1.709247    3.583248    4.087235
     79          1           0       -2.816327    4.740693    4.743572
     80          1           0       -3.257322    2.878955    5.047465
     81          1           0       -5.283440    6.567425    2.480443
     82          1           0      -10.105901    3.249287   -3.250670
     83          1           0      -10.044956    4.787434   -2.565326
     84          1           0       -9.686058    4.175779   -5.271157
     85          1           0       -8.037656    4.844747   -4.698828
     86          1           0       -8.278823    3.259098   -4.997522
     87          1           0       -8.264712   -0.914420   -4.654176
     88          1           0       -8.580989   -2.586078   -4.383010
     89          1           0       -9.495070   -1.485499   -3.313350
     90          1           0       -4.131924   -3.801235   -1.489403
     91          1           0        2.415825   -6.092651    0.848765
     92          1           0        2.043191   -5.263276   -0.453818
     93          1           0        3.546655   -4.049093    2.182086
     94          1           0        2.849740   -3.427504   -1.271586
     95          1           0        3.936942   -2.106527   -1.410173
     96          1           0        4.474747   -3.603058   -1.778985
     97          1           0        4.872272   -1.487866    0.836440
     98          1           0        5.394413   -2.791829    1.713186
     99          1           0        6.462493   -3.751327    0.180102
    100          1           0        6.386132   -2.963800   -1.238561
    101          1           0        7.500906   -0.883964    0.420290
    102          1           0        7.870654   -2.109912    1.583262
    103          1           0        8.754640   -2.001928   -1.220478
    104          1           0        8.929129   -4.370788   -0.546228
    105          1           0       10.526770   -3.676209   -0.290353
    106          1           0        9.465952   -3.745274    1.256925
    107          1           0        9.522003   -0.155289    0.388025
    108          1           0        9.931968   -1.001110    1.340610
    109          1           0       11.876487   -1.922905   -0.605766
    110          1           0       11.247239   -0.361349   -1.413197
    111          1           0       11.766338    1.272667   -0.217076
    112          1           0       12.473671    0.158190    1.161034
    113          1           0       13.360094    0.577632   -1.836515
    114          1           0       14.657547   -1.024311    0.549081
    115          1           0       14.171981   -1.624653   -1.003377
    116          1           0       15.493791   -0.583725   -1.032126
    117          1           0       13.632775    2.470960   -0.023361
    118          1           0       14.519622    1.406879    0.962428
    119          1           0       16.321766    1.476810   -0.779411
    120          1           0       15.030716    2.471195   -1.906211
    121          1           0       15.134620    4.159860   -0.716270
    122          1           0       16.155740    3.773677    0.614256
    123          1           0       18.041459    3.271576   -1.181406
    124          1           0       16.390568    5.100056   -2.829246
    125          1           0       17.805491    4.540543   -3.249944
    126          1           0       16.500468    3.400853   -3.028001
    127          1           0       17.962155    5.390604    0.361889
    128          1           0       18.782091    5.603359   -1.388045
    129          1           0       17.067041    6.123315   -0.707137
    130          1           0       -5.333710   -8.026307    0.083964
    131          1           0       -6.326969   -6.714774    0.819690
    132          1           0       -4.674640   -7.054059    1.430694
    133          8           0       -7.786998    6.916775   -0.238462
    134          1           0       -9.057321    6.534031   -1.840027
 ---------------------------------------------------------------------

 SCF Done:  E(RCAM-B3LYP) =  -3043.41480770     A.U. after   16 cycles

 Excitation energies and oscillator strengths:

 Excited State   1:      Singlet-A      2.1230 eV  584.00 nm  f=0.1264  <S**2>=0.000
     243 -> 246       -0.32062
     244 -> 245        0.62047
 This state for optimization and/or second-order correction.
 Total Energy, E(TD-HF/TD-KS) =  -3043.33678794
 Copying the excited state density for this state as the 1-particle RhoCI density.

 The electronic state is 1-A.
 Alpha  occ. eigenvalues --  -46.80966 -19.23002 -19.21539 -19.18512 -19.18122
 Alpha  occ. eigenvalues --  -19.16827 -19.16686 -19.16614 -14.38399 -14.36910
 Alpha  occ. eigenvalues --  -14.36679 -14.35978 -10.35650 -10.34693 -10.31245
 Alpha  occ. eigenvalues --  -10.31032 -10.28930 -10.27684 -10.27103 -10.27002
 Alpha  occ. eigenvalues --  -10.26986 -10.26776 -10.26775 -10.25996 -10.25648
 Alpha  occ. eigenvalues --  -10.25605 -10.25347 -10.25163 -10.24882 -10.24679
 Alpha  occ. eigenvalues --  -10.24649 -10.24612 -10.24535 -10.24464 -10.24186
 Alpha  occ. eigenvalues --  -10.23845 -10.23417 -10.23404 -10.23356 -10.23262
 Alpha  occ. eigenvalues --  -10.23211 -10.23124 -10.22865 -10.22456 -10.22410
 Alpha  occ. eigenvalues --  -10.22400 -10.22382 -10.22339 -10.22282 -10.22166
 Alpha  occ. eigenvalues --  -10.22123 -10.21486 -10.21483 -10.21449 -10.21263
 Alpha  occ. eigenvalues --  -10.21252 -10.21233 -10.20776 -10.20408 -10.20216
 Alpha  occ. eigenvalues --  -10.20089 -10.19839 -10.19815 -10.19586 -10.18097
 Alpha  occ. eigenvalues --  -10.17564  -3.09632  -1.84571  -1.84110  -1.84038
 Alpha  occ. eigenvalues --   -1.15000  -1.13163  -1.08652  -1.06767  -1.05597
 Alpha  occ. eigenvalues --   -1.03686  -1.03069  -1.01236  -1.00367  -1.00000
 Alpha  occ. eigenvalues --   -0.98578  -0.88419  -0.87020  -0.86183  -0.85680
 Alpha  occ. eigenvalues --   -0.85566  -0.85069  -0.84598  -0.83967  -0.83926
 Alpha  occ. eigenvalues --   -0.83577  -0.83076  -0.81572  -0.80863  -0.80320
 Alpha  occ. eigenvalues --   -0.79487  -0.78732  -0.77967  -0.77279  -0.76867
 Alpha  occ. eigenvalues --   -0.76026  -0.75271  -0.74228  -0.73162  -0.72310
 Alpha  occ. eigenvalues --   -0.72031  -0.71933  -0.71312  -0.70950  -0.70076
 Alpha  occ. eigenvalues --   -0.69599  -0.68932  -0.68351  -0.67599  -0.66883
 Alpha  occ. eigenvalues --   -0.66052  -0.65097  -0.64220  -0.63902  -0.62522
 Alpha  occ. eigenvalues --   -0.61426  -0.61057  -0.60655  -0.59252  -0.59145
 Alpha  occ. eigenvalues --   -0.58905  -0.58575  -0.58238  -0.58088  -0.57897
 Alpha  occ. eigenvalues --   -0.56361  -0.56051  -0.55815  -0.55671  -0.54860
 Alpha  occ. eigenvalues --   -0.54328  -0.53490  -0.53110  -0.52776  -0.52450
 Alpha  occ. eigenvalues --   -0.52085  -0.51951  -0.51562  -0.51225  -0.50748
 Alpha  occ. eigenvalues --   -0.50418  -0.50170  -0.50020  -0.49866  -0.49308
 Alpha  occ. eigenvalues --   -0.49127  -0.48899  -0.48719  -0.48578  -0.48215
 Alpha  occ. eigenvalues --   -0.48041  -0.47846  -0.47490  -0.47376  -0.47030
 Alpha  occ. eigenvalues --   -0.46883  -0.46547  -0.46481  -0.46232  -0.46146
 Alpha  occ. eigenvalues --   -0.45926  -0.45703  -0.45678  -0.45503  -0.45093
 Alpha  occ. eigenvalues --   -0.45026  -0.44595  -0.44415  -0.44354  -0.44030
 Alpha  occ. eigenvalues --   -0.43975  -0.43682  -0.43421  -0.43076  -0.43055
 Alpha  occ. eigenvalues --   -0.42934  -0.42418  -0.42286  -0.42144  -0.42004
 Alpha  occ. eigenvalues --   -0.41769  -0.41486  -0.41430  -0.41390  -0.41162
 Alpha  occ. eigenvalues --   -0.40836  -0.40507  -0.40353  -0.40265  -0.40158
 Alpha  occ. eigenvalues --   -0.39738  -0.39692  -0.39594  -0.39497  -0.39316
 Alpha  occ. eigenvalues --   -0.39243  -0.39001  -0.38768  -0.38724  -0.38387
 Alpha  occ. eigenvalues --   -0.38362  -0.37815  -0.37635  -0.36936  -0.36804
 Alpha  occ. eigenvalues --   -0.36667  -0.36599  -0.36089  -0.35938  -0.35752
 Alpha  occ. eigenvalues --   -0.35395  -0.35267  -0.34998  -0.34882  -0.34747
 Alpha  occ. eigenvalues --   -0.34423  -0.34114  -0.33940  -0.33848  -0.33387
 Alpha  occ. eigenvalues --   -0.32974  -0.32917  -0.32156  -0.32124  -0.32031
 Alpha  occ. eigenvalues --   -0.31828  -0.31763  -0.31235  -0.30257  -0.29099
 Alpha  occ. eigenvalues --   -0.28808  -0.27910  -0.27804  -0.27669  -0.27544
 Alpha  occ. eigenvalues --   -0.27206  -0.27115  -0.22871  -0.22093
 Alpha virt. eigenvalues --   -0.08344  -0.06820  -0.01747  -0.01205   0.00722
 Alpha virt. eigenvalues --    0.02882   0.03296   0.03519   0.04465   0.04508
 Alpha virt. eigenvalues --    0.05028   0.05530   0.08281   0.08595   0.09046

 Mulliken charges:
               1
     1  Mg   0.818480
     2  C    0.022153
     3  C   -0.193160
     4  C   -0.124436
     5  C   -0.132959
     6  N   -0.633172
     7  C    0.323476
     8  C   -0.153047
     9  C   -0.165039
    10  C    0.370024
    11  C   -0.321368
    12  C   -0.169344
    13  C   -0.277799
    14  C    0.609576
    15  O   -0.405998
    16  O   -0.485444
    17  N   -0.707645
    18  C    0.288005
    19  C    0.061846
    20  C   -0.044376
    21  C    0.315185
    22  C   -0.383758
    23  C    0.293421
    24  O   -0.447884
    25  N   -0.703728
    26  C    0.287038
    27  C   -0.016053
    28  C    0.009872
    29  C    0.306647
    30  C    0.203782
    31  C   -0.219213
    32  C   -0.320017
    33  N   -0.727323
    34  C    0.276372
    35  C   -0.001955
    36  C    0.020176
    37  C    0.333196
    38  C   -0.377073
    39  C    0.344344
    40  O   -0.431549
    41  C   -0.303487
    42  C    0.640766
    43  O   -0.455538
    44  O   -0.473189
    45  C   -0.092808
    46  C   -0.011684
    47  C   -0.128339
    48  C    0.070036
    49  C   -0.337289
    50  C   -0.217397
    51  C   -0.180715
    52  C   -0.164004
    53  C   -0.045670
    54  C   -0.286277
    55  C   -0.166561
    56  C   -0.155550
    57  C   -0.187811
    58  C   -0.067705
    59  C   -0.301342
    60  C   -0.142897
    61  C   -0.176315
    62  C   -0.181734
    63  C   -0.048795
    64  C   -0.301758
    65  C   -0.288988
    66  H    0.072812
    67  H    0.110633
    68  H    0.076686
    69  H    0.131655
    70  H    0.100809
    71  H    0.122258
    72  H    0.104274
    73  H    0.128911
    74  H    0.098028
    75  H    0.107041
    76  H    0.134107
    77  H    0.132180
    78  H    0.110222
    79  H    0.165629
    80  H    0.120254
    81  H    0.085608
    82  H    0.127854
    83  H    0.095102
    84  H    0.121806
    85  H    0.105707
    86  H    0.130179
    87  H    0.120870
    88  H    0.140507
    89  H    0.140135
    90  H    0.155951
    91  H    0.110149
    92  H    0.120769
    93  H    0.073840
    94  H    0.135581
    95  H    0.114817
    96  H    0.121658
    97  H    0.110471
    98  H    0.107475
    99  H    0.123322
   100  H    0.053999
   101  H    0.064293
   102  H    0.087600
   103  H    0.088868
   104  H    0.088931
   105  H    0.101241
   106  H    0.069683
   107  H    0.089022
   108  H    0.089748
   109  H    0.075032
   110  H    0.101961
   111  H    0.073768
   112  H    0.096433
   113  H    0.063992
   114  H    0.089111
   115  H    0.112749
   116  H    0.073489
   117  H    0.084591
   118  H    0.080796
   119  H    0.105666
   120  H    0.091330
   121  H    0.097070
   122  H    0.076873
   123  H    0.061481
   124  H    0.093701
   125  H    0.106419
   126  H    0.093098
   127  H    0.094538
   128  H    0.075884
   129  H    0.113103
   130  H    0.119040
   131  H    0.145878
   132  H    0.133822
   133  O   -0.450997
   134  H    0.064287
 Sum of Mulliken charges =   0.00000

 Dipole moment (field-independent basis, Debye):
    X=              1.4189    Y=             -4.7526    Z=             -1.3454  Tot=              5.1391
 Quadrupole moment (field-independent basis, Debye-Ang):
   XX=           -382.2051   YY=           -442.0993   ZZ=           -390.3453
   XY=             20.4638   XZ=             24.0715   YZ=            -32.8569

 Normal termination of Gaussian 09 at Fri Oct  4 13:14:51 2019.
