 Gaussian 09, Revision D.01,
 Gaussian 09:  ES64L-G09RevD.01 24-Apr-2013

 ----------------------------------------------------------------------
 # td=(NStates=1) iop(3/107=0140000000,3/108=0140000000) iop(3/107=0140
 000000,3/108=0140000000) CAM-B3LYP/6-31G(d,p)
 ----------------------------------------------------------------------

 --
 TD
 --
 Symbolic Z-matrix:
 Charge =  0 Multiplicity = 1

                         Standard orientation:
 ---------------------------------------------------------------------
 Center     Atomic      Atomic             Coordinates (Angstroms)
 Number     Number       Type             X           Y           Z
 ---------------------------------------------------------------------
      1         12           0       -5.698458    1.193820    0.229912
      2          6           0       -4.912599   -2.105635   -0.395744
      3          6           0       -3.482995    1.191913    2.874790
      4          6           0       -6.136247    4.560075    0.589029
      5          6           0       -8.029729    1.144857   -2.348585
      6          7           0       -4.347254   -0.308644    1.131191
      7          6           0       -4.281111   -1.623104    0.699345
      8          6           0       -3.178440   -2.268040    1.482952
      9          6           0       -2.836002   -1.340467    2.714460
     10          6           0       -3.600127    0.005963    2.227724
     11          6           0       -3.438711   -1.847802    4.045357
     12          6           0       -1.941886   -2.652386    0.755210
     13          6           0       -0.935492   -3.550557    1.530850
     14          6           0        0.289118   -3.887055    0.693432
     15          8           0        0.468110   -3.315105   -0.406174
     16          8           0        1.036143   -4.877058    1.251597
     17          7           0       -5.018024    2.605137    1.590645
     18          6           0       -4.086153    2.448160    2.586161
     19          6           0       -3.735213    3.685160    3.226473
     20          6           0       -4.537771    4.678139    2.639896
     21          6           0       -5.355186    3.937753    1.475609
     22          6           0       -2.735553    3.830790    4.354712
     23          6           0       -4.750196    6.094011    2.911234
     24          8           0       -4.200897    6.646972    3.841113
     25          7           0       -6.897901    2.632430   -0.735846
     26          6           0       -6.906402    3.959218   -0.461297
     27          6           0       -7.807303    4.495990   -1.299157
     28          6           0       -8.478314    3.578154   -2.082346
     29          6           0       -7.812501    2.429080   -1.813738
     30          6           0       -8.110122    6.064414   -1.351449
     31          6           0       -9.525555    3.784722   -3.195440
     32          6           0       -8.835710    4.078219   -4.581737
     33          7           0       -6.431858   -0.105849   -1.014585
     34          6           0       -7.394682   -0.038282   -1.958190
     35          6           0       -7.614465   -1.256687   -2.646916
     36          6           0       -6.611345   -2.246773   -2.175455
     37          6           0       -5.918052   -1.365196   -1.204669
     38          6           0       -8.370633   -1.612424   -3.797848
     39          6           0       -6.128004   -3.591897   -1.990675
     40          8           0       -6.347604   -4.623562   -2.620528
     41          6           0       -5.038988   -3.574748   -0.914866
     42          6           0       -5.255127   -4.591314    0.150018
     43          8           0       -5.625433   -4.556963    1.287863
     44          8           0       -4.961793   -5.802674   -0.363301
     45          6           0       -5.147093   -6.901180    0.577848
     46          6           0        2.307627   -5.082822    0.605086
     47          6           0        3.353858   -4.086715    0.922134
     48          6           0        3.916934   -3.306344    0.042058
     49          6           0        3.701692   -3.412537   -1.422096
     50          6           0        5.061573   -2.413557    0.440002
     51          6           0        6.509963   -2.770306   -0.111666
     52          6           0        7.582447   -1.922636    0.409903
     53          6           0        9.005461   -1.937027   -0.248604
     54          6           0        9.558658   -3.368650    0.134042
     55          6           0        9.996718   -0.963293    0.283279
     56          6           0       11.283092   -0.849534   -0.339500
     57          6           0       12.087690    0.308957    0.183193
     58          6           0       13.542490    0.487940   -0.510424
     59          6           0       14.551202   -0.591321   -0.253800
     60          6           0       14.191921    1.955361   -0.148468
     61          6           0       15.435556    2.116221   -0.959863
     62          6           0       15.989625    3.558501   -0.597360
     63          6           0       17.325907    3.970873   -1.318207
     64          6           0       17.131292    4.136507   -2.741706
     65          6           0       17.827543    5.249092   -0.712532
     66          1           0       -2.860551    0.998779    3.631050
     67          1           0       -6.337645    5.541208    0.715677
     68          1           0       -8.631355    1.208758   -3.137587
     69          1           0       -3.526831   -3.199005    2.000595
     70          1           0       -1.810039   -1.152167    2.872951
     71          1           0       -2.832342   -2.809962    4.168278
     72          1           0       -3.154362   -1.104319    4.840188
     73          1           0       -4.513538   -1.903730    4.209428
     74          1           0       -2.120953   -2.925429   -0.250911
     75          1           0       -1.416005   -1.691770    0.766233
     76          1           0       -0.530582   -3.142578    2.439892
     77          1           0       -1.292669   -4.679306    1.808132
     78          1           0       -1.657179    3.654552    4.065976
     79          1           0       -2.915009    4.780225    4.845935
     80          1           0       -2.906649    3.008296    5.149280
     81          1           0       -5.374715    6.508689    1.897798
     82          1           0      -10.143831    2.886599   -3.227926
     83          1           0      -10.363205    4.569838   -2.963351
     84          1           0       -9.623228    4.041552   -5.408167
     85          1           0       -8.412765    4.980435   -4.461621
     86          1           0       -8.005254    3.354372   -5.016712
     87          1           0       -8.164652   -0.895792   -4.616606
     88          1           0       -8.278880   -2.772898   -4.069502
     89          1           0       -9.435107   -1.451703   -3.722624
     90          1           0       -4.297893   -3.938551   -1.564273
     91          1           0        2.639962   -6.121406    1.034901
     92          1           0        2.072852   -5.225538   -0.439038
     93          1           0        3.692120   -4.026425    2.005512
     94          1           0        2.563979   -3.785825   -1.539489
     95          1           0        3.631419   -2.440299   -2.104960
     96          1           0        4.270247   -4.185708   -1.873667
     97          1           0        4.930290   -1.493396    0.444865
     98          1           0        5.114515   -2.607933    1.573651
     99          1           0        6.805722   -3.863197    0.275775
    100          1           0        6.463770   -3.076707   -1.129822
    101          1           0        7.197924   -0.936071    0.217761
    102          1           0        7.536001   -2.177724    1.529956
    103          1           0        8.878484   -1.681801   -1.351677
    104          1           0        8.797773   -4.228882    0.023785
    105          1           0       10.451176   -3.622225   -0.345491
    106          1           0        9.683212   -3.510384    1.273246
    107          1           0        9.523234   -0.064780    0.140273
    108          1           0       10.232769   -1.115006    1.348774
    109          1           0       11.778001   -1.754514   -0.398290
    110          1           0       10.999596   -0.657780   -1.431022
    111          1           0       11.516746    1.153652    0.363234
    112          1           0       12.540086    0.044025    1.283418
    113          1           0       13.378574    0.570437   -1.742921
    114          1           0       15.263528   -0.584447    0.691581
    115          1           0       14.209449   -1.706533   -0.280620
    116          1           0       15.290359   -0.437311   -0.997443
    117          1           0       13.441547    2.694642   -0.370224
    118          1           0       14.345897    2.172716    0.895000
    119          1           0       16.297415    1.580563   -0.771569
    120          1           0       15.043548    2.068429   -2.028492
    121          1           0       15.275969    4.318621   -0.773125
    122          1           0       16.284101    3.634082    0.354337
    123          1           0       18.154605    3.228516   -1.118400
    124          1           0       16.378286    4.944838   -2.904489
    125          1           0       17.934661    4.282351   -3.325018
    126          1           0       16.758977    3.109951   -3.109551
    127          1           0       18.200523    5.207681    0.243248
    128          1           0       18.766944    5.538091   -1.177678
    129          1           0       17.162429    6.099332   -0.737858
    130          1           0       -4.891196   -7.905149    0.028236
    131          1           0       -6.352996   -6.886066    0.724738
    132          1           0       -4.663976   -6.905168    1.583848
    133          8           0       -7.773700    6.861909   -0.526008
    134          1           0       -8.841061    6.180055   -2.167444
 ---------------------------------------------------------------------

 SCF Done:  E(RCAM-B3LYP) =  -3043.48300451     A.U. after   15 cycles

 Excitation energies and oscillator strengths:

 Excited State   1:      Singlet-A      2.1755 eV  569.92 nm  f=0.0848  <S**2>=0.000
     243 -> 245        0.49777
     243 -> 246       -0.20809
     244 -> 245       -0.33574
     244 -> 246       -0.28655
 This state for optimization and/or second-order correction.
 Total Energy, E(TD-HF/TD-KS) =  -3043.40305806
 Copying the excited state density for this state as the 1-particle RhoCI density.

 The electronic state is 1-A.
 Alpha  occ. eigenvalues --  -46.81517 -19.23049 -19.21524 -19.18689 -19.18308
 Alpha  occ. eigenvalues --  -19.17088 -19.16664 -19.16358 -14.37912 -14.37558
 Alpha  occ. eigenvalues --  -14.37335 -14.35812 -10.35262 -10.34442 -10.31718
 Alpha  occ. eigenvalues --  -10.31443 -10.31221 -10.28409 -10.28020 -10.27972
 Alpha  occ. eigenvalues --  -10.27414 -10.27359 -10.27218 -10.27092 -10.26404
 Alpha  occ. eigenvalues --  -10.26070 -10.25656 -10.25341 -10.25085 -10.25032
 Alpha  occ. eigenvalues --  -10.24801 -10.24614 -10.24518 -10.24395 -10.24204
 Alpha  occ. eigenvalues --  -10.24133 -10.23819 -10.23510 -10.23337 -10.23240
 Alpha  occ. eigenvalues --  -10.23145 -10.23090 -10.22981 -10.22849 -10.22751
 Alpha  occ. eigenvalues --  -10.22750 -10.22581 -10.22283 -10.21754 -10.21686
 Alpha  occ. eigenvalues --  -10.21636 -10.21596 -10.21490 -10.21441 -10.21096
 Alpha  occ. eigenvalues --  -10.21058 -10.20760 -10.20589 -10.20525 -10.20509
 Alpha  occ. eigenvalues --  -10.20444 -10.19643 -10.18922 -10.18741 -10.18703
 Alpha  occ. eigenvalues --  -10.18317  -3.10040  -1.84985  -1.84527  -1.84431
 Alpha  occ. eigenvalues --   -1.13807  -1.12828  -1.08853  -1.07699  -1.06166
 Alpha  occ. eigenvalues --   -1.03892  -1.03663  -1.00810  -0.99700  -0.99078
 Alpha  occ. eigenvalues --   -0.98014  -0.88321  -0.86863  -0.86111  -0.86055
 Alpha  occ. eigenvalues --   -0.85517  -0.85093  -0.84572  -0.84294  -0.83074
 Alpha  occ. eigenvalues --   -0.82956  -0.82927  -0.81717  -0.81446  -0.80252
 Alpha  occ. eigenvalues --   -0.78583  -0.78174  -0.77766  -0.77525  -0.76855
 Alpha  occ. eigenvalues --   -0.75518  -0.75217  -0.73874  -0.73373  -0.71903
 Alpha  occ. eigenvalues --   -0.71883  -0.71552  -0.70357  -0.70222  -0.70032
 Alpha  occ. eigenvalues --   -0.69630  -0.69025  -0.67084  -0.66865  -0.66479
 Alpha  occ. eigenvalues --   -0.66148  -0.65439  -0.64627  -0.63033  -0.62905
 Alpha  occ. eigenvalues --   -0.61443  -0.61333  -0.61020  -0.59207  -0.58956
 Alpha  occ. eigenvalues --   -0.58839  -0.58609  -0.58258  -0.57296  -0.56853
 Alpha  occ. eigenvalues --   -0.56304  -0.56186  -0.56052  -0.54880  -0.54546
 Alpha  occ. eigenvalues --   -0.54186  -0.53374  -0.52722  -0.52449  -0.51901
 Alpha  occ. eigenvalues --   -0.51804  -0.51500  -0.51271  -0.50898  -0.50630
 Alpha  occ. eigenvalues --   -0.50351  -0.50256  -0.49594  -0.49065  -0.48864
 Alpha  occ. eigenvalues --   -0.48613  -0.48522  -0.48500  -0.48136  -0.47911
 Alpha  occ. eigenvalues --   -0.47781  -0.47637  -0.47451  -0.47331  -0.46981
 Alpha  occ. eigenvalues --   -0.46836  -0.46685  -0.46608  -0.46426  -0.46146
 Alpha  occ. eigenvalues --   -0.45664  -0.45583  -0.45454  -0.45325  -0.45052
 Alpha  occ. eigenvalues --   -0.44749  -0.44200  -0.44064  -0.43910  -0.43746
 Alpha  occ. eigenvalues --   -0.43642  -0.43580  -0.43336  -0.43185  -0.42933
 Alpha  occ. eigenvalues --   -0.42740  -0.42584  -0.42463  -0.42178  -0.42155
 Alpha  occ. eigenvalues --   -0.41790  -0.41622  -0.41445  -0.41411  -0.41105
 Alpha  occ. eigenvalues --   -0.40889  -0.40862  -0.40642  -0.40463  -0.40454
 Alpha  occ. eigenvalues --   -0.40294  -0.40061  -0.39858  -0.39228  -0.39030
 Alpha  occ. eigenvalues --   -0.38927  -0.38902  -0.38600  -0.38403  -0.38166
 Alpha  occ. eigenvalues --   -0.37685  -0.37555  -0.37447  -0.37327  -0.37281
 Alpha  occ. eigenvalues --   -0.36852  -0.36605  -0.36344  -0.36159  -0.35353
 Alpha  occ. eigenvalues --   -0.35112  -0.34849  -0.34684  -0.34596  -0.34447
 Alpha  occ. eigenvalues --   -0.34404  -0.34089  -0.33626  -0.33595  -0.33017
 Alpha  occ. eigenvalues --   -0.32647  -0.32304  -0.31543  -0.31376  -0.31209
 Alpha  occ. eigenvalues --   -0.31082  -0.30659  -0.30253  -0.29922  -0.29588
 Alpha  occ. eigenvalues --   -0.28759  -0.28265  -0.28111  -0.28072  -0.27952
 Alpha  occ. eigenvalues --   -0.27678  -0.27178  -0.23054  -0.22783
 Alpha virt. eigenvalues --   -0.08748  -0.07062  -0.02170  -0.00613   0.00742
 Alpha virt. eigenvalues --    0.03223   0.03424   0.03818   0.04030   0.04285
 Alpha virt. eigenvalues --    0.05546   0.05772   0.08353   0.08739   0.09802

 Mulliken charges:
               1
     1  Mg   0.827406
     2  C    0.039444
     3  C   -0.148688
     4  C   -0.140470
     5  C   -0.124211
     6  N   -0.659363
     7  C    0.330074
     8  C   -0.168234
     9  C   -0.155531
    10  C    0.324053
    11  C   -0.308064
    12  C   -0.149363
    13  C   -0.268668
    14  C    0.608087
    15  O   -0.477979
    16  O   -0.461590
    17  N   -0.711203
    18  C    0.328510
    19  C    0.069445
    20  C   -0.030675
    21  C    0.335173
    22  C   -0.384309
    23  C    0.247495
    24  O   -0.409590
    25  N   -0.724463
    26  C    0.347631
    27  C   -0.122596
    28  C    0.051591
    29  C    0.260151
    30  C    0.277733
    31  C   -0.259007
    32  C   -0.300532
    33  N   -0.709671
    34  C    0.337011
    35  C    0.033451
    36  C    0.037878
    37  C    0.215678
    38  C   -0.408258
    39  C    0.332530
    40  O   -0.463671
    41  C   -0.284092
    42  C    0.620722
    43  O   -0.476271
    44  O   -0.436990
    45  C   -0.080804
    46  C   -0.002066
    47  C   -0.125851
    48  C    0.167315
    49  C   -0.393591
    50  C   -0.214072
    51  C   -0.183431
    52  C   -0.158353
    53  C   -0.060716
    54  C   -0.321884
    55  C   -0.143692
    56  C   -0.158455
    57  C   -0.168895
    58  C   -0.048918
    59  C   -0.307187
    60  C   -0.180587
    61  C   -0.170100
    62  C   -0.176456
    63  C   -0.074053
    64  C   -0.274420
    65  C   -0.319180
    66  H    0.057242
    67  H    0.108870
    68  H    0.073288
    69  H    0.119982
    70  H    0.106283
    71  H    0.106930
    72  H    0.097331
    73  H    0.136686
    74  H    0.123380
    75  H    0.115042
    76  H    0.137453
    77  H    0.113468
    78  H    0.131635
    79  H    0.160269
    80  H    0.113716
    81  H    0.063721
    82  H    0.111276
    83  H    0.110665
    84  H    0.105223
    85  H    0.131898
    86  H    0.101326
    87  H    0.132521
    88  H    0.146496
    89  H    0.126689
    90  H    0.179480
    91  H    0.104196
    92  H    0.125390
    93  H    0.085250
    94  H    0.123880
    95  H    0.104325
    96  H    0.132092
    97  H    0.112361
    98  H    0.071579
    99  H    0.064391
   100  H    0.103850
   101  H    0.083185
   102  H    0.089669
   103  H    0.077395
   104  H    0.084726
   105  H    0.108070
   106  H    0.094162
   107  H    0.085897
   108  H    0.083422
   109  H    0.099420
   110  H    0.066756
   111  H    0.095680
   112  H    0.063226
   113  H    0.050492
   114  H    0.084853
   115  H    0.091530
   116  H    0.121308
   117  H    0.095972
   118  H    0.093018
   119  H    0.106794
   120  H    0.093185
   121  H    0.086776
   122  H    0.098484
   123  H    0.068551
   124  H    0.089756
   125  H    0.105715
   126  H    0.079414
   127  H    0.102621
   128  H    0.090864
   129  H    0.098046
   130  H    0.113906
   131  H    0.112282
   132  H    0.134312
   133  O   -0.397706
   134  H    0.064855
 Sum of Mulliken charges =   0.00000

 Dipole moment (field-independent basis, Debye):
    X=              2.1661    Y=             -2.4996    Z=             -0.8571  Tot=              3.4168
 Quadrupole moment (field-independent basis, Debye-Ang):
   XX=           -362.4480   YY=           -442.0012   ZZ=           -390.8699
   XY=             -0.4199   XZ=             30.5084   YZ=            -33.9959

 Normal termination of Gaussian 09 at Sat Oct  5 01:58:59 2019.
