 Gaussian 09, Revision D.01,
 Gaussian 09:  ES64L-G09RevD.01 24-Apr-2013

 ----------------------------------------------------------------------
 # td=(NStates=1) iop(3/107=0140000000,3/108=0140000000) iop(3/107=0140
 000000,3/108=0140000000) CAM-B3LYP/6-31G(d,p)
 ----------------------------------------------------------------------

 --
 TD
 --
 Symbolic Z-matrix:
 Charge =  0 Multiplicity = 1

                         Standard orientation:
 ---------------------------------------------------------------------
 Center     Atomic      Atomic             Coordinates (Angstroms)
 Number     Number       Type             X           Y           Z
 ---------------------------------------------------------------------
      1         12           0       -5.636207    1.269042    0.226746
      2          6           0       -5.049431   -2.124583   -0.342012
      3          6           0       -3.542568    1.196310    2.870487
      4          6           0       -6.221969    4.661318    0.581123
      5          6           0       -7.929499    1.175550   -2.403101
      6          7           0       -4.452706   -0.305444    1.066166
      7          6           0       -4.261427   -1.614964    0.562634
      8          6           0       -3.230950   -2.226474    1.481478
      9          6           0       -3.063223   -1.366976    2.626831
     10          6           0       -3.707072   -0.044211    2.238745
     11          6           0       -3.615461   -1.868213    3.982004
     12          6           0       -1.982497   -2.591435    0.742502
     13          6           0       -0.970801   -3.528459    1.567100
     14          6           0        0.269508   -3.735126    0.714681
     15          8           0        0.458467   -3.364328   -0.431851
     16          8           0        1.018248   -4.646386    1.319688
     17          7           0       -4.944328    2.706069    1.444153
     18          6           0       -4.141196    2.379797    2.618716
     19          6           0       -4.028559    3.597755    3.369924
     20          6           0       -4.717328    4.620931    2.638645
     21          6           0       -5.341885    4.011400    1.470087
     22          6           0       -3.048505    3.753385    4.523258
     23          6           0       -4.707176    6.041155    2.974432
     24          8           0       -4.023937    6.584076    3.856437
     25          7           0       -6.868907    2.692449   -0.737113
     26          6           0       -6.897372    4.001784   -0.426972
     27          6           0       -7.808693    4.639208   -1.391013
     28          6           0       -8.409579    3.650572   -2.177056
     29          6           0       -7.730317    2.370705   -1.746816
     30          6           0       -8.180772    6.004149   -1.377313
     31          6           0       -9.294425    3.812045   -3.409964
     32          6           0       -8.520083    3.870828   -4.687904
     33          7           0       -6.326937   -0.106140   -1.154731
     34          6           0       -7.339468   -0.033675   -2.137480
     35          6           0       -7.502637   -1.327847   -2.738294
     36          6           0       -6.760287   -2.219894   -2.060341
     37          6           0       -5.966775   -1.466644   -1.129918
     38          6           0       -8.458026   -1.750985   -3.790672
     39          6           0       -6.221411   -3.600757   -2.046218
     40          8           0       -6.548836   -4.579713   -2.652345
     41          6           0       -5.111910   -3.552418   -0.848497
     42          6           0       -5.479462   -4.629199    0.167788
     43          8           0       -5.807577   -4.362623    1.289242
     44          8           0       -5.165957   -5.889660   -0.335551
     45          6           0       -5.659285   -7.031180    0.598692
     46          6           0        2.335841   -5.061465    0.716834
     47          6           0        3.405485   -4.015021    1.007667
     48          6           0        4.105265   -3.230074    0.169743
     49          6           0        3.614794   -3.186028   -1.276560
     50          6           0        5.219401   -2.229985    0.555001
     51          6           0        6.548297   -2.593519   -0.062385
     52          6           0        7.683462   -1.807613    0.427368
     53          6           0        9.058245   -1.965680   -0.167302
     54          6           0        9.679665   -3.301599    0.131970
     55          6           0       10.006663   -0.891144    0.347863
     56          6           0       11.427765   -0.828324   -0.296525
     57          6           0       12.207484    0.448771    0.145772
     58          6           0       13.572681    0.532075   -0.580735
     59          6           0       14.459284   -0.793887   -0.416267
     60          6           0       14.314437    1.791226   -0.170378
     61          6           0       15.577716    2.102856   -0.900060
     62          6           0       16.139706    3.397906   -0.484935
     63          6           0       17.472727    3.714295   -1.232319
     64          6           0       17.310711    3.741195   -2.830731
     65          6           0       18.182846    5.034680   -0.733504
     66          1           0       -2.807394    1.043203    3.741389
     67          1           0       -6.352481    5.587113    0.598444
     68          1           0       -8.532911    1.139370   -3.318094
     69          1           0       -3.728227   -3.161054    1.752242
     70          1           0       -1.901884   -1.268179    2.827060
     71          1           0       -3.105827   -2.773683    4.107611
     72          1           0       -3.775868   -1.080188    4.744297
     73          1           0       -4.553103   -2.374489    3.703890
     74          1           0       -2.328670   -3.032985   -0.217536
     75          1           0       -1.434478   -1.557854    0.711803
     76          1           0       -0.487575   -3.118244    2.510877
     77          1           0       -1.402827   -4.413106    1.566571
     78          1           0       -2.020209    3.635264    4.264208
     79          1           0       -3.141185    4.730464    4.882202
     80          1           0       -3.324982    2.815039    5.187501
     81          1           0       -5.579432    6.627307    2.447051
     82          1           0      -10.112964    3.003998   -3.408238
     83          1           0       -9.988279    4.609893   -3.212148
     84          1           0       -9.278843    3.660395   -5.499654
     85          1           0       -8.008737    4.747183   -4.657215
     86          1           0       -7.671831    3.069123   -4.822121
     87          1           0       -8.221760   -1.255185   -4.740119
     88          1           0       -8.455025   -2.804830   -3.851924
     89          1           0       -9.506802   -1.715525   -3.439204
     90          1           0       -4.285974   -3.665323   -1.364305
     91          1           0        2.566055   -6.010376    1.202303
     92          1           0        2.196949   -4.981616   -0.239935
     93          1           0        3.739593   -3.846129    2.157399
     94          1           0        2.776110   -3.730613   -1.501393
     95          1           0        3.721157   -2.215198   -1.813590
     96          1           0        4.532577   -3.813681   -1.777472
     97          1           0        5.101161   -1.176199    0.263112
     98          1           0        5.481632   -2.214644    1.654788
     99          1           0        6.664079   -3.744516   -0.071254
    100          1           0        6.407684   -2.654816   -1.179157
    101          1           0        7.471094   -0.791994    0.403974
    102          1           0        7.795732   -1.967472    1.532727
    103          1           0        9.164904   -1.600123   -1.163869
    104          1           0        9.036981   -4.122944   -0.314631
    105          1           0       10.690091   -3.310313   -0.248552
    106          1           0        9.626011   -3.234331    1.377477
    107          1           0        9.504089    0.137804   -0.139444
    108          1           0       10.102761   -0.889869    1.566280
    109          1           0       12.105920   -1.803116   -0.028600
    110          1           0       11.190845   -0.932524   -1.370364
    111          1           0       11.588222    1.460663   -0.092295
    112          1           0       12.328858    0.450742    1.287085
    113          1           0       13.437577    0.798581   -1.576975
    114          1           0       14.707352   -0.865938    0.713409
    115          1           0       13.914960   -1.656855   -0.957771
    116          1           0       15.495655   -0.663738   -0.849790
    117          1           0       13.553323    2.366818   -0.465397
    118          1           0       14.322848    1.781873    1.025859
    119          1           0       16.301777    1.262767   -0.715975
    120          1           0       15.600155    2.104243   -1.999890
    121          1           0       15.279381    4.031459   -0.616983
    122          1           0       16.427046    3.341896    0.602136
    123          1           0       18.107155    2.899225   -0.928270
    124          1           0       16.643192    4.443352   -3.269744
    125          1           0       18.197845    4.292403   -3.357551
    126          1           0       17.088847    2.735771   -3.296960
    127          1           0       18.312829    4.975629    0.335087
    128          1           0       19.083828    5.217064   -1.086821
    129          1           0       17.501972    5.812020   -0.774711
    130          1           0       -5.391858   -7.872699    0.017106
    131          1           0       -6.628599   -6.925395    0.838107
    132          1           0       -5.208189   -6.748192    1.606708
    133          8           0       -7.664048    6.886462   -0.609650
    134          1           0       -9.030161    6.458507   -1.995250
 ---------------------------------------------------------------------

 SCF Done:  E(RCAM-B3LYP) =  -3043.48864765     A.U. after   16 cycles

 Excitation energies and oscillator strengths:

 Excited State   1:      Singlet-A      1.9748 eV  627.82 nm  f=0.2138  <S**2>=0.000
     243 -> 246       -0.23439
     244 -> 245        0.65977
 This state for optimization and/or second-order correction.
 Total Energy, E(TD-HF/TD-KS) =  -3043.41607402
 Copying the excited state density for this state as the 1-particle RhoCI density.

 The electronic state is 1-A.
 Alpha  occ. eigenvalues --  -46.80863 -19.22563 -19.21744 -19.18538 -19.18361
 Alpha  occ. eigenvalues --  -19.16611 -19.16381 -19.15912 -14.38667 -14.36969
 Alpha  occ. eigenvalues --  -14.36535 -14.36395 -10.35817 -10.34298 -10.32390
 Alpha  occ. eigenvalues --  -10.30123 -10.29919 -10.28127 -10.27774 -10.27582
 Alpha  occ. eigenvalues --  -10.26772 -10.26698 -10.26630 -10.26556 -10.26227
 Alpha  occ. eigenvalues --  -10.25741 -10.25582 -10.25350 -10.24597 -10.24435
 Alpha  occ. eigenvalues --  -10.24228 -10.24210 -10.24189 -10.24125 -10.24075
 Alpha  occ. eigenvalues --  -10.24068 -10.23964 -10.23563 -10.23163 -10.23138
 Alpha  occ. eigenvalues --  -10.22990 -10.22972 -10.22964 -10.22725 -10.22720
 Alpha  occ. eigenvalues --  -10.22620 -10.22597 -10.22583 -10.22372 -10.22134
 Alpha  occ. eigenvalues --  -10.21991 -10.21860 -10.21766 -10.21755 -10.21710
 Alpha  occ. eigenvalues --  -10.21643 -10.21585 -10.21578 -10.21065 -10.20950
 Alpha  occ. eigenvalues --  -10.20947 -10.20541 -10.20123 -10.20092 -10.19843
 Alpha  occ. eigenvalues --  -10.18192  -3.09364  -1.84321  -1.83822  -1.83769
 Alpha  occ. eigenvalues --   -1.12822  -1.12347  -1.08908  -1.04764  -1.04543
 Alpha  occ. eigenvalues --   -1.03579  -1.02970  -0.99807  -0.98888  -0.97949
 Alpha  occ. eigenvalues --   -0.97130  -0.89307  -0.86933  -0.86321  -0.85844
 Alpha  occ. eigenvalues --   -0.85562  -0.85111  -0.84806  -0.84391  -0.83399
 Alpha  occ. eigenvalues --   -0.82838  -0.82209  -0.81819  -0.80976  -0.80232
 Alpha  occ. eigenvalues --   -0.79478  -0.78715  -0.78267  -0.77465  -0.76974
 Alpha  occ. eigenvalues --   -0.75486  -0.75131  -0.74623  -0.73836  -0.72467
 Alpha  occ. eigenvalues --   -0.71455  -0.71314  -0.70209  -0.70157  -0.70007
 Alpha  occ. eigenvalues --   -0.69625  -0.69010  -0.67750  -0.66993  -0.66241
 Alpha  occ. eigenvalues --   -0.65405  -0.65094  -0.64110  -0.63045  -0.62830
 Alpha  occ. eigenvalues --   -0.61646  -0.61221  -0.60649  -0.59486  -0.59390
 Alpha  occ. eigenvalues --   -0.59293  -0.57942  -0.57906  -0.57017  -0.56696
 Alpha  occ. eigenvalues --   -0.56459  -0.56022  -0.55682  -0.55559  -0.54743
 Alpha  occ. eigenvalues --   -0.53966  -0.53945  -0.52960  -0.52429  -0.52316
 Alpha  occ. eigenvalues --   -0.51932  -0.51198  -0.51094  -0.50800  -0.50541
 Alpha  occ. eigenvalues --   -0.50197  -0.49979  -0.49906  -0.49141  -0.49059
 Alpha  occ. eigenvalues --   -0.49002  -0.48848  -0.48577  -0.48247  -0.48114
 Alpha  occ. eigenvalues --   -0.47853  -0.47747  -0.47509  -0.47323  -0.47053
 Alpha  occ. eigenvalues --   -0.46896  -0.46714  -0.46554  -0.46342  -0.46319
 Alpha  occ. eigenvalues --   -0.46151  -0.45768  -0.45697  -0.45176  -0.45050
 Alpha  occ. eigenvalues --   -0.44759  -0.44654  -0.44470  -0.44142  -0.43857
 Alpha  occ. eigenvalues --   -0.43528  -0.43412  -0.43259  -0.43194  -0.42806
 Alpha  occ. eigenvalues --   -0.42710  -0.42434  -0.42340  -0.42123  -0.41952
 Alpha  occ. eigenvalues --   -0.41875  -0.41310  -0.41075  -0.40925  -0.40608
 Alpha  occ. eigenvalues --   -0.40565  -0.40424  -0.40088  -0.40028  -0.39989
 Alpha  occ. eigenvalues --   -0.39664  -0.39620  -0.39318  -0.39175  -0.39131
 Alpha  occ. eigenvalues --   -0.39119  -0.38903  -0.38880  -0.38502  -0.38293
 Alpha  occ. eigenvalues --   -0.38064  -0.37917  -0.37718  -0.37439  -0.37168
 Alpha  occ. eigenvalues --   -0.36781  -0.36464  -0.36259  -0.35777  -0.35348
 Alpha  occ. eigenvalues --   -0.35288  -0.35118  -0.35049  -0.34470  -0.34416
 Alpha  occ. eigenvalues --   -0.33902  -0.33551  -0.33521  -0.33131  -0.33128
 Alpha  occ. eigenvalues --   -0.32858  -0.32606  -0.32474  -0.32349  -0.32050
 Alpha  occ. eigenvalues --   -0.31595  -0.31272  -0.31042  -0.30314  -0.29907
 Alpha  occ. eigenvalues --   -0.28634  -0.28443  -0.28115  -0.27224  -0.27089
 Alpha  occ. eigenvalues --   -0.27045  -0.26951  -0.23460  -0.21540
 Alpha virt. eigenvalues --   -0.08930  -0.06585  -0.02041  -0.00722   0.00487
 Alpha virt. eigenvalues --    0.02904   0.03204   0.04135   0.04269   0.04687
 Alpha virt. eigenvalues --    0.04870   0.06118   0.08228   0.08925   0.09263

 Mulliken charges:
               1
     1  Mg   0.809374
     2  C    0.137606
     3  C   -0.189601
     4  C   -0.062739
     5  C   -0.166406
     6  N   -0.649291
     7  C    0.266105
     8  C   -0.150937
     9  C   -0.145826
    10  C    0.334815
    11  C   -0.317777
    12  C   -0.168851
    13  C   -0.252685
    14  C    0.582739
    15  O   -0.479028
    16  O   -0.473906
    17  N   -0.749420
    18  C    0.327526
    19  C    0.022943
    20  C   -0.047195
    21  C    0.350798
    22  C   -0.357049
    23  C    0.230466
    24  O   -0.431645
    25  N   -0.711793
    26  C    0.323274
    27  C   -0.003085
    28  C    0.003864
    29  C    0.309463
    30  C    0.198058
    31  C   -0.249427
    32  C   -0.293470
    33  N   -0.717272
    34  C    0.303597
    35  C   -0.004232
    36  C    0.063021
    37  C    0.234590
    38  C   -0.389735
    39  C    0.345832
    40  O   -0.426942
    41  C   -0.332743
    42  C    0.634552
    43  O   -0.454775
    44  O   -0.481715
    45  C   -0.102150
    46  C    0.039554
    47  C   -0.175337
    48  C    0.159884
    49  C   -0.357397
    50  C   -0.222417
    51  C   -0.181693
    52  C   -0.143785
    53  C   -0.062128
    54  C   -0.273016
    55  C   -0.165759
    56  C   -0.174295
    57  C   -0.161521
    58  C   -0.060845
    59  C   -0.313380
    60  C   -0.158467
    61  C   -0.181958
    62  C   -0.155870
    63  C   -0.050799
    64  C   -0.331762
    65  C   -0.324292
    66  H    0.096344
    67  H    0.075817
    68  H    0.097554
    69  H    0.115029
    70  H    0.085886
    71  H    0.119640
    72  H    0.119206
    73  H    0.128145
    74  H    0.114498
    75  H    0.104229
    76  H    0.136488
    77  H    0.149240
    78  H    0.137761
    79  H    0.159453
    80  H    0.095177
    81  H    0.076239
    82  H    0.099717
    83  H    0.120021
    84  H    0.111888
    85  H    0.134504
    86  H    0.103727
    87  H    0.125385
    88  H    0.148855
    89  H    0.127994
    90  H    0.165218
    91  H    0.134247
    92  H    0.120757
    93  H    0.060543
    94  H    0.148495
    95  H    0.123501
    96  H    0.077262
    97  H    0.112602
    98  H    0.095231
    99  H    0.081910
   100  H    0.087747
   101  H    0.094493
   102  H    0.081780
   103  H    0.084134
   104  H    0.096534
   105  H    0.107278
   106  H    0.069699
   107  H    0.055549
   108  H    0.059098
   109  H    0.084616
   110  H    0.092681
   111  H    0.071058
   112  H    0.090437
   113  H    0.091799
   114  H    0.093229
   115  H    0.098760
   116  H    0.097269
   117  H    0.098053
   118  H    0.064350
   119  H    0.079014
   120  H    0.092476
   121  H    0.090813
   122  H    0.082702
   123  H    0.094319
   124  H    0.112094
   125  H    0.080940
   126  H    0.101307
   127  H    0.093282
   128  H    0.111946
   129  H    0.111634
   130  H    0.145335
   131  H    0.153047
   132  H    0.134846
   133  O   -0.452091
   134  H    0.073563
 Sum of Mulliken charges =   0.00000

 Dipole moment (field-independent basis, Debye):
    X=              1.3145    Y=             -6.7554    Z=             -1.8747  Tot=              7.1329
 Quadrupole moment (field-independent basis, Debye-Ang):
   XX=           -362.7979   YY=           -439.7011   ZZ=           -392.6347
   XY=             28.0424   XZ=             20.0125   YZ=            -37.3533

 Normal termination of Gaussian 09 at Fri Oct  4 07:02:36 2019.
