 Gaussian 09, Revision D.01,
 Gaussian 09:  ES64L-G09RevD.01 24-Apr-2013

 ----------------------------------------------------------------------
 # td=(NStates=1) iop(3/107=0140000000,3/108=0140000000) iop(3/107=0140
 000000,3/108=0140000000) CAM-B3LYP/6-31G(d,p)
 ----------------------------------------------------------------------

 --
 TD
 --
 Symbolic Z-matrix:
 Charge =  0 Multiplicity = 1

                         Standard orientation:
 ---------------------------------------------------------------------
 Center     Atomic      Atomic             Coordinates (Angstroms)
 Number     Number       Type             X           Y           Z
 ---------------------------------------------------------------------
      1         12           0       -5.713390    1.218284    0.210326
      2          6           0       -5.136152   -2.047080   -0.358271
      3          6           0       -3.311135    1.094584    2.716392
      4          6           0       -6.150739    4.583870    0.694619
      5          6           0       -8.014053    1.268059   -2.338355
      6          7           0       -4.358845   -0.291465    1.042172
      7          6           0       -4.237559   -1.602209    0.596463
      8          6           0       -3.248320   -2.298646    1.519530
      9          6           0       -2.893850   -1.340178    2.652700
     10          6           0       -3.470819   -0.082467    2.127764
     11          6           0       -3.298753   -1.858137    4.009375
     12          6           0       -1.995946   -2.753283    0.659668
     13          6           0       -1.003718   -3.639130    1.465630
     14          6           0        0.253982   -3.891818    0.541069
     15          8           0        0.405122   -3.454401   -0.572423
     16          8           0        1.088966   -4.719647    1.205613
     17          7           0       -4.955292    2.512897    1.516834
     18          6           0       -3.969428    2.385610    2.462165
     19          6           0       -3.709178    3.728585    3.172824
     20          6           0       -4.481689    4.580277    2.497503
     21          6           0       -5.293341    3.859015    1.540897
     22          6           0       -2.718278    3.939365    4.274057
     23          6           0       -4.502345    5.979081    2.676304
     24          8           0       -4.033084    6.655479    3.674952
     25          7           0       -6.980172    2.678543   -0.635627
     26          6           0       -7.047227    4.029769   -0.238128
     27          6           0       -8.004598    4.615069   -1.155221
     28          6           0       -8.467993    3.738094   -2.050584
     29          6           0       -7.724540    2.471303   -1.730808
     30          6           0       -8.302155    6.069349   -1.141891
     31          6           0       -9.471750    3.882157   -3.106180
     32          6           0       -8.772479    3.926721   -4.535454
     33          7           0       -6.445975   -0.122833   -1.111641
     34          6           0       -7.432433    0.054914   -2.026994
     35          6           0       -7.659498   -1.323735   -2.658344
     36          6           0       -6.789767   -2.226221   -1.964174
     37          6           0       -6.074802   -1.450359   -1.047949
     38          6           0       -8.528469   -1.695729   -3.905930
     39          6           0       -6.374485   -3.630181   -1.908862
     40          8           0       -6.752615   -4.541118   -2.491546
     41          6           0       -5.140973   -3.551164   -0.821709
     42          6           0       -5.240091   -4.581115    0.194946
     43          8           0       -5.792546   -4.456683    1.320070
     44          8           0       -4.993799   -5.789761   -0.326900
     45          6           0       -5.454012   -6.949992    0.474347
     46          6           0        2.309550   -5.125474    0.463724
     47          6           0        3.533278   -4.100913    0.902826
     48          6           0        4.131665   -3.291464    0.020132
     49          6           0        3.761337   -3.175494   -1.422937
     50          6           0        5.155576   -2.406495    0.691685
     51          6           0        6.614740   -2.754124    0.129312
     52          6           0        7.622502   -1.685352    0.553291
     53          6           0        8.985443   -1.961331   -0.080364
     54          6           0        9.573136   -3.350181    0.195173
     55          6           0       10.045235   -0.900816    0.417924
     56          6           0       11.373556   -0.839183   -0.284590
     57          6           0       12.209278    0.342520    0.093101
     58          6           0       13.565946    0.459153   -0.572018
     59          6           0       14.576565   -0.751422   -0.271772
     60          6           0       14.232926    1.800472   -0.211643
     61          6           0       15.553595    2.151433   -0.969138
     62          6           0       16.055452    3.445248   -0.695304
     63          6           0       17.327166    3.858880   -1.346155
     64          6           0       17.266088    4.010508   -2.869881
     65          6           0       17.866958    5.158944   -0.745935
     66          1           0       -2.564136    1.285141    3.549733
     67          1           0       -6.322456    5.622779    0.841155
     68          1           0       -8.798654    1.272768   -3.173780
     69          1           0       -3.835298   -3.118354    1.939891
     70          1           0       -1.697676   -1.244081    2.682402
     71          1           0       -2.605034   -2.772121    4.215902
     72          1           0       -3.268977   -1.161927    4.876297
     73          1           0       -4.296151   -2.163367    3.786899
     74          1           0       -2.137744   -3.319148   -0.162734
     75          1           0       -1.564723   -1.870236    0.277392
     76          1           0       -0.646714   -3.166096    2.507534
     77          1           0       -1.533061   -4.684938    1.681640
     78          1           0       -1.635740    3.603732    4.045727
     79          1           0       -2.856098    5.103965    4.230778
     80          1           0       -2.741577    3.316726    5.203428
     81          1           0       -4.893578    6.723359    1.926285
     82          1           0      -10.133053    3.059223   -3.106437
     83          1           0       -9.926912    4.633074   -2.951863
     84          1           0       -9.383386    4.184908   -5.467420
     85          1           0       -8.152857    4.763748   -4.656396
     86          1           0       -8.064228    3.007323   -4.646526
     87          1           0       -8.468447   -1.120972   -4.843725
     88          1           0       -8.288739   -2.804144   -4.047461
     89          1           0       -9.688594   -1.848673   -3.406738
     90          1           0       -4.156568   -3.667374   -1.241065
     91          1           0        2.321853   -6.199549    0.930807
     92          1           0        2.240772   -4.928608   -0.545285
     93          1           0        3.889739   -3.875969    1.889258
     94          1           0        2.749167   -3.582773   -1.426174
     95          1           0        3.656587   -2.032935   -1.635526
     96          1           0        4.486809   -3.846154   -2.352412
     97          1           0        4.925541   -1.345448    0.346738
     98          1           0        5.336520   -2.524063    1.756808
     99          1           0        6.629750   -3.691465    0.529019
    100          1           0        6.585553   -2.796934   -0.973911
    101          1           0        7.398228   -0.744674    0.376044
    102          1           0        7.676298   -1.693830    1.679467
    103          1           0        8.803620   -1.812139   -1.242016
    104          1           0        8.836305   -4.173812    0.126918
    105          1           0       10.541175   -3.533002   -0.275666
    106          1           0        9.647997   -3.484338    1.255127
    107          1           0        9.442575    0.065744    0.078663
    108          1           0       10.091254   -1.094901    1.443215
    109          1           0       11.971067   -1.678999   -0.176295
    110          1           0       11.051638   -0.526763   -1.373562
    111          1           0       11.771006    1.240800   -0.069378
    112          1           0       12.439201    0.211945    1.375610
    113          1           0       13.158867    0.292816   -1.560783
    114          1           0       14.972804   -0.751625    0.889890
    115          1           0       13.989837   -1.692476   -0.369216
    116          1           0       15.531695   -0.714510   -0.817365
    117          1           0       13.660664    2.633591   -0.516877
    118          1           0       14.448937    1.608355    0.851309
    119          1           0       16.190189    1.494131   -0.567771
    120          1           0       15.371944    2.025432   -1.986074
    121          1           0       15.370009    4.303878   -0.843487
    122          1           0       16.273506    3.510276    0.470743
    123          1           0       18.084127    3.117773   -1.087248
    124          1           0       16.590270    4.585663   -3.279290
    125          1           0       18.205361    4.289761   -3.186947
    126          1           0       16.912349    3.028732   -3.502910
    127          1           0       18.110587    5.137106    0.296034
    128          1           0       18.681601    5.488578   -1.188026
    129          1           0       16.901325    5.876192   -0.674287
    130          1           0       -5.458847   -7.757511   -0.233374
    131          1           0       -6.458033   -6.775758    0.713502
    132          1           0       -4.823178   -6.777517    1.273779
    133          8           0       -7.710201    6.794782   -0.374005
    134          1           0       -9.058754    6.505325   -1.861117
 ---------------------------------------------------------------------

 SCF Done:  E(RCAM-B3LYP) =  -3043.41835249     A.U. after   16 cycles

 Excitation energies and oscillator strengths:

 Excited State   1:      Singlet-A      1.9716 eV  628.84 nm  f=0.2212  <S**2>=0.000
     243 -> 246        0.24914
     244 -> 245        0.65584
 This state for optimization and/or second-order correction.
 Total Energy, E(TD-HF/TD-KS) =  -3043.34589584
 Copying the excited state density for this state as the 1-particle RhoCI density.

 The electronic state is 1-A.
 Alpha  occ. eigenvalues --  -46.81169 -19.22600 -19.22135 -19.18990 -19.18137
 Alpha  occ. eigenvalues --  -19.17501 -19.16396 -19.16173 -14.38445 -14.37677
 Alpha  occ. eigenvalues --  -14.36635 -14.36096 -10.35477 -10.34502 -10.32477
 Alpha  occ. eigenvalues --  -10.30827 -10.30023 -10.29204 -10.27461 -10.27164
 Alpha  occ. eigenvalues --  -10.26883 -10.26724 -10.26531 -10.26384 -10.26345
 Alpha  occ. eigenvalues --  -10.25933 -10.25858 -10.25816 -10.25274 -10.25038
 Alpha  occ. eigenvalues --  -10.24845 -10.24469 -10.24386 -10.24241 -10.24072
 Alpha  occ. eigenvalues --  -10.23919 -10.23750 -10.23208 -10.23199 -10.23082
 Alpha  occ. eigenvalues --  -10.22916 -10.22840 -10.22661 -10.22660 -10.22606
 Alpha  occ. eigenvalues --  -10.22535 -10.22455 -10.22241 -10.22183 -10.22001
 Alpha  occ. eigenvalues --  -10.21989 -10.21852 -10.21722 -10.21472 -10.21019
 Alpha  occ. eigenvalues --  -10.20998 -10.20983 -10.20957 -10.20653 -10.20280
 Alpha  occ. eigenvalues --  -10.20095 -10.20028 -10.19735 -10.19422 -10.19197
 Alpha  occ. eigenvalues --  -10.18082  -3.09727  -1.84672  -1.84197  -1.84133
 Alpha  occ. eigenvalues --   -1.13267  -1.12890  -1.12203  -1.07762  -1.05483
 Alpha  occ. eigenvalues --   -1.02607  -1.02131  -0.99974  -0.99220  -0.98778
 Alpha  occ. eigenvalues --   -0.97824  -0.89184  -0.86496  -0.86220  -0.85956
 Alpha  occ. eigenvalues --   -0.85333  -0.85122  -0.84705  -0.83903  -0.83737
 Alpha  occ. eigenvalues --   -0.83587  -0.81703  -0.81303  -0.80674  -0.80243
 Alpha  occ. eigenvalues --   -0.79164  -0.78576  -0.77997  -0.76911  -0.76312
 Alpha  occ. eigenvalues --   -0.75341  -0.74646  -0.73593  -0.73042  -0.72071
 Alpha  occ. eigenvalues --   -0.71846  -0.71511  -0.70624  -0.70029  -0.69783
 Alpha  occ. eigenvalues --   -0.69528  -0.68439  -0.68194  -0.67143  -0.66432
 Alpha  occ. eigenvalues --   -0.66274  -0.65120  -0.64716  -0.62893  -0.62570
 Alpha  occ. eigenvalues --   -0.61549  -0.61050  -0.60479  -0.59486  -0.58873
 Alpha  occ. eigenvalues --   -0.58834  -0.58242  -0.58205  -0.57424  -0.56605
 Alpha  occ. eigenvalues --   -0.56147  -0.55560  -0.55238  -0.54830  -0.54471
 Alpha  occ. eigenvalues --   -0.54441  -0.53732  -0.52717  -0.52611  -0.52536
 Alpha  occ. eigenvalues --   -0.52341  -0.52298  -0.51953  -0.51844  -0.51540
 Alpha  occ. eigenvalues --   -0.50848  -0.50392  -0.50148  -0.49917  -0.49787
 Alpha  occ. eigenvalues --   -0.49218  -0.48486  -0.48187  -0.48110  -0.47990
 Alpha  occ. eigenvalues --   -0.47790  -0.47284  -0.47255  -0.47098  -0.46995
 Alpha  occ. eigenvalues --   -0.46856  -0.46575  -0.46442  -0.46083  -0.45915
 Alpha  occ. eigenvalues --   -0.45684  -0.45445  -0.45414  -0.44892  -0.44729
 Alpha  occ. eigenvalues --   -0.44523  -0.44260  -0.44113  -0.43983  -0.43863
 Alpha  occ. eigenvalues --   -0.43611  -0.43353  -0.43141  -0.42943  -0.42711
 Alpha  occ. eigenvalues --   -0.42510  -0.42395  -0.42100  -0.41876  -0.41783
 Alpha  occ. eigenvalues --   -0.41676  -0.41397  -0.41234  -0.40746  -0.40633
 Alpha  occ. eigenvalues --   -0.40530  -0.40377  -0.40231  -0.40116  -0.40053
 Alpha  occ. eigenvalues --   -0.39867  -0.39663  -0.39516  -0.39326  -0.39105
 Alpha  occ. eigenvalues --   -0.39003  -0.38817  -0.38668  -0.38613  -0.38468
 Alpha  occ. eigenvalues --   -0.38081  -0.38011  -0.37981  -0.37664  -0.37228
 Alpha  occ. eigenvalues --   -0.36917  -0.36825  -0.36683  -0.36286  -0.36225
 Alpha  occ. eigenvalues --   -0.36126  -0.35165  -0.35128  -0.34535  -0.34474
 Alpha  occ. eigenvalues --   -0.34268  -0.33829  -0.33657  -0.33382  -0.33034
 Alpha  occ. eigenvalues --   -0.32756  -0.32273  -0.31873  -0.31699  -0.31326
 Alpha  occ. eigenvalues --   -0.31177  -0.31130  -0.30684  -0.30314  -0.29887
 Alpha  occ. eigenvalues --   -0.29033  -0.28674  -0.28278  -0.28273  -0.27732
 Alpha  occ. eigenvalues --   -0.27298  -0.26707  -0.22916  -0.20907
 Alpha virt. eigenvalues --   -0.08191  -0.06001  -0.01903  -0.01119   0.00600
 Alpha virt. eigenvalues --    0.02313   0.02916   0.03573   0.04049   0.04281
 Alpha virt. eigenvalues --    0.04726   0.05661   0.08112   0.08513   0.09149

 Mulliken charges:
               1
     1  Mg   0.824084
     2  C    0.072175
     3  C   -0.194683
     4  C   -0.146701
     5  C   -0.177451
     6  N   -0.626815
     7  C    0.313293
     8  C   -0.187993
     9  C   -0.130885
    10  C    0.361699
    11  C   -0.297846
    12  C   -0.166065
    13  C   -0.272427
    14  C    0.604622
    15  O   -0.460687
    16  O   -0.459617
    17  N   -0.698942
    18  C    0.251720
    19  C    0.062487
    20  C    0.037042
    21  C    0.317041
    22  C   -0.401121
    23  C    0.183502
    24  O   -0.456127
    25  N   -0.692611
    26  C    0.271580
    27  C   -0.059170
    28  C    0.025629
    29  C    0.309192
    30  C    0.248947
    31  C   -0.183152
    32  C   -0.336831
    33  N   -0.760359
    34  C    0.326087
    35  C   -0.031104
    36  C    0.032768
    37  C    0.302617
    38  C   -0.380919
    39  C    0.385038
    40  O   -0.385709
    41  C   -0.330566
    42  C    0.594036
    43  O   -0.514822
    44  O   -0.463352
    45  C   -0.076809
    46  C   -0.009061
    47  C   -0.130067
    48  C    0.148963
    49  C   -0.354607
    50  C   -0.252348
    51  C   -0.178869
    52  C   -0.151407
    53  C   -0.062585
    54  C   -0.320519
    55  C   -0.152689
    56  C   -0.166014
    57  C   -0.132539
    58  C   -0.057321
    59  C   -0.319887
    60  C   -0.172164
    61  C   -0.159457
    62  C   -0.158925
    63  C   -0.051210
    64  C   -0.301705
    65  C   -0.299220
    66  H    0.075878
    67  H    0.133657
    68  H    0.097500
    69  H    0.132450
    70  H    0.089349
    71  H    0.102489
    72  H    0.115709
    73  H    0.134565
    74  H    0.123220
    75  H    0.128677
    76  H    0.117882
    77  H    0.122284
    78  H    0.109459
    79  H    0.164342
    80  H    0.129506
    81  H    0.103707
    82  H    0.122113
    83  H    0.090911
    84  H    0.101355
    85  H    0.124456
    86  H    0.106396
    87  H    0.139040
    88  H    0.147834
    89  H    0.104523
    90  H    0.155766
    91  H    0.122711
    92  H    0.136826
    93  H    0.080972
    94  H    0.145636
    95  H    0.112451
    96  H    0.078235
    97  H    0.086513
    98  H    0.104137
    99  H    0.109978
   100  H    0.096372
   101  H    0.101683
   102  H    0.072653
   103  H    0.058733
   104  H    0.095252
   105  H    0.108680
   106  H    0.098717
   107  H    0.064416
   108  H    0.097100
   109  H    0.101971
   110  H    0.074006
   111  H    0.098584
   112  H    0.017081
   113  H    0.079163
   114  H    0.068959
   115  H    0.099018
   116  H    0.115605
   117  H    0.088619
   118  H    0.095350
   119  H    0.100253
   120  H    0.095797
   121  H    0.074433
   122  H    0.059428
   123  H    0.083076
   124  H    0.117575
   125  H    0.107354
   126  H    0.062342
   127  H    0.102880
   128  H    0.104754
   129  H    0.072510
   130  H    0.137658
   131  H    0.147064
   132  H    0.143210
   133  O   -0.409869
   134  H    0.069885
 Sum of Mulliken charges =   0.00000

 Dipole moment (field-independent basis, Debye):
    X=              1.3281    Y=             -5.5616    Z=             -2.8275  Tot=              6.3789
 Quadrupole moment (field-independent basis, Debye-Ang):
   XX=           -371.1566   YY=           -430.5676   ZZ=           -396.0953
   XY=              8.6843   XZ=             30.6197   YZ=            -39.1727

 Normal termination of Gaussian 09 at Mon Oct  7 08:46:34 2019.
