 Gaussian 09, Revision D.01,
 Gaussian 09:  ES64L-G09RevD.01 24-Apr-2013

 ----------------------------------------------------------------------
 # td=(NStates=1) iop(3/107=0140000000,3/108=0140000000) iop(3/107=0140
 000000,3/108=0140000000) CAM-B3LYP/6-31G(d,p)
 ----------------------------------------------------------------------

 --
 TD
 --
 Symbolic Z-matrix:
 Charge =  0 Multiplicity = 1

                         Standard orientation:
 ---------------------------------------------------------------------
 Center     Atomic      Atomic             Coordinates (Angstroms)
 Number     Number       Type             X           Y           Z
 ---------------------------------------------------------------------
      1         12           0       -5.627974    1.215059    0.172880
      2          6           0       -4.996672   -2.148792   -0.331602
      3          6           0       -3.436534    1.139716    2.842193
      4          6           0       -6.084279    4.488666    0.614024
      5          6           0       -7.956086    1.253398   -2.312936
      6          7           0       -4.442509   -0.261457    1.080193
      7          6           0       -4.276679   -1.564018    0.748949
      8          6           0       -3.244153   -2.304518    1.448478
      9          6           0       -2.856915   -1.262603    2.580919
     10          6           0       -3.607873   -0.030929    2.181298
     11          6           0       -3.583621   -1.751088    3.972319
     12          6           0       -2.007856   -2.622286    0.613413
     13          6           0       -1.082085   -3.592979    1.362177
     14          6           0        0.161023   -3.867401    0.610224
     15          8           0        0.414977   -3.430356   -0.532818
     16          8           0        1.060929   -4.676085    1.212892
     17          7           0       -4.820537    2.593376    1.501763
     18          6           0       -3.982127    2.399157    2.520581
     19          6           0       -3.704178    3.595915    3.208957
     20          6           0       -4.433366    4.602546    2.590859
     21          6           0       -5.153167    3.910861    1.516138
     22          6           0       -2.746858    3.741465    4.286020
     23          6           0       -4.441938    6.042132    3.029285
     24          8           0       -3.857481    6.595910    3.938413
     25          7           0       -6.780603    2.633341   -0.745867
     26          6           0       -6.869173    3.972324   -0.380782
     27          6           0       -7.917497    4.645212   -1.193695
     28          6           0       -8.431310    3.664388   -2.076615
     29          6           0       -7.698080    2.458930   -1.770230
     30          6           0       -8.356158    6.046282   -1.149964
     31          6           0       -9.387645    3.839271   -3.185006
     32          6           0       -8.756191    3.982172   -4.553826
     33          7           0       -6.324148   -0.123639   -1.104182
     34          6           0       -7.372571   -0.011804   -2.111475
     35          6           0       -7.448122   -1.317109   -2.804869
     36          6           0       -6.628005   -2.156267   -2.110937
     37          6           0       -5.946487   -1.409979   -1.099646
     38          6           0       -8.555086   -1.522957   -3.816390
     39          6           0       -6.205234   -3.546567   -2.017464
     40          8           0       -6.613635   -4.456059   -2.685075
     41          6           0       -5.052678   -3.553175   -0.906596
     42          6           0       -5.293599   -4.662624    0.139121
     43          8           0       -5.761340   -4.605907    1.244595
     44          8           0       -5.058059   -5.877281   -0.377755
     45          6           0       -5.542426   -6.940995    0.470811
     46          6           0        2.355567   -5.071130    0.587527
     47          6           0        3.410614   -4.082750    1.041397
     48          6           0        4.031692   -3.278319    0.234936
     49          6           0        3.672944   -3.129638   -1.263641
     50          6           0        5.025947   -2.325625    0.858030
     51          6           0        6.427112   -2.684374    0.175021
     52          6           0        7.649829   -1.695572    0.662327
     53          6           0        8.922906   -1.927494   -0.076797
     54          6           0        9.442873   -3.333473    0.163350
     55          6           0        9.995922   -0.913611    0.384888
     56          6           0       11.355282   -0.870082   -0.320989
     57          6           0       12.255225    0.260186    0.243111
     58          6           0       13.535643    0.435190   -0.551375
     59          6           0       14.442035   -0.967626   -0.377515
     60          6           0       14.227262    1.686222   -0.229564
     61          6           0       15.545750    2.056895   -0.981160
     62          6           0       16.041763    3.456463   -0.754493
     63          6           0       17.365449    3.862290   -1.421557
     64          6           0       17.143254    4.031434   -2.819449
     65          6           0       17.871298    5.159160   -0.854436
     66          1           0       -2.619374    1.179387    3.567773
     67          1           0       -6.451226    5.459830    0.937379
     68          1           0       -8.694161    1.236513   -3.122941
     69          1           0       -3.706195   -3.211610    1.948487
     70          1           0       -1.862948   -1.157823    2.953283
     71          1           0       -3.200384   -2.719926    4.321889
     72          1           0       -3.543562   -0.985385    4.731818
     73          1           0       -4.727669   -1.917003    3.691940
     74          1           0       -2.384637   -3.062966   -0.362413
     75          1           0       -1.282251   -1.873083    0.419987
     76          1           0       -0.691361   -2.983902    2.326208
     77          1           0       -1.521212   -4.608538    1.818013
     78          1           0       -1.507036    3.732223    3.817776
     79          1           0       -2.847910    4.562773    5.041102
     80          1           0       -2.665077    2.664210    4.933334
     81          1           0       -4.941404    6.820928    2.221567
     82          1           0      -10.080030    2.997286   -3.346867
     83          1           0      -10.188881    4.653201   -3.002900
     84          1           0       -9.600987    4.177817   -5.142499
     85          1           0       -8.145406    4.841788   -4.519062
     86          1           0       -8.048604    3.171660   -4.978308
     87          1           0       -8.484063   -1.051883   -4.790335
     88          1           0       -8.519591   -2.680098   -4.234850
     89          1           0       -9.454712   -1.364013   -3.462797
     90          1           0       -4.109077   -3.830620   -1.398210
     91          1           0        2.482678   -6.100408    0.843065
     92          1           0        2.241066   -5.074177   -0.607797
     93          1           0        3.737842   -4.322983    1.947942
     94          1           0        2.648144   -3.204965   -1.517343
     95          1           0        4.260060   -2.123643   -1.575632
     96          1           0        4.402697   -3.894985   -1.648950
     97          1           0        4.706755   -1.359711    0.485603
     98          1           0        5.113610   -2.243903    1.928846
     99          1           0        6.620494   -3.651198    0.250346
    100          1           0        6.335690   -2.437217   -0.907710
    101          1           0        7.339879   -0.692384    0.449243
    102          1           0        7.772024   -1.649042    1.639417
    103          1           0        8.590493   -1.767637   -1.261812
    104          1           0        8.791801   -4.193684   -0.301488
    105          1           0       10.456058   -3.487004   -0.203215
    106          1           0        9.559261   -3.470827    1.314719
    107          1           0        9.346341    0.039022    0.345986
    108          1           0       10.277746   -1.013277    1.405792
    109          1           0       11.708360   -1.922384   -0.132717
    110          1           0       11.381748   -0.647821   -1.333056
    111          1           0       11.691536    0.978577    0.149911
    112          1           0       12.494496    0.015635    1.304090
    113          1           0       13.322658    0.467123   -1.652149
    114          1           0       14.619466   -1.083731    0.816978
    115          1           0       13.842061   -1.764819   -0.928755
    116          1           0       15.304492   -0.687057   -1.020213
    117          1           0       13.467364    2.469502   -0.233905
    118          1           0       14.469172    1.566333    1.051505
    119          1           0       16.326414    1.405472   -0.640089
    120          1           0       15.246597    1.973705   -2.093926
    121          1           0       15.342669    4.156207   -1.186090
    122          1           0       16.058117    3.678046    0.253940
    123          1           0       18.250928    3.238775   -1.139974
    124          1           0       16.501910    4.982592   -2.869601
    125          1           0       18.020684    4.213245   -3.464120
    126          1           0       16.663564    3.231240   -3.204493
    127          1           0       18.301841    5.176400    0.116319
    128          1           0       18.616523    5.444153   -1.653579
    129          1           0       17.256623    5.941729   -0.770751
    130          1           0       -5.419751   -8.015123   -0.110074
    131          1           0       -6.751750   -6.903147    0.558907
    132          1           0       -4.836304   -7.116911    1.324187
    133          8           0       -7.801918    6.942584   -0.460483
    134          1           0       -9.190256    6.278091   -1.694851
 ---------------------------------------------------------------------

 SCF Done:  E(RCAM-B3LYP) =  -3043.51749231     A.U. after   16 cycles

 Excitation energies and oscillator strengths:

 Excited State   1:      Singlet-A      2.0030 eV  619.00 nm  f=0.2127  <S**2>=0.000
     243 -> 246        0.25695
     244 -> 245        0.65139
 This state for optimization and/or second-order correction.
 Total Energy, E(TD-HF/TD-KS) =  -3043.44388482
 Copying the excited state density for this state as the 1-particle RhoCI density.

 The electronic state is 1-A.
 Alpha  occ. eigenvalues --  -46.81114 -19.22567 -19.21263 -19.17900 -19.17449
 Alpha  occ. eigenvalues --  -19.17110 -19.16926 -19.16083 -14.39274 -14.37260
 Alpha  occ. eigenvalues --  -14.36963 -14.36433 -10.35122 -10.34880 -10.32030
 Alpha  occ. eigenvalues --  -10.31339 -10.29994 -10.29568 -10.27949 -10.27872
 Alpha  occ. eigenvalues --  -10.27250 -10.26858 -10.26852 -10.26714 -10.26129
 Alpha  occ. eigenvalues --  -10.26098 -10.26077 -10.26015 -10.25903 -10.25811
 Alpha  occ. eigenvalues --  -10.25331 -10.25140 -10.24610 -10.24538 -10.24518
 Alpha  occ. eigenvalues --  -10.24195 -10.24156 -10.24103 -10.23861 -10.23739
 Alpha  occ. eigenvalues --  -10.23627 -10.23272 -10.23112 -10.22793 -10.22672
 Alpha  occ. eigenvalues --  -10.22639 -10.22439 -10.22371 -10.22248 -10.22148
 Alpha  occ. eigenvalues --  -10.22136 -10.22018 -10.21702 -10.21591 -10.21344
 Alpha  occ. eigenvalues --  -10.21321 -10.21259 -10.20940 -10.20605 -10.20239
 Alpha  occ. eigenvalues --  -10.19691 -10.19352 -10.19250 -10.19022 -10.18839
 Alpha  occ. eigenvalues --  -10.18266  -3.09805  -1.84738  -1.84285  -1.84215
 Alpha  occ. eigenvalues --   -1.14645  -1.11303  -1.08526  -1.06818  -1.04621
 Alpha  occ. eigenvalues --   -1.04390  -1.01979  -1.01362  -1.00251  -0.99240
 Alpha  occ. eigenvalues --   -0.98239  -0.88304  -0.86434  -0.86328  -0.86244
 Alpha  occ. eigenvalues --   -0.86042  -0.85445  -0.84893  -0.84034  -0.83955
 Alpha  occ. eigenvalues --   -0.83757  -0.83335  -0.81502  -0.80375  -0.79986
 Alpha  occ. eigenvalues --   -0.79475  -0.78586  -0.78071  -0.76965  -0.76366
 Alpha  occ. eigenvalues --   -0.75100  -0.74623  -0.73720  -0.72667  -0.72096
 Alpha  occ. eigenvalues --   -0.71810  -0.71467  -0.70389  -0.70043  -0.69710
 Alpha  occ. eigenvalues --   -0.69570  -0.69383  -0.67533  -0.67015  -0.66896
 Alpha  occ. eigenvalues --   -0.65970  -0.65143  -0.64616  -0.63693  -0.62496
 Alpha  occ. eigenvalues --   -0.61902  -0.61390  -0.60368  -0.59160  -0.59009
 Alpha  occ. eigenvalues --   -0.58508  -0.57996  -0.57764  -0.56973  -0.56643
 Alpha  occ. eigenvalues --   -0.56292  -0.55854  -0.55806  -0.55181  -0.54774
 Alpha  occ. eigenvalues --   -0.54103  -0.53641  -0.53381  -0.52610  -0.52397
 Alpha  occ. eigenvalues --   -0.51765  -0.51723  -0.51579  -0.50881  -0.50790
 Alpha  occ. eigenvalues --   -0.50648  -0.50290  -0.49913  -0.49737  -0.49361
 Alpha  occ. eigenvalues --   -0.49159  -0.48753  -0.48622  -0.48501  -0.48154
 Alpha  occ. eigenvalues --   -0.47967  -0.47846  -0.47523  -0.47388  -0.47188
 Alpha  occ. eigenvalues --   -0.46658  -0.46580  -0.46453  -0.46265  -0.45956
 Alpha  occ. eigenvalues --   -0.45831  -0.45636  -0.45443  -0.45006  -0.44988
 Alpha  occ. eigenvalues --   -0.44798  -0.44449  -0.44279  -0.43819  -0.43667
 Alpha  occ. eigenvalues --   -0.43368  -0.43215  -0.43068  -0.43003  -0.42743
 Alpha  occ. eigenvalues --   -0.42397  -0.42223  -0.42039  -0.41783  -0.41652
 Alpha  occ. eigenvalues --   -0.41514  -0.41438  -0.41230  -0.41013  -0.40756
 Alpha  occ. eigenvalues --   -0.40544  -0.40457  -0.40281  -0.40265  -0.40000
 Alpha  occ. eigenvalues --   -0.39676  -0.39428  -0.39383  -0.39307  -0.39293
 Alpha  occ. eigenvalues --   -0.39055  -0.38878  -0.38752  -0.38565  -0.38316
 Alpha  occ. eigenvalues --   -0.38063  -0.37839  -0.37441  -0.37405  -0.37154
 Alpha  occ. eigenvalues --   -0.36675  -0.36505  -0.36205  -0.36109  -0.36086
 Alpha  occ. eigenvalues --   -0.35846  -0.35608  -0.35447  -0.35070  -0.35008
 Alpha  occ. eigenvalues --   -0.34898  -0.34137  -0.33943  -0.33690  -0.33540
 Alpha  occ. eigenvalues --   -0.33368  -0.32748  -0.32685  -0.32041  -0.31443
 Alpha  occ. eigenvalues --   -0.31260  -0.31073  -0.30853  -0.29944  -0.29665
 Alpha  occ. eigenvalues --   -0.29126  -0.28423  -0.28247  -0.27976  -0.27904
 Alpha  occ. eigenvalues --   -0.27512  -0.27240  -0.22989  -0.21849
 Alpha virt. eigenvalues --   -0.09024  -0.06566  -0.01501  -0.01197   0.00447
 Alpha virt. eigenvalues --    0.02803   0.03159   0.03667   0.04232   0.04463
 Alpha virt. eigenvalues --    0.04814   0.05544   0.07841   0.08397   0.09334

 Mulliken charges:
               1
     1  Mg   0.818442
     2  C    0.075012
     3  C   -0.198757
     4  C   -0.177468
     5  C   -0.197108
     6  N   -0.644927
     7  C    0.334282
     8  C   -0.152676
     9  C   -0.174255
    10  C    0.380137
    11  C   -0.327509
    12  C   -0.147046
    13  C   -0.269892
    14  C    0.610414
    15  O   -0.496222
    16  O   -0.480561
    17  N   -0.695386
    18  C    0.333361
    19  C    0.092550
    20  C   -0.020038
    21  C    0.286586
    22  C   -0.378560
    23  C    0.242007
    24  O   -0.403481
    25  N   -0.697482
    26  C    0.309036
    27  C   -0.030779
    28  C    0.071662
    29  C    0.327832
    30  C    0.248719
    31  C   -0.284788
    32  C   -0.301165
    33  N   -0.748459
    34  C    0.243827
    35  C    0.025304
    36  C    0.033532
    37  C    0.325361
    38  C   -0.390746
    39  C    0.374479
    40  O   -0.431239
    41  C   -0.343663
    42  C    0.599855
    43  O   -0.466582
    44  O   -0.429215
    45  C   -0.073889
    46  C   -0.010796
    47  C   -0.102041
    48  C    0.117923
    49  C   -0.363008
    50  C   -0.225483
    51  C   -0.196611
    52  C   -0.170519
    53  C   -0.036629
    54  C   -0.300979
    55  C   -0.179283
    56  C   -0.189153
    57  C   -0.132488
    58  C   -0.079218
    59  C   -0.310498
    60  C   -0.142645
    61  C   -0.171675
    62  C   -0.165716
    63  C   -0.052724
    64  C   -0.293653
    65  C   -0.315959
    66  H    0.083190
    67  H    0.123498
    68  H    0.082111
    69  H    0.140314
    70  H    0.110136
    71  H    0.112792
    72  H    0.118748
    73  H    0.111183
    74  H    0.111453
    75  H    0.137382
    76  H    0.122556
    77  H    0.128380
    78  H    0.089432
    79  H    0.160064
    80  H    0.080660
    81  H    0.053865
    82  H    0.116758
    83  H    0.110206
    84  H    0.119478
    85  H    0.123019
    86  H    0.111686
    87  H    0.130301
    88  H    0.117637
    89  H    0.148327
    90  H    0.165731
    91  H    0.119802
    92  H    0.108448
    93  H    0.077325
    94  H    0.169534
    95  H    0.086714
    96  H    0.123783
    97  H    0.107511
    98  H    0.103484
    99  H    0.112661
   100  H    0.090790
   101  H    0.088422
   102  H    0.096058
   103  H    0.051336
   104  H    0.086305
   105  H    0.104238
   106  H    0.085006
   107  H    0.066149
   108  H    0.095865
   109  H    0.089129
   110  H    0.095859
   111  H    0.095891
   112  H    0.081366
   113  H    0.070022
   114  H    0.090202
   115  H    0.106583
   116  H    0.106098
   117  H    0.092195
   118  H    0.023558
   119  H    0.107995
   120  H    0.081075
   121  H    0.083885
   122  H    0.093585
   123  H    0.079633
   124  H    0.089087
   125  H    0.095565
   126  H    0.105509
   127  H    0.097295
   128  H    0.084426
   129  H    0.105122
   130  H    0.094847
   131  H    0.130325
   132  H    0.130989
   133  O   -0.441525
   134  H    0.079599
 Sum of Mulliken charges =   0.00000

 Dipole moment (field-independent basis, Debye):
    X=              1.2763    Y=             -4.6374    Z=             -1.4076  Tot=              5.0116
 Quadrupole moment (field-independent basis, Debye-Ang):
   XX=           -365.3401   YY=           -445.0631   ZZ=           -393.4198
   XY=              7.5966   XZ=             27.8766   YZ=            -36.7259

 Normal termination of Gaussian 09 at Sat Oct  5 06:10:22 2019.
