 Gaussian 09, Revision D.01,
 Gaussian 09:  ES64L-G09RevD.01 24-Apr-2013

 ----------------------------------------------------------------------
 # td=(NStates=1) iop(3/107=0140000000,3/108=0140000000) iop(3/107=0140
 000000,3/108=0140000000) CAM-B3LYP/6-31G(d,p)
 ----------------------------------------------------------------------

 --
 TD
 --
 Symbolic Z-matrix:
 Charge =  0 Multiplicity = 1

                         Standard orientation:
 ---------------------------------------------------------------------
 Center     Atomic      Atomic             Coordinates (Angstroms)
 Number     Number       Type             X           Y           Z
 ---------------------------------------------------------------------
      1         12           0       -5.557214    1.256175    0.234514
      2          6           0       -5.027088   -2.218551   -0.372455
      3          6           0       -3.343970    1.075780    2.804237
      4          6           0       -6.136196    4.474128    0.665518
      5          6           0       -7.887223    1.278521   -2.421393
      6          7           0       -4.392141   -0.252700    1.047359
      7          6           0       -4.259325   -1.544602    0.645717
      8          6           0       -3.232552   -2.402478    1.531324
      9          6           0       -2.829788   -1.348915    2.637731
     10          6           0       -3.582784   -0.059972    2.147407
     11          6           0       -3.504182   -1.729078    3.997682
     12          6           0       -2.014344   -2.773565    0.687063
     13          6           0       -0.965433   -3.637265    1.434019
     14          6           0        0.244050   -3.981073    0.655903
     15          8           0        0.478087   -3.487027   -0.420801
     16          8           0        1.077712   -4.765050    1.349835
     17          7           0       -4.933504    2.579318    1.504058
     18          6           0       -3.883503    2.422805    2.444185
     19          6           0       -3.597009    3.582432    3.195021
     20          6           0       -4.385926    4.625899    2.682761
     21          6           0       -5.192857    3.892405    1.556973
     22          6           0       -2.674546    3.751478    4.404479
     23          6           0       -4.464105    6.013361    2.954888
     24          8           0       -3.814617    6.539697    3.855254
     25          7           0       -6.849322    2.610626   -0.695955
     26          6           0       -6.893113    3.918922   -0.263083
     27          6           0       -7.899125    4.590537   -1.141380
     28          6           0       -8.529658    3.687679   -2.000345
     29          6           0       -7.765542    2.422008   -1.728646
     30          6           0       -8.396197    6.079728   -1.083261
     31          6           0       -9.393208    3.988411   -3.207397
     32          6           0       -8.669426    4.242024   -4.499204
     33          7           0       -6.293372   -0.121410   -1.120083
     34          6           0       -7.281451    0.058697   -2.145007
     35          6           0       -7.558943   -1.220191   -2.756444
     36          6           0       -6.739419   -2.186932   -2.119987
     37          6           0       -5.937201   -1.427222   -1.142063
     38          6           0       -8.390406   -1.476683   -3.900081
     39          6           0       -6.254257   -3.513850   -2.082728
     40          8           0       -6.606296   -4.450334   -2.817997
     41          6           0       -5.078423   -3.688147   -0.902890
     42          6           0       -5.375593   -4.715245    0.182080
     43          8           0       -5.766345   -4.502339    1.260578
     44          8           0       -5.220381   -5.894509   -0.455653
     45          6           0       -5.655242   -6.912111    0.307249
     46          6           0        2.353001   -5.082131    0.578115
     47          6           0        3.377612   -4.071496    1.050944
     48          6           0        4.033384   -3.212745    0.186831
     49          6           0        3.613644   -2.936103   -1.188655
     50          6           0        5.175647   -2.340273    0.802498
     51          6           0        6.473803   -2.652952   -0.017311
     52          6           0        7.635044   -1.750054    0.552672
     53          6           0        9.010027   -2.026323   -0.072929
     54          6           0        9.619828   -3.393970    0.158243
     55          6           0       10.059636   -0.995864    0.433746
     56          6           0       11.490393   -0.983590   -0.346763
     57          6           0       12.218571    0.173531    0.134330
     58          6           0       13.482325    0.336665   -0.736958
     59          6           0       14.468461   -0.783097   -0.442118
     60          6           0       14.145590    1.685313   -0.238020
     61          6           0       15.339321    2.270980   -1.060633
     62          6           0       15.962685    3.552946   -0.663834
     63          6           0       17.249495    3.951852   -1.315006
     64          6           0       17.017756    4.085757   -2.893614
     65          6           0       17.741653    5.259981   -0.674337
     66          1           0       -2.592433    0.835417    3.481616
     67          1           0       -6.364616    5.533659    0.930043
     68          1           0       -8.552754    1.212953   -3.342985
     69          1           0       -3.742157   -3.229715    1.859077
     70          1           0       -1.621849   -1.321596    2.576575
     71          1           0       -2.907128   -2.656122    4.319803
     72          1           0       -3.243414   -0.943505    4.561424
     73          1           0       -4.601136   -2.088856    3.937460
     74          1           0       -2.251330   -3.278023   -0.209984
     75          1           0       -1.400925   -1.916298    0.349742
     76          1           0       -0.550113   -3.267273    2.423302
     77          1           0       -1.289334   -4.543877    1.886942
     78          1           0       -1.574533    3.364733    4.107950
     79          1           0       -2.601753    4.735639    4.783051
     80          1           0       -3.017903    3.014857    5.187513
     81          1           0       -5.031274    6.669790    2.344344
     82          1           0      -10.203072    3.034220   -3.430539
     83          1           0      -10.092247    4.651325   -2.926412
     84          1           0       -9.396743    4.610430   -5.260924
     85          1           0       -8.001092    5.091616   -4.360469
     86          1           0       -7.999421    3.468865   -4.805033
     87          1           0       -8.447017   -0.962883   -4.862911
     88          1           0       -8.349462   -2.374623   -4.153060
     89          1           0       -9.331478   -1.418593   -3.564475
     90          1           0       -4.216717   -4.048938   -1.469811
     91          1           0        2.481222   -6.082849    0.997178
     92          1           0        2.321658   -5.111538   -0.519516
     93          1           0        3.689772   -4.203419    2.039698
     94          1           0        2.607375   -3.494434   -1.577124
     95          1           0        3.938574   -1.855298   -1.181477
     96          1           0        4.216216   -3.390503   -1.956252
     97          1           0        4.866697   -1.425843    0.899349
     98          1           0        5.251273   -2.653798    1.847345
     99          1           0        6.666198   -3.724534   -0.001097
    100          1           0        6.102684   -2.373064   -1.104894
    101          1           0        7.349348   -0.666837    0.379791
    102          1           0        7.560066   -1.910028    1.698001
    103          1           0        8.913163   -1.923188   -1.115519
    104          1           0        8.869013   -4.017805   -0.401238
    105          1           0       10.490925   -3.388856   -0.283067
    106          1           0        9.677742   -3.729648    1.305258
    107          1           0        9.607532    0.122626    0.415423
    108          1           0       10.092492   -1.439389    1.527712
    109          1           0       11.821560   -1.835397   -0.032219
    110          1           0       11.255680   -0.855177   -1.371512
    111          1           0       11.615800    1.046950    0.037513
    112          1           0       12.373286   -0.049895    1.204365
    113          1           0       13.220237    0.215379   -1.727316
    114          1           0       14.532430   -0.965819    0.717537
    115          1           0       13.879069   -1.677771   -0.987086
    116          1           0       15.440946   -0.704085   -1.125294
    117          1           0       13.557053    2.607307   -0.221924
    118          1           0       14.589302    1.572382    0.753255
    119          1           0       16.297545    1.596039   -0.993036
    120          1           0       15.135717    2.390008   -2.124989
    121          1           0       15.107953    4.254129   -0.525576
    122          1           0       16.043504    3.555510    0.315470
    123          1           0       18.031214    3.137373   -1.384413
    124          1           0       16.301975    4.868208   -3.081074
    125          1           0       17.937842    4.479752   -3.333869
    126          1           0       16.870681    3.180380   -3.449508
    127          1           0       17.917733    5.043633    0.374921
    128          1           0       18.811529    5.591366   -1.193825
    129          1           0       16.874141    5.944016   -0.741844
    130          1           0       -5.571186   -7.776906   -0.096008
    131          1           0       -6.724868   -6.882329    0.576725
    132          1           0       -5.172751   -7.006613    1.203772
    133          8           0       -7.902120    6.809954   -0.350057
    134          1           0       -8.955181    6.434527   -1.947417
 ---------------------------------------------------------------------

 SCF Done:  E(RCAM-B3LYP) =  -3043.44276021     A.U. after   16 cycles

 Excitation energies and oscillator strengths:

 Excited State   1:      Singlet-A      1.9246 eV  644.21 nm  f=0.2930  <S**2>=0.000
     243 -> 246        0.21263
     244 -> 245        0.66780
 This state for optimization and/or second-order correction.
 Total Energy, E(TD-HF/TD-KS) =  -3043.37203222
 Copying the excited state density for this state as the 1-particle RhoCI density.

 The electronic state is 1-A.
 Alpha  occ. eigenvalues --  -46.80733 -19.23115 -19.21645 -19.18676 -19.18305
 Alpha  occ. eigenvalues --  -19.16475 -19.15945 -19.15604 -14.39099 -14.37760
 Alpha  occ. eigenvalues --  -14.36951 -14.36357 -10.35260 -10.33597 -10.31339
 Alpha  occ. eigenvalues --  -10.30899 -10.28739 -10.28129 -10.27521 -10.27212
 Alpha  occ. eigenvalues --  -10.26970 -10.26395 -10.26353 -10.26242 -10.26189
 Alpha  occ. eigenvalues --  -10.25848 -10.25645 -10.25360 -10.24982 -10.24883
 Alpha  occ. eigenvalues --  -10.24649 -10.24456 -10.24418 -10.24216 -10.24000
 Alpha  occ. eigenvalues --  -10.23772 -10.23309 -10.23281 -10.23031 -10.23009
 Alpha  occ. eigenvalues --  -10.22826 -10.22715 -10.22542 -10.22535 -10.22429
 Alpha  occ. eigenvalues --  -10.22397 -10.22360 -10.22260 -10.22249 -10.22248
 Alpha  occ. eigenvalues --  -10.22099 -10.22058 -10.21979 -10.21542 -10.21312
 Alpha  occ. eigenvalues --  -10.20926 -10.20764 -10.20760 -10.20732 -10.20303
 Alpha  occ. eigenvalues --  -10.19925 -10.19640 -10.19520 -10.19212 -10.19195
 Alpha  occ. eigenvalues --  -10.18512  -3.09517  -1.84439  -1.83993  -1.83946
 Alpha  occ. eigenvalues --   -1.16730  -1.12325  -1.11980  -1.08922  -1.05205
 Alpha  occ. eigenvalues --   -1.05017  -1.03773  -0.99856  -0.98917  -0.98517
 Alpha  occ. eigenvalues --   -0.97420  -0.87088  -0.86311  -0.85701  -0.85422
 Alpha  occ. eigenvalues --   -0.85072  -0.84704  -0.84623  -0.84082  -0.83649
 Alpha  occ. eigenvalues --   -0.83571  -0.82802  -0.81163  -0.80468  -0.79537
 Alpha  occ. eigenvalues --   -0.78979  -0.78360  -0.78231  -0.77116  -0.76472
 Alpha  occ. eigenvalues --   -0.75840  -0.75304  -0.74025  -0.72903  -0.72165
 Alpha  occ. eigenvalues --   -0.71711  -0.71025  -0.70213  -0.69753  -0.69373
 Alpha  occ. eigenvalues --   -0.68938  -0.68348  -0.67151  -0.66792  -0.66093
 Alpha  occ. eigenvalues --   -0.65678  -0.64754  -0.64055  -0.62629  -0.61956
 Alpha  occ. eigenvalues --   -0.61536  -0.61109  -0.60477  -0.59593  -0.59450
 Alpha  occ. eigenvalues --   -0.59106  -0.58295  -0.58245  -0.57904  -0.56993
 Alpha  occ. eigenvalues --   -0.55935  -0.55791  -0.55492  -0.55387  -0.54496
 Alpha  occ. eigenvalues --   -0.54402  -0.53877  -0.53218  -0.52680  -0.52612
 Alpha  occ. eigenvalues --   -0.52219  -0.51969  -0.51592  -0.51317  -0.50533
 Alpha  occ. eigenvalues --   -0.50084  -0.49824  -0.49716  -0.49667  -0.49020
 Alpha  occ. eigenvalues --   -0.48836  -0.48584  -0.48396  -0.48261  -0.47958
 Alpha  occ. eigenvalues --   -0.47741  -0.47649  -0.47391  -0.47160  -0.46907
 Alpha  occ. eigenvalues --   -0.46516  -0.46439  -0.46075  -0.46013  -0.45781
 Alpha  occ. eigenvalues --   -0.45685  -0.45485  -0.45056  -0.45014  -0.44960
 Alpha  occ. eigenvalues --   -0.44665  -0.44505  -0.44290  -0.44037  -0.43765
 Alpha  occ. eigenvalues --   -0.43433  -0.43349  -0.43214  -0.43085  -0.42823
 Alpha  occ. eigenvalues --   -0.42743  -0.42315  -0.42268  -0.42263  -0.42014
 Alpha  occ. eigenvalues --   -0.41714  -0.41491  -0.41469  -0.41173  -0.41117
 Alpha  occ. eigenvalues --   -0.40761  -0.40537  -0.40422  -0.40142  -0.40007
 Alpha  occ. eigenvalues --   -0.39990  -0.39613  -0.39528  -0.39474  -0.39400
 Alpha  occ. eigenvalues --   -0.39225  -0.38939  -0.38886  -0.38437  -0.38151
 Alpha  occ. eigenvalues --   -0.37966  -0.37737  -0.37566  -0.37364  -0.37126
 Alpha  occ. eigenvalues --   -0.36993  -0.36486  -0.36372  -0.36095  -0.35866
 Alpha  occ. eigenvalues --   -0.35441  -0.35243  -0.34929  -0.34914  -0.34572
 Alpha  occ. eigenvalues --   -0.34509  -0.34279  -0.33959  -0.33513  -0.33001
 Alpha  occ. eigenvalues --   -0.32755  -0.32359  -0.32339  -0.31997  -0.31507
 Alpha  occ. eigenvalues --   -0.31122  -0.30838  -0.30040  -0.29869  -0.29682
 Alpha  occ. eigenvalues --   -0.28498  -0.28160  -0.28011  -0.27494  -0.27177
 Alpha  occ. eigenvalues --   -0.27049  -0.26210  -0.22880  -0.21397
 Alpha virt. eigenvalues --   -0.09293  -0.05609  -0.01140  -0.00433   0.01000
 Alpha virt. eigenvalues --    0.03120   0.03264   0.03994   0.04541   0.04988
 Alpha virt. eigenvalues --    0.05325   0.06247   0.08011   0.08984   0.09631

 Mulliken charges:
               1
     1  Mg   0.827434
     2  C    0.063985
     3  C   -0.149357
     4  C   -0.198509
     5  C   -0.179025
     6  N   -0.627387
     7  C    0.272067
     8  C   -0.120953
     9  C   -0.171391
    10  C    0.320051
    11  C   -0.291949
    12  C   -0.181564
    13  C   -0.287717
    14  C    0.617680
    15  O   -0.479034
    16  O   -0.480263
    17  N   -0.692350
    18  C    0.241660
    19  C    0.062440
    20  C    0.005695
    21  C    0.287440
    22  C   -0.367500
    23  C    0.216479
    24  O   -0.434979
    25  N   -0.704320
    26  C    0.364196
    27  C   -0.085686
    28  C    0.026387
    29  C    0.302600
    30  C    0.255143
    31  C   -0.221537
    32  C   -0.305241
    33  N   -0.726132
    34  C    0.288204
    35  C   -0.000715
    36  C    0.079678
    37  C    0.283823
    38  C   -0.373419
    39  C    0.310311
    40  O   -0.469217
    41  C   -0.318783
    42  C    0.633038
    43  O   -0.434945
    44  O   -0.413453
    45  C   -0.083615
    46  C   -0.015905
    47  C   -0.120493
    48  C    0.118047
    49  C   -0.371624
    50  C   -0.235908
    51  C   -0.180247
    52  C   -0.157291
    53  C   -0.068931
    54  C   -0.296627
    55  C   -0.186401
    56  C   -0.173040
    57  C   -0.154519
    58  C   -0.057735
    59  C   -0.293106
    60  C   -0.171713
    61  C   -0.191435
    62  C   -0.153922
    63  C   -0.055933
    64  C   -0.324290
    65  C   -0.300518
    66  H    0.082945
    67  H    0.124527
    68  H    0.097186
    69  H    0.121831
    70  H    0.103364
    71  H    0.094815
    72  H    0.118187
    73  H    0.132184
    74  H    0.118159
    75  H    0.125088
    76  H    0.127343
    77  H    0.129346
    78  H    0.098596
    79  H    0.165621
    80  H    0.120962
    81  H    0.084709
    82  H    0.064960
    83  H    0.123619
    84  H    0.113665
    85  H    0.113739
    86  H    0.125665
    87  H    0.128673
    88  H    0.145478
    89  H    0.139265
    90  H    0.159907
    91  H    0.117450
    92  H    0.125039
    93  H    0.080679
    94  H    0.141940
    95  H    0.113210
    96  H    0.124922
    97  H    0.119144
    98  H    0.095318
    99  H    0.110087
   100  H    0.077836
   101  H    0.090056
   102  H    0.080718
   103  H    0.088335
   104  H    0.091965
   105  H    0.120087
   106  H    0.082628
   107  H    0.055988
   108  H    0.070528
   109  H    0.116426
   110  H    0.094300
   111  H    0.095317
   112  H    0.088686
   113  H    0.091728
   114  H    0.098078
   115  H    0.074700
   116  H    0.101320
   117  H    0.083436
   118  H    0.093879
   119  H    0.060204
   120  H    0.090197
   121  H    0.066178
   122  H    0.090847
   123  H    0.085499
   124  H    0.101315
   125  H    0.088568
   126  H    0.109917
   127  H    0.110896
   128  H    0.078444
   129  H    0.109407
   130  H    0.117621
   131  H    0.108176
   132  H    0.114593
   133  O   -0.351120
   134  H    0.067948
 Sum of Mulliken charges =   0.00000

 Dipole moment (field-independent basis, Debye):
    X=              1.0468    Y=             -3.8806    Z=             -2.0840  Tot=              4.5275
 Quadrupole moment (field-independent basis, Debye-Ang):
   XX=           -369.9043   YY=           -428.6399   ZZ=           -395.2219
   XY=             -9.9180   XZ=             26.4277   YZ=            -38.5821

 Normal termination of Gaussian 09 at Fri Oct  4 17:01:05 2019.
