 Gaussian 09, Revision D.01,
 Gaussian 09:  ES64L-G09RevD.01 24-Apr-2013

 ----------------------------------------------------------------------
 # td=(NStates=1) iop(3/107=0140000000,3/108=0140000000) iop(3/107=0140
 000000,3/108=0140000000) CAM-B3LYP/6-31G(d,p)
 ----------------------------------------------------------------------

 --
 TD
 --
 Symbolic Z-matrix:
 Charge =  0 Multiplicity = 1

                         Standard orientation:
 ---------------------------------------------------------------------
 Center     Atomic      Atomic             Coordinates (Angstroms)
 Number     Number       Type             X           Y           Z
 ---------------------------------------------------------------------
      1         12           0       -5.600764    1.195051    0.171988
      2          6           0       -5.008129   -2.136444   -0.377218
      3          6           0       -3.425194    1.155104    2.780138
      4          6           0       -6.276761    4.531752    0.711273
      5          6           0       -8.076209    1.139590   -2.364970
      6          7           0       -4.524023   -0.242399    1.123042
      7          6           0       -4.249929   -1.563785    0.587883
      8          6           0       -3.246150   -2.282802    1.496141
      9          6           0       -2.840694   -1.283596    2.617674
     10          6           0       -3.576711   -0.074861    2.160051
     11          6           0       -3.293288   -1.816899    4.081912
     12          6           0       -2.090047   -2.680132    0.670448
     13          6           0       -0.911495   -3.530199    1.488641
     14          6           0        0.277663   -3.936098    0.535751
     15          8           0        0.507236   -3.613111   -0.549845
     16          8           0        1.101542   -4.620211    1.345198
     17          7           0       -4.991704    2.606564    1.572208
     18          6           0       -4.029180    2.443438    2.495149
     19          6           0       -3.745488    3.688708    3.202019
     20          6           0       -4.504345    4.653556    2.524719
     21          6           0       -5.359260    3.990112    1.475323
     22          6           0       -2.730147    3.703238    4.294412
     23          6           0       -4.612852    6.098054    2.777520
     24          8           0       -3.999364    6.564104    3.767136
     25          7           0       -6.904584    2.621888   -0.750696
     26          6           0       -6.955686    3.958038   -0.423945
     27          6           0       -7.985731    4.581104   -1.113312
     28          6           0       -8.559069    3.607990   -2.007153
     29          6           0       -7.843577    2.387730   -1.751255
     30          6           0       -8.395457    5.952658   -1.147330
     31          6           0       -9.640332    3.849376   -2.996998
     32          6           0       -9.222707    3.959874   -4.497491
     33          7           0       -6.321994   -0.175489   -1.133428
     34          6           0       -7.420189   -0.084908   -2.124072
     35          6           0       -7.502609   -1.377364   -2.810430
     36          6           0       -6.490286   -2.234962   -2.166411
     37          6           0       -5.994603   -1.445463   -1.137115
     38          6           0       -8.559878   -1.646870   -3.872702
     39          6           0       -6.122883   -3.542789   -1.995370
     40          8           0       -6.596429   -4.606298   -2.552741
     41          6           0       -5.018985   -3.608629   -0.846397
     42          6           0       -5.279195   -4.615334    0.164513
     43          8           0       -5.837024   -4.382448    1.313515
     44          8           0       -4.996391   -5.858875   -0.238901
     45          6           0       -5.317348   -6.820627    0.694332
     46          6           0        2.406620   -5.204746    0.604928
     47          6           0        3.448191   -4.175311    0.857565
     48          6           0        4.027049   -3.331155    0.014473
     49          6           0        3.715500   -3.036598   -1.442873
     50          6           0        5.211032   -2.383860    0.618580
     51          6           0        6.551544   -2.672074   -0.077449
     52          6           0        7.655147   -1.642057    0.514713
     53          6           0        9.027497   -1.862218   -0.124954
     54          6           0        9.600777   -3.270842    0.054558
     55          6           0       10.014560   -0.844392    0.521863
     56          6           0       11.364295   -0.805735   -0.188307
     57          6           0       12.317714    0.312566    0.301663
     58          6           0       13.570590    0.442452   -0.570456
     59          6           0       14.595075   -0.734501   -0.385224
     60          6           0       14.281041    1.783540   -0.105361
     61          6           0       15.559621    2.111444   -0.845645
     62          6           0       16.011567    3.609690   -0.631726
     63          6           0       17.342233    3.876701   -1.373794
     64          6           0       17.091757    3.989573   -2.906375
     65          6           0       18.031585    5.187964   -0.857212
     66          1           0       -2.731349    1.233100    3.475296
     67          1           0       -6.498837    5.472821    0.760601
     68          1           0       -8.718310    1.110716   -3.161278
     69          1           0       -3.816146   -3.202583    1.923364
     70          1           0       -1.747425   -1.122678    2.526247
     71          1           0       -2.533645   -2.818140    4.227955
     72          1           0       -3.184593   -1.189249    5.087205
     73          1           0       -4.366193   -2.129525    4.056826
     74          1           0       -2.627699   -3.278516   -0.059706
     75          1           0       -1.484669   -1.762789    0.202306
     76          1           0       -0.440728   -2.886235    2.207176
     77          1           0       -1.326791   -4.467589    2.192426
     78          1           0       -1.746624    3.185679    3.910163
     79          1           0       -2.407844    4.793130    4.472102
     80          1           0       -3.266177    3.248518    5.206330
     81          1           0       -5.439435    6.765760    2.296003
     82          1           0      -10.188831    2.812888   -3.055215
     83          1           0      -10.238251    4.829144   -2.949795
     84          1           0       -9.971826    4.124278   -5.242384
     85          1           0       -8.384309    4.682392   -4.642656
     86          1           0       -8.734510    2.939005   -5.148591
     87          1           0       -8.085648   -1.222017   -4.854874
     88          1           0       -8.790204   -2.725935   -3.774327
     89          1           0       -9.474409   -0.887811   -3.502132
     90          1           0       -4.111378   -3.857239   -1.419556
     91          1           0        2.367813   -6.351998    1.017519
     92          1           0        2.303632   -5.279895   -0.528961
     93          1           0        3.897226   -4.351112    1.839630
     94          1           0        2.892586   -3.623448   -1.808552
     95          1           0        3.960442   -1.961695   -1.648925
     96          1           0        4.543051   -3.557861   -1.989883
     97          1           0        4.782405   -1.313792    0.543995
     98          1           0        5.302539   -2.412651    1.662599
     99          1           0        6.710338   -3.685602    0.250140
    100          1           0        6.536210   -2.680069   -1.217468
    101          1           0        7.170629   -0.614387    0.335155
    102          1           0        7.755338   -1.838324    1.599442
    103          1           0        8.860182   -1.786380   -1.200582
    104          1           0        9.058793   -4.116714   -0.483423
    105          1           0       10.715441   -3.224097   -0.312708
    106          1           0        9.710530   -3.532456    1.196871
    107          1           0        9.700444    0.335692    0.385147
    108          1           0       10.185659   -1.134559    1.587851
    109          1           0       11.974039   -1.804897   -0.007758
    110          1           0       11.143514   -0.798865   -1.284220
    111          1           0       11.745120    1.298468    0.110212
    112          1           0       12.522097    0.067480    1.280799
    113          1           0       13.251774    0.754392   -1.768309
    114          1           0       14.718880   -0.835351    0.581945
    115          1           0       14.390087   -1.608212   -0.814325
    116          1           0       15.491117   -0.555884   -0.923258
    117          1           0       13.500105    2.506329   -0.199972
    118          1           0       14.487170    1.638225    0.980636
    119          1           0       16.218921    1.273732   -0.831198
    120          1           0       15.394589    1.938290   -1.951351
    121          1           0       15.209462    4.412786   -0.779190
    122          1           0       16.004186    3.810480    0.354118
    123          1           0       18.000223    3.191095   -1.086081
    124          1           0       16.486462    4.953591   -2.916342
    125          1           0       18.061146    4.367117   -3.531477
    126          1           0       16.833224    3.019991   -3.258392
    127          1           0       18.323615    4.974088    0.160477
    128          1           0       18.840190    5.352154   -1.342971
    129          1           0       17.331027    6.166687   -0.927890
    130          1           0       -5.051188   -7.739107    0.041299
    131          1           0       -6.414217   -7.124556    0.945766
    132          1           0       -4.799455   -6.616286    1.666042
    133          8           0       -7.817066    6.813982   -0.451275
    134          1           0       -9.194134    6.234790   -1.894523
 ---------------------------------------------------------------------

 SCF Done:  E(RCAM-B3LYP) =  -3043.43849557     A.U. after   15 cycles

 Excitation energies and oscillator strengths:

 Excited State   1:      Singlet-A      2.1232 eV  583.95 nm  f=0.1258  <S**2>=0.000
     243 -> 245       -0.25591
     243 -> 246       -0.31138
     244 -> 245        0.55508
     244 -> 246       -0.13106
 This state for optimization and/or second-order correction.
 Total Energy, E(TD-HF/TD-KS) =  -3043.36047004
 Copying the excited state density for this state as the 1-particle RhoCI density.

 The electronic state is 1-A.
 Alpha  occ. eigenvalues --  -46.81163 -19.23976 -19.20537 -19.16984 -19.16833
 Alpha  occ. eigenvalues --  -19.16706 -19.16693 -19.15869 -14.38436 -14.37205
 Alpha  occ. eigenvalues --  -14.36856 -14.36761 -10.35400 -10.33784 -10.30954
 Alpha  occ. eigenvalues --  -10.30948 -10.30367 -10.29376 -10.27911 -10.27738
 Alpha  occ. eigenvalues --  -10.27443 -10.27340 -10.27220 -10.27162 -10.26582
 Alpha  occ. eigenvalues --  -10.26457 -10.26389 -10.25931 -10.25840 -10.25789
 Alpha  occ. eigenvalues --  -10.25658 -10.25465 -10.25426 -10.25266 -10.25180
 Alpha  occ. eigenvalues --  -10.24964 -10.24856 -10.24448 -10.24141 -10.24129
 Alpha  occ. eigenvalues --  -10.24058 -10.23975 -10.23810 -10.23284 -10.23277
 Alpha  occ. eigenvalues --  -10.22542 -10.22461 -10.22426 -10.22397 -10.22245
 Alpha  occ. eigenvalues --  -10.22244 -10.22184 -10.22131 -10.22100 -10.22095
 Alpha  occ. eigenvalues --  -10.21480 -10.21347 -10.21304 -10.21165 -10.20895
 Alpha  occ. eigenvalues --  -10.20555 -10.20530 -10.20388 -10.20112 -10.19197
 Alpha  occ. eigenvalues --  -10.18212  -3.09705  -1.84650  -1.84180  -1.84106
 Alpha  occ. eigenvalues --   -1.15046  -1.13033  -1.05030  -1.04802  -1.03971
 Alpha  occ. eigenvalues --   -1.02567  -1.01515  -0.99703  -0.99026  -0.98508
 Alpha  occ. eigenvalues --   -0.96799  -0.88775  -0.85895  -0.85534  -0.85017
 Alpha  occ. eigenvalues --   -0.84846  -0.84321  -0.84065  -0.83802  -0.83542
 Alpha  occ. eigenvalues --   -0.82862  -0.82792  -0.81230  -0.79989  -0.79784
 Alpha  occ. eigenvalues --   -0.78411  -0.78258  -0.77714  -0.77228  -0.76097
 Alpha  occ. eigenvalues --   -0.75353  -0.74993  -0.73386  -0.73273  -0.71996
 Alpha  occ. eigenvalues --   -0.71927  -0.70655  -0.70440  -0.69528  -0.69472
 Alpha  occ. eigenvalues --   -0.69246  -0.68245  -0.67578  -0.66595  -0.66313
 Alpha  occ. eigenvalues --   -0.65429  -0.64611  -0.64443  -0.62723  -0.62369
 Alpha  occ. eigenvalues --   -0.61568  -0.60439  -0.60291  -0.59645  -0.59275
 Alpha  occ. eigenvalues --   -0.58533  -0.58031  -0.57413  -0.57038  -0.56361
 Alpha  occ. eigenvalues --   -0.56213  -0.55660  -0.55360  -0.55044  -0.54535
 Alpha  occ. eigenvalues --   -0.53750  -0.52942  -0.52476  -0.52460  -0.51939
 Alpha  occ. eigenvalues --   -0.51512  -0.51478  -0.51151  -0.50738  -0.50133
 Alpha  occ. eigenvalues --   -0.49647  -0.49570  -0.49448  -0.49299  -0.48853
 Alpha  occ. eigenvalues --   -0.48803  -0.48308  -0.48020  -0.47849  -0.47757
 Alpha  occ. eigenvalues --   -0.47656  -0.47655  -0.47277  -0.46829  -0.46680
 Alpha  occ. eigenvalues --   -0.46413  -0.46250  -0.45934  -0.45781  -0.45578
 Alpha  occ. eigenvalues --   -0.45179  -0.45098  -0.44926  -0.44538  -0.44437
 Alpha  occ. eigenvalues --   -0.44162  -0.43990  -0.43961  -0.43833  -0.43698
 Alpha  occ. eigenvalues --   -0.43385  -0.43152  -0.43024  -0.42764  -0.42376
 Alpha  occ. eigenvalues --   -0.42294  -0.42112  -0.41957  -0.41943  -0.41465
 Alpha  occ. eigenvalues --   -0.41379  -0.41126  -0.41052  -0.40777  -0.40541
 Alpha  occ. eigenvalues --   -0.40516  -0.40274  -0.40100  -0.39905  -0.39818
 Alpha  occ. eigenvalues --   -0.39748  -0.39679  -0.39358  -0.39192  -0.38832
 Alpha  occ. eigenvalues --   -0.38564  -0.38201  -0.37966  -0.37850  -0.37718
 Alpha  occ. eigenvalues --   -0.37667  -0.37410  -0.37035  -0.36844  -0.36720
 Alpha  occ. eigenvalues --   -0.36531  -0.36091  -0.35904  -0.35460  -0.35380
 Alpha  occ. eigenvalues --   -0.35335  -0.35227  -0.35147  -0.35088  -0.34794
 Alpha  occ. eigenvalues --   -0.34520  -0.34466  -0.34048  -0.33882  -0.33525
 Alpha  occ. eigenvalues --   -0.32887  -0.32623  -0.32468  -0.31967  -0.31384
 Alpha  occ. eigenvalues --   -0.31196  -0.30417  -0.30060  -0.29926  -0.29716
 Alpha  occ. eigenvalues --   -0.28394  -0.28007  -0.27915  -0.27530  -0.27513
 Alpha  occ. eigenvalues --   -0.27217  -0.27063  -0.23133  -0.22860
 Alpha virt. eigenvalues --   -0.09146  -0.07306  -0.01879  -0.01448   0.00045
 Alpha virt. eigenvalues --    0.01065   0.02701   0.03420   0.03575   0.04834
 Alpha virt. eigenvalues --    0.05738   0.06013   0.07083   0.07544   0.08853

 Mulliken charges:
               1
     1  Mg   0.815375
     2  C    0.060535
     3  C   -0.171868
     4  C   -0.115071
     5  C   -0.150642
     6  N   -0.649183
     7  C    0.278440
     8  C   -0.172968
     9  C   -0.125367
    10  C    0.352436
    11  C   -0.298749
    12  C   -0.159018
    13  C   -0.279441
    14  C    0.598893
    15  O   -0.431936
    16  O   -0.480516
    17  N   -0.711070
    18  C    0.328207
    19  C    0.074490
    20  C   -0.044791
    21  C    0.335889
    22  C   -0.380718
    23  C    0.210959
    24  O   -0.420737
    25  N   -0.684333
    26  C    0.273687
    27  C   -0.021384
    28  C    0.057573
    29  C    0.299898
    30  C    0.235491
    31  C   -0.263816
    32  C   -0.310813
    33  N   -0.721786
    34  C    0.260936
    35  C    0.008361
    36  C    0.066402
    37  C    0.357335
    38  C   -0.356766
    39  C    0.309376
    40  O   -0.510712
    41  C   -0.315651
    42  C    0.641479
    43  O   -0.520808
    44  O   -0.395545
    45  C   -0.084397
    46  C   -0.043742
    47  C   -0.107777
    48  C    0.122937
    49  C   -0.366560
    50  C   -0.229304
    51  C   -0.186221
    52  C   -0.159310
    53  C   -0.049447
    54  C   -0.308890
    55  C   -0.151620
    56  C   -0.183408
    57  C   -0.155027
    58  C   -0.064605
    59  C   -0.310089
    60  C   -0.162941
    61  C   -0.186716
    62  C   -0.159411
    63  C   -0.065527
    64  C   -0.286942
    65  C   -0.311587
    66  H    0.049987
    67  H    0.092935
    68  H    0.086744
    69  H    0.138572
    70  H    0.116174
    71  H    0.082489
    72  H    0.107366
    73  H    0.139951
    74  H    0.104488
    75  H    0.105632
    76  H    0.142123
    77  H    0.106286
    78  H    0.119189
    79  H    0.154415
    80  H    0.136874
    81  H    0.106374
    82  H    0.111203
    83  H    0.127503
    84  H    0.129182
    85  H    0.118236
    86  H    0.051445
    87  H    0.140867
    88  H    0.164937
    89  H    0.102969
    90  H    0.172637
    91  H    0.118438
    92  H    0.124651
    93  H    0.085299
    94  H    0.144019
    95  H    0.125989
    96  H    0.116669
    97  H    0.083674
    98  H    0.107790
    99  H    0.110065
   100  H    0.087633
   101  H    0.089355
   102  H    0.088254
   103  H    0.087277
   104  H    0.101029
   105  H    0.098344
   106  H    0.082442
   107  H    0.066918
   108  H    0.089028
   109  H    0.071434
   110  H    0.089521
   111  H    0.077661
   112  H    0.099507
   113  H    0.044338
   114  H    0.112286
   115  H    0.108982
   116  H    0.097792
   117  H    0.090515
   118  H    0.078743
   119  H    0.098030
   120  H    0.076452
   121  H    0.074770
   122  H    0.099376
   123  H    0.096571
   124  H    0.105942
   125  H    0.067779
   126  H    0.112503
   127  H    0.097593
   128  H    0.112875
   129  H    0.071207
   130  H    0.109531
   131  H    0.122173
   132  H    0.126517
   133  O   -0.446746
   134  H    0.067705
 Sum of Mulliken charges =   0.00000

 Dipole moment (field-independent basis, Debye):
    X=              3.8389    Y=             -3.4881    Z=             -1.4685  Tot=              5.3908
 Quadrupole moment (field-independent basis, Debye-Ang):
   XX=           -365.7712   YY=           -443.8315   ZZ=           -393.7347
   XY=            -14.4983   XZ=             30.3645   YZ=            -30.4998

 Normal termination of Gaussian 09 at Sat Oct  5 07:23:58 2019.
