 Gaussian 09, Revision D.01,
 Gaussian 09:  ES64L-G09RevD.01 24-Apr-2013

 ----------------------------------------------------------------------
 # td=(NStates=1) iop(3/107=0140000000,3/108=0140000000) iop(3/107=0140
 000000,3/108=0140000000) CAM-B3LYP/6-31G(d,p)
 ----------------------------------------------------------------------

 --
 TD
 --
 Symbolic Z-matrix:
 Charge =  0 Multiplicity = 1

                         Standard orientation:
 ---------------------------------------------------------------------
 Center     Atomic      Atomic             Coordinates (Angstroms)
 Number     Number       Type             X           Y           Z
 ---------------------------------------------------------------------
      1         12           0       -5.759315    1.161531    0.278212
      2          6           0       -4.949660   -2.207843   -0.413446
      3          6           0       -3.619382    1.129576    2.912129
      4          6           0       -6.467031    4.537968    0.652719
      5          6           0       -7.947549    1.025512   -2.394416
      6          7           0       -4.389190   -0.290058    1.089864
      7          6           0       -4.267067   -1.631728    0.655550
      8          6           0       -3.195610   -2.301281    1.559874
      9          6           0       -2.952895   -1.298460    2.669064
     10          6           0       -3.706962   -0.024896    2.173841
     11          6           0       -3.463378   -1.907764    3.931259
     12          6           0       -1.905395   -2.563983    0.656538
     13          6           0       -0.809140   -3.385740    1.406320
     14          6           0        0.368101   -3.815756    0.539516
     15          8           0        0.491334   -3.273451   -0.535497
     16          8           0        1.102515   -4.719314    1.191506
     17          7           0       -5.187411    2.569929    1.607528
     18          6           0       -4.233960    2.351983    2.650150
     19          6           0       -4.026784    3.614153    3.242648
     20          6           0       -4.783794    4.594828    2.631329
     21          6           0       -5.575830    3.819987    1.579025
     22          6           0       -3.017617    3.822858    4.379465
     23          6           0       -4.890902    6.057535    2.880270
     24          8           0       -4.318012    6.610687    3.846223
     25          7           0       -7.002882    2.519708   -0.681363
     26          6           0       -7.200891    3.870576   -0.407922
     27          6           0       -7.966014    4.526141   -1.323414
     28          6           0       -8.530205    3.517512   -2.186306
     29          6           0       -7.808727    2.345006   -1.775095
     30          6           0       -8.404668    5.967321   -1.227801
     31          6           0       -9.330829    3.777557   -3.355521
     32          6           0       -8.682331    3.830118   -4.746138
     33          7           0       -6.370025   -0.225679   -1.136137
     34          6           0       -7.331068   -0.160031   -2.116136
     35          6           0       -7.435557   -1.362731   -2.845222
     36          6           0       -6.642023   -2.266047   -2.089782
     37          6           0       -5.835596   -1.427240   -1.197590
     38          6           0       -8.454295   -1.675578   -3.925350
     39          6           0       -6.123496   -3.607741   -2.118006
     40          8           0       -6.361010   -4.637096   -2.685850
     41          6           0       -4.915408   -3.585748   -0.900493
     42          6           0       -5.196623   -4.604199    0.069765
     43          8           0       -5.565384   -4.334633    1.216204
     44          8           0       -4.950671   -5.918117   -0.369831
     45          6           0       -5.157584   -6.968828    0.506375
     46          6           0        2.347548   -4.992557    0.638078
     47          6           0        3.363702   -3.921932    1.035254
     48          6           0        4.072600   -3.124942    0.238384
     49          6           0        3.857169   -3.042931   -1.333620
     50          6           0        5.115873   -2.247050    0.765437
     51          6           0        6.496889   -2.593769    0.114416
     52          6           0        7.677814   -1.739783    0.597380
     53          6           0        9.022238   -1.897267    0.050941
     54          6           0        9.764850   -3.280645    0.393419
     55          6           0        9.951712   -0.744614    0.488590
     56          6           0       11.344698   -0.720599   -0.166747
     57          6           0       12.290085    0.385895    0.223473
     58          6           0       13.710493    0.507887   -0.467136
     59          6           0       14.635190   -0.687548   -0.124854
     60          6           0       14.377790    1.880014   -0.126092
     61          6           0       15.537484    2.133898   -1.104865
     62          6           0       16.146543    3.527091   -0.817330
     63          6           0       17.436806    3.859545   -1.533433
     64          6           0       17.269453    3.912159   -2.901280
     65          6           0       18.058494    5.059482   -0.813374
     66          1           0       -2.914160    1.211287    3.744180
     67          1           0       -6.515492    5.738891    0.897660
     68          1           0       -8.478812    1.136834   -3.257720
     69          1           0       -3.483469   -3.221550    1.922923
     70          1           0       -1.879549   -1.058659    2.949471
     71          1           0       -2.946035   -2.792955    4.251011
     72          1           0       -3.536682   -1.080617    4.852894
     73          1           0       -4.639450   -2.158335    4.001552
     74          1           0       -2.409326   -3.202567   -0.139228
     75          1           0       -1.344047   -1.766611    0.245509
     76          1           0       -0.287982   -2.921004    2.207744
     77          1           0       -1.309285   -4.234544    1.935067
     78          1           0       -2.176585    3.426978    4.123328
     79          1           0       -3.015790    4.931237    4.770730
     80          1           0       -3.449600    3.009560    5.211587
     81          1           0       -5.577674    6.699107    2.258735
     82          1           0      -10.300612    3.000661   -3.271527
     83          1           0      -10.084301    4.589457   -3.061405
     84          1           0       -9.342457    3.904869   -5.703038
     85          1           0       -8.070390    4.704675   -5.062006
     86          1           0       -8.083244    2.951588   -4.737069
     87          1           0       -8.265029   -1.108899   -4.847729
     88          1           0       -8.290245   -2.687087   -4.043919
     89          1           0       -9.526425   -1.345116   -3.545549
     90          1           0       -4.047063   -3.795044   -1.573002
     91          1           0        2.776269   -5.994158    1.075853
     92          1           0        2.182225   -4.934955   -0.442917
     93          1           0        3.396829   -3.950968    2.117625
     94          1           0        2.852885   -3.218304   -1.709500
     95          1           0        3.937815   -2.099555   -1.654220
     96          1           0        4.453975   -3.744511   -1.940654
     97          1           0        4.695685   -1.258714    0.360131
     98          1           0        5.233957   -2.366924    1.829539
     99          1           0        6.729460   -3.734627    0.258759
    100          1           0        6.468850   -2.389218   -0.918553
    101          1           0        7.201371   -0.871774    0.408920
    102          1           0        7.666131   -1.682947    1.692602
    103          1           0        8.932550   -1.886764   -1.033525
    104          1           0        9.052367   -4.149924    0.324483
    105          1           0       10.731776   -3.676202   -0.085478
    106          1           0        9.893659   -3.282933    1.456857
    107          1           0        9.672086    0.316807    0.175662
    108          1           0       10.165324   -0.785070    1.673481
    109          1           0       11.861546   -1.752505    0.239929
    110          1           0       11.406895   -0.608999   -1.248104
    111          1           0       11.682266    1.345077    0.083237
    112          1           0       12.584166    0.347211    1.235732
    113          1           0       13.424763    0.363093   -1.476105
    114          1           0       14.822843   -0.594485    0.988104
    115          1           0       13.985791   -1.712551   -0.131341
    116          1           0       15.597100   -0.743187   -0.942692
    117          1           0       13.733417    2.597562   -0.435070
    118          1           0       14.569383    1.930040    0.881893
    119          1           0       16.316765    1.348613   -0.885337
    120          1           0       15.266573    2.031951   -2.241534
    121          1           0       15.417228    4.267835   -1.281829
    122          1           0       16.228686    3.846490    0.328144
    123          1           0       18.130083    3.087224   -1.511679
    124          1           0       16.661474    4.722790   -3.382253
    125          1           0       18.129991    4.098520   -3.679539
    126          1           0       16.832207    3.022688   -3.314713
    127          1           0       18.037769    4.846269    0.122597
    128          1           0       18.887179    5.589789   -1.357340
    129          1           0       17.071381    5.759800   -0.817702
    130          1           0       -4.505356   -7.699650    0.201364
    131          1           0       -6.314467   -7.110013    0.575641
    132          1           0       -4.913689   -6.687892    1.636701
    133          8           0       -7.940717    6.729386   -0.425610
    134          1           0       -8.993184    6.275318   -2.081346
 ---------------------------------------------------------------------

 SCF Done:  E(RCAM-B3LYP) =  -3043.47080015     A.U. after   16 cycles

 Excitation energies and oscillator strengths:

 Excited State   1:      Singlet-A      2.0181 eV  614.37 nm  f=0.1488  <S**2>=0.000
     243 -> 246        0.25183
     244 -> 245        0.64588
 This state for optimization and/or second-order correction.
 Total Energy, E(TD-HF/TD-KS) =  -3043.39663714
 Copying the excited state density for this state as the 1-particle RhoCI density.

 The electronic state is 1-A.
 Alpha  occ. eigenvalues --  -46.81980 -19.23430 -19.21656 -19.18530 -19.17799
 Alpha  occ. eigenvalues --  -19.17533 -19.17044 -19.16841 -14.39139 -14.37035
 Alpha  occ. eigenvalues --  -14.36842 -14.36787 -10.35173 -10.34961 -10.32548
 Alpha  occ. eigenvalues --  -10.30798 -10.30718 -10.28165 -10.28020 -10.27686
 Alpha  occ. eigenvalues --  -10.27053 -10.26763 -10.26743 -10.26518 -10.26376
 Alpha  occ. eigenvalues --  -10.25917 -10.25868 -10.25865 -10.25568 -10.25270
 Alpha  occ. eigenvalues --  -10.24549 -10.24547 -10.24171 -10.24155 -10.24076
 Alpha  occ. eigenvalues --  -10.23890 -10.23708 -10.23477 -10.23408 -10.23400
 Alpha  occ. eigenvalues --  -10.23339 -10.23317 -10.23141 -10.23027 -10.22894
 Alpha  occ. eigenvalues --  -10.22849 -10.22784 -10.22682 -10.22568 -10.22403
 Alpha  occ. eigenvalues --  -10.22359 -10.22191 -10.21850 -10.21796 -10.21741
 Alpha  occ. eigenvalues --  -10.21393 -10.21153 -10.21124 -10.21104 -10.20400
 Alpha  occ. eigenvalues --  -10.20169 -10.19803 -10.19689 -10.19650 -10.19528
 Alpha  occ. eigenvalues --  -10.19480  -3.10453  -1.85404  -1.84912  -1.84862
 Alpha  occ. eigenvalues --   -1.15211  -1.11978  -1.08823  -1.08429  -1.06524
 Alpha  occ. eigenvalues --   -1.04628  -1.04340  -1.01649  -1.00188  -0.99625
 Alpha  occ. eigenvalues --   -0.98868  -0.88995  -0.86570  -0.86386  -0.85372
 Alpha  occ. eigenvalues --   -0.85318  -0.84888  -0.84743  -0.84247  -0.83772
 Alpha  occ. eigenvalues --   -0.83315  -0.82350  -0.81644  -0.80288  -0.79794
 Alpha  occ. eigenvalues --   -0.79127  -0.78241  -0.77468  -0.77071  -0.76567
 Alpha  occ. eigenvalues --   -0.75026  -0.74766  -0.73703  -0.72719  -0.72676
 Alpha  occ. eigenvalues --   -0.72497  -0.72002  -0.70569  -0.69940  -0.69506
 Alpha  occ. eigenvalues --   -0.69443  -0.69154  -0.67648  -0.67082  -0.66182
 Alpha  occ. eigenvalues --   -0.65750  -0.64764  -0.64387  -0.62457  -0.62249
 Alpha  occ. eigenvalues --   -0.61696  -0.61015  -0.60492  -0.59454  -0.59256
 Alpha  occ. eigenvalues --   -0.58763  -0.58472  -0.58184  -0.58043  -0.57258
 Alpha  occ. eigenvalues --   -0.56789  -0.56345  -0.55881  -0.55326  -0.54512
 Alpha  occ. eigenvalues --   -0.54106  -0.53456  -0.52973  -0.52580  -0.52363
 Alpha  occ. eigenvalues --   -0.52003  -0.51713  -0.51458  -0.50944  -0.50789
 Alpha  occ. eigenvalues --   -0.50474  -0.50222  -0.49801  -0.49648  -0.49448
 Alpha  occ. eigenvalues --   -0.48967  -0.48928  -0.48720  -0.48388  -0.48046
 Alpha  occ. eigenvalues --   -0.47993  -0.47797  -0.47197  -0.47021  -0.46922
 Alpha  occ. eigenvalues --   -0.46718  -0.46618  -0.46443  -0.45968  -0.45850
 Alpha  occ. eigenvalues --   -0.45590  -0.45532  -0.45313  -0.45225  -0.45054
 Alpha  occ. eigenvalues --   -0.44687  -0.44362  -0.44207  -0.44072  -0.43781
 Alpha  occ. eigenvalues --   -0.43674  -0.43584  -0.43398  -0.43231  -0.43062
 Alpha  occ. eigenvalues --   -0.42885  -0.42548  -0.42422  -0.42169  -0.41882
 Alpha  occ. eigenvalues --   -0.41600  -0.41526  -0.41199  -0.40969  -0.40787
 Alpha  occ. eigenvalues --   -0.40598  -0.40499  -0.40412  -0.40169  -0.40111
 Alpha  occ. eigenvalues --   -0.39973  -0.39671  -0.39579  -0.39360  -0.39127
 Alpha  occ. eigenvalues --   -0.39007  -0.38831  -0.38616  -0.38283  -0.38014
 Alpha  occ. eigenvalues --   -0.37818  -0.37568  -0.37318  -0.37045  -0.37019
 Alpha  occ. eigenvalues --   -0.36768  -0.36509  -0.36302  -0.35756  -0.35521
 Alpha  occ. eigenvalues --   -0.35434  -0.34956  -0.34909  -0.34346  -0.34106
 Alpha  occ. eigenvalues --   -0.34072  -0.33654  -0.33565  -0.33259  -0.33229
 Alpha  occ. eigenvalues --   -0.32286  -0.31942  -0.31761  -0.31705  -0.31451
 Alpha  occ. eigenvalues --   -0.31402  -0.30768  -0.30571  -0.30511  -0.30263
 Alpha  occ. eigenvalues --   -0.28950  -0.28319  -0.28247  -0.27836  -0.27694
 Alpha  occ. eigenvalues --   -0.27424  -0.27392  -0.23313  -0.21593
 Alpha virt. eigenvalues --   -0.08649  -0.07232  -0.02292  -0.00694   0.00516
 Alpha virt. eigenvalues --    0.02140   0.03481   0.04104   0.04256   0.04690
 Alpha virt. eigenvalues --    0.05195   0.05581   0.08051   0.08332   0.09149

 Mulliken charges:
               1
     1  Mg   0.823127
     2  C    0.123982
     3  C   -0.182502
     4  C   -0.170063
     5  C   -0.160497
     6  N   -0.658836
     7  C    0.299121
     8  C   -0.148078
     9  C   -0.128409
    10  C    0.388701
    11  C   -0.311315
    12  C   -0.161390
    13  C   -0.280935
    14  C    0.609348
    15  O   -0.461743
    16  O   -0.428505
    17  N   -0.738109
    18  C    0.320267
    19  C    0.021798
    20  C   -0.034592
    21  C    0.325517
    22  C   -0.359300
    23  C    0.232007
    24  O   -0.430683
    25  N   -0.674104
    26  C    0.275949
    27  C   -0.035879
    28  C    0.039071
    29  C    0.284717
    30  C    0.264170
    31  C   -0.269791
    32  C   -0.303190
    33  N   -0.702358
    34  C    0.327408
    35  C    0.015933
    36  C   -0.000875
    37  C    0.276301
    38  C   -0.362179
    39  C    0.338987
    40  O   -0.426761
    41  C   -0.382605
    42  C    0.654065
    43  O   -0.480570
    44  O   -0.458885
    45  C   -0.074276
    46  C   -0.014268
    47  C   -0.153364
    48  C    0.146319
    49  C   -0.388066
    50  C   -0.225937
    51  C   -0.189517
    52  C   -0.164237
    53  C   -0.040384
    54  C   -0.335419
    55  C   -0.155907
    56  C   -0.167243
    57  C   -0.180393
    58  C   -0.070894
    59  C   -0.294897
    60  C   -0.149567
    61  C   -0.192118
    62  C   -0.180725
    63  C   -0.021454
    64  C   -0.318034
    65  C   -0.293192
    66  H    0.087234
    67  H    0.145817
    68  H    0.074462
    69  H    0.129967
    70  H    0.105018
    71  H    0.123483
    72  H    0.071415
    73  H    0.109229
    74  H    0.099719
    75  H    0.126394
    76  H    0.132537
    77  H    0.114785
    78  H    0.135750
    79  H    0.158578
    80  H    0.086950
    81  H    0.093700
    82  H    0.084908
    83  H    0.107845
    84  H    0.106418
    85  H    0.121311
    86  H    0.118646
    87  H    0.131946
    88  H    0.152975
    89  H    0.124625
    90  H    0.167601
    91  H    0.111841
    92  H    0.120089
    93  H    0.081496
    94  H    0.138892
    95  H    0.117594
    96  H    0.119454
    97  H    0.098844
    98  H    0.105227
    99  H    0.080338
   100  H    0.106331
   101  H    0.108056
   102  H    0.077781
   103  H    0.086958
   104  H    0.090863
   105  H    0.112215
   106  H    0.107573
   107  H    0.080654
   108  H    0.075190
   109  H    0.064380
   110  H    0.090252
   111  H    0.068443
   112  H    0.084173
   113  H    0.082075
   114  H    0.096367
   115  H    0.083474
   116  H    0.087384
   117  H    0.105528
   118  H    0.100204
   119  H    0.089861
   120  H    0.091506
   121  H    0.088949
   122  H    0.071783
   123  H    0.096673
   124  H    0.082030
   125  H    0.078376
   126  H    0.104239
   127  H    0.114228
   128  H    0.101567
   129  H    0.064182
   130  H    0.129868
   131  H    0.116712
   132  H    0.102327
   133  O   -0.403910
   134  H    0.073877
 Sum of Mulliken charges =   0.00000

 Dipole moment (field-independent basis, Debye):
    X=              1.3105    Y=             -3.5464    Z=             -2.6101  Tot=              4.5942
 Quadrupole moment (field-independent basis, Debye-Ang):
   XX=           -383.8715   YY=           -442.5566   ZZ=           -391.6565
   XY=             -3.3206   XZ=             31.7700   YZ=            -38.5668

 Normal termination of Gaussian 09 at Mon Oct  7 08:46:40 2019.
