 Gaussian 09, Revision D.01,
 Gaussian 09:  ES64L-G09RevD.01 24-Apr-2013

 ----------------------------------------------------------------------
 # td=(NStates=1) iop(3/107=0140000000,3/108=0140000000) iop(3/107=0140
 000000,3/108=0140000000) CAM-B3LYP/6-31G(d,p)
 ----------------------------------------------------------------------

 --
 TD
 --
 Symbolic Z-matrix:
 Charge =  0 Multiplicity = 1

                         Standard orientation:
 ---------------------------------------------------------------------
 Center     Atomic      Atomic             Coordinates (Angstroms)
 Number     Number       Type             X           Y           Z
 ---------------------------------------------------------------------
      1         12           0       -5.652290    1.299718    0.190735
      2          6           0       -4.994072   -2.122129   -0.304457
      3          6           0       -3.264451    1.138910    2.694437
      4          6           0       -6.134938    4.581918    0.602010
      5          6           0       -7.934732    1.220547   -2.461558
      6          7           0       -4.319309   -0.176408    0.900749
      7          6           0       -4.189437   -1.544548    0.609674
      8          6           0       -3.300345   -2.351209    1.436220
      9          6           0       -2.966271   -1.345518    2.575774
     10          6           0       -3.609280   -0.095439    2.028729
     11          6           0       -3.459998   -1.739987    4.044730
     12          6           0       -1.997269   -2.599528    0.613364
     13          6           0       -1.005468   -3.518562    1.497355
     14          6           0        0.331144   -3.808945    0.724694
     15          8           0        0.408797   -3.521502   -0.374225
     16          8           0        1.084671   -4.736381    1.469686
     17          7           0       -4.894282    2.660693    1.435823
     18          6           0       -4.006458    2.391312    2.472839
     19          6           0       -3.798569    3.560169    3.169381
     20          6           0       -4.558585    4.605687    2.642483
     21          6           0       -5.251964    4.001408    1.575147
     22          6           0       -2.819769    3.852196    4.353288
     23          6           0       -4.714880    6.008051    3.062073
     24          8           0       -3.941882    6.573855    3.816808
     25          7           0       -6.931174    2.526220   -0.619659
     26          6           0       -6.929404    3.955458   -0.392291
     27          6           0       -7.894770    4.571311   -1.202534
     28          6           0       -8.482768    3.636125   -2.143502
     29          6           0       -7.750967    2.475896   -1.797279
     30          6           0       -8.327440    5.943479   -1.141986
     31          6           0       -9.475212    3.789412   -3.104666
     32          6           0       -8.865007    4.110706   -4.572278
     33          7           0       -6.317992   -0.078414   -1.143368
     34          6           0       -7.347251   -0.023277   -2.085928
     35          6           0       -7.640865   -1.354993   -2.668554
     36          6           0       -6.606325   -2.165618   -2.036060
     37          6           0       -5.917884   -1.355105   -1.116738
     38          6           0       -8.501462   -1.746458   -3.819204
     39          6           0       -6.202070   -3.509996   -2.050453
     40          8           0       -6.426851   -4.555643   -2.669529
     41          6           0       -5.027695   -3.527708   -0.916989
     42          6           0       -5.417785   -4.689413    0.067546
     43          8           0       -5.888913   -4.483232    1.148670
     44          8           0       -5.011285   -5.856101   -0.418647
     45          6           0       -5.358303   -6.991425    0.426539
     46          6           0        2.376631   -5.157294    0.770104
     47          6           0        3.398501   -4.100593    1.204647
     48          6           0        4.004748   -3.391544    0.335597
     49          6           0        3.707104   -3.373827   -1.195419
     50          6           0        5.173581   -2.558242    0.700239
     51          6           0        6.562923   -2.853692    0.011430
     52          6           0        7.611651   -1.801116    0.483235
     53          6           0        9.064466   -2.034046   -0.152357
     54          6           0        9.629929   -3.449803    0.217913
     55          6           0        9.943691   -0.899421    0.426644
     56          6           0       11.384870   -0.689857   -0.387348
     57          6           0       12.165064    0.474970    0.029792
     58          6           0       13.591968    0.517716   -0.747548
     59          6           0       14.371415   -0.785820   -0.519101
     60          6           0       14.340641    1.788401   -0.264613
     61          6           0       15.534812    2.165257   -1.046970
     62          6           0       16.047594    3.503488   -0.583265
     63          6           0       17.402689    3.948480   -1.275363
     64          6           0       17.228466    4.208855   -2.844722
     65          6           0       17.825547    5.204268   -0.542549
     66          1           0       -2.718296    1.128343    3.407846
     67          1           0       -6.414902    5.525296    0.840295
     68          1           0       -8.511482    1.237157   -3.207092
     69          1           0       -3.626077   -3.266279    1.920626
     70          1           0       -1.902161   -1.470838    2.612997
     71          1           0       -3.384536   -3.025880    4.271885
     72          1           0       -3.084349   -1.146646    4.788871
     73          1           0       -4.553331   -1.589260    3.909297
     74          1           0       -2.099788   -3.260022   -0.311512
     75          1           0       -1.455289   -1.777584    0.030014
     76          1           0       -0.852456   -3.096577    2.603072
     77          1           0       -1.520434   -4.425120    1.756465
     78          1           0       -1.620375    3.629385    4.156358
     79          1           0       -2.820077    4.910231    4.786850
     80          1           0       -3.235088    3.499384    5.159006
     81          1           0       -5.690755    6.538057    2.650247
     82          1           0      -10.078192    2.988628   -3.342939
     83          1           0      -10.113255    4.644605   -2.744093
     84          1           0       -9.473951    4.289076   -5.322490
     85          1           0       -8.263453    4.969972   -4.538306
     86          1           0       -8.161440    3.437573   -4.859905
     87          1           0       -8.159143   -1.118122   -4.779650
     88          1           0       -8.479192   -2.900906   -4.158597
     89          1           0       -9.347077   -1.359421   -3.487074
     90          1           0       -4.068584   -3.735776   -1.244812
     91          1           0        2.503799   -6.092039    1.214063
     92          1           0        2.098083   -5.173758   -0.275540
     93          1           0        3.642825   -4.242938    2.153646
     94          1           0        2.621214   -3.693943   -1.318827
     95          1           0        3.933516   -2.420420   -1.595957
     96          1           0        4.250872   -4.132070   -1.904332
     97          1           0        5.037622   -1.492643    0.599473
     98          1           0        5.371942   -2.441635    1.781164
     99          1           0        7.071263   -3.792778    0.499402
    100          1           0        6.403045   -2.847873   -1.103189
    101          1           0        7.252182   -0.701120    0.166591
    102          1           0        7.690636   -1.743517    1.395028
    103          1           0        8.911366   -1.901030   -1.352500
    104          1           0        8.905328   -4.252469    0.036934
    105          1           0       10.595411   -3.497193   -0.180673
    106          1           0        9.811157   -3.461953    1.253930
    107          1           0        9.369722    0.036541    0.270580
    108          1           0       10.214313   -0.897879    1.409607
    109          1           0       11.756585   -1.771342   -0.491132
    110          1           0       11.122570   -0.451542   -1.466651
    111          1           0       11.495007    1.360598   -0.256733
    112          1           0       12.532073    0.340625    1.135685
    113          1           0       13.309867    0.528374   -1.800840
    114          1           0       14.352539   -0.975579    0.601184
    115          1           0       14.149587   -1.898910   -0.795107
    116          1           0       15.520287   -0.541131   -0.892253
    117          1           0       13.612444    2.759028   -0.335739
    118          1           0       14.457679    1.662065    0.782229
    119          1           0       16.367044    1.399534   -0.988112
    120          1           0       15.146407    2.198782   -2.104758
    121          1           0       15.107823    4.358973   -0.572403
    122          1           0       16.164057    3.419449    0.612164
    123          1           0       18.004110    3.086492   -1.334005
    124          1           0       16.564433    4.812143   -3.080292
    125          1           0       18.077123    4.411440   -3.196742
    126          1           0       16.741867    3.421407   -3.349062
    127          1           0       18.054644    5.037706    0.459971
    128          1           0       18.817499    5.426052   -1.157586
    129          1           0       17.070556    5.891176   -0.857433
    130          1           0       -5.135727   -7.887039   -0.020938
    131          1           0       -6.380032   -6.849961    0.707803
    132          1           0       -4.918955   -6.991344    1.376232
    133          8           0       -7.896826    6.894964   -0.461423
    134          1           0       -9.269469    6.314072   -1.729522
 ---------------------------------------------------------------------

 SCF Done:  E(RCAM-B3LYP) =  -3043.31882070     A.U. after   16 cycles

 Excitation energies and oscillator strengths:

 Excited State   1:      Singlet-A      1.9419 eV  638.45 nm  f=0.1426  <S**2>=0.000
     243 -> 245        0.15131
     243 -> 246        0.24677
     244 -> 245        0.62949
     244 -> 246       -0.10107
 This state for optimization and/or second-order correction.
 Total Energy, E(TD-HF/TD-KS) =  -3043.24745549
 Copying the excited state density for this state as the 1-particle RhoCI density.

 The electronic state is 1-A.
 Alpha  occ. eigenvalues --  -46.80281 -19.22777 -19.20836 -19.18856 -19.17349
 Alpha  occ. eigenvalues --  -19.16670 -19.16553 -19.16178 -14.39508 -14.37050
 Alpha  occ. eigenvalues --  -14.36849 -14.36315 -10.34995 -10.34420 -10.31119
 Alpha  occ. eigenvalues --  -10.30779 -10.30126 -10.28057 -10.27140 -10.26997
 Alpha  occ. eigenvalues --  -10.26931 -10.26607 -10.26518 -10.26500 -10.26451
 Alpha  occ. eigenvalues --  -10.26355 -10.25857 -10.25838 -10.25054 -10.24363
 Alpha  occ. eigenvalues --  -10.24214 -10.24186 -10.24114 -10.24042 -10.23923
 Alpha  occ. eigenvalues --  -10.23826 -10.23788 -10.23739 -10.23645 -10.23339
 Alpha  occ. eigenvalues --  -10.23270 -10.23224 -10.23104 -10.22858 -10.22804
 Alpha  occ. eigenvalues --  -10.22782 -10.22685 -10.22425 -10.22157 -10.22120
 Alpha  occ. eigenvalues --  -10.22001 -10.21892 -10.21687 -10.21620 -10.21459
 Alpha  occ. eigenvalues --  -10.21256 -10.21243 -10.21107 -10.20846 -10.20450
 Alpha  occ. eigenvalues --  -10.20387 -10.20349 -10.20290 -10.20135 -10.19702
 Alpha  occ. eigenvalues --  -10.16493  -3.09178  -1.84082  -1.83696  -1.83583
 Alpha  occ. eigenvalues --   -1.14700  -1.13900  -1.06726  -1.05290  -1.05225
 Alpha  occ. eigenvalues --   -1.04940  -1.04506  -1.01230  -0.99647  -0.99142
 Alpha  occ. eigenvalues --   -0.97247  -0.87907  -0.86549  -0.86386  -0.85703
 Alpha  occ. eigenvalues --   -0.85058  -0.84261  -0.83831  -0.83362  -0.83238
 Alpha  occ. eigenvalues --   -0.82804  -0.82408  -0.80394  -0.80092  -0.79267
 Alpha  occ. eigenvalues --   -0.79127  -0.78301  -0.78026  -0.77514  -0.75828
 Alpha  occ. eigenvalues --   -0.75150  -0.74723  -0.73730  -0.73476  -0.73374
 Alpha  occ. eigenvalues --   -0.72476  -0.71691  -0.70829  -0.70562  -0.69697
 Alpha  occ. eigenvalues --   -0.69142  -0.68887  -0.68212  -0.67036  -0.66265
 Alpha  occ. eigenvalues --   -0.65656  -0.64136  -0.63908  -0.62346  -0.62200
 Alpha  occ. eigenvalues --   -0.61626  -0.61252  -0.59651  -0.59405  -0.59221
 Alpha  occ. eigenvalues --   -0.58839  -0.58708  -0.58329  -0.57900  -0.57820
 Alpha  occ. eigenvalues --   -0.56969  -0.56857  -0.55573  -0.54476  -0.54301
 Alpha  occ. eigenvalues --   -0.54255  -0.53601  -0.53335  -0.52425  -0.52224
 Alpha  occ. eigenvalues --   -0.51486  -0.51214  -0.51103  -0.50838  -0.50655
 Alpha  occ. eigenvalues --   -0.50544  -0.49933  -0.49887  -0.49801  -0.49265
 Alpha  occ. eigenvalues --   -0.49135  -0.48913  -0.48368  -0.48259  -0.47960
 Alpha  occ. eigenvalues --   -0.47577  -0.47337  -0.47271  -0.47139  -0.46931
 Alpha  occ. eigenvalues --   -0.46807  -0.46557  -0.46277  -0.46115  -0.45862
 Alpha  occ. eigenvalues --   -0.45688  -0.45447  -0.45299  -0.44916  -0.44792
 Alpha  occ. eigenvalues --   -0.44434  -0.44295  -0.43942  -0.43857  -0.43705
 Alpha  occ. eigenvalues --   -0.43534  -0.43239  -0.43161  -0.42926  -0.42802
 Alpha  occ. eigenvalues --   -0.42704  -0.42651  -0.42051  -0.42022  -0.41717
 Alpha  occ. eigenvalues --   -0.41704  -0.41495  -0.41309  -0.41166  -0.41080
 Alpha  occ. eigenvalues --   -0.40865  -0.40697  -0.40681  -0.40305  -0.40160
 Alpha  occ. eigenvalues --   -0.39883  -0.39802  -0.39468  -0.39362  -0.39173
 Alpha  occ. eigenvalues --   -0.38955  -0.38889  -0.38793  -0.38470  -0.38288
 Alpha  occ. eigenvalues --   -0.38201  -0.37839  -0.37426  -0.37086  -0.36993
 Alpha  occ. eigenvalues --   -0.36855  -0.36651  -0.36394  -0.36090  -0.35730
 Alpha  occ. eigenvalues --   -0.35644  -0.35340  -0.35069  -0.34910  -0.34581
 Alpha  occ. eigenvalues --   -0.34549  -0.34201  -0.33482  -0.33445  -0.33323
 Alpha  occ. eigenvalues --   -0.32827  -0.32657  -0.32458  -0.32412  -0.31639
 Alpha  occ. eigenvalues --   -0.31458  -0.30948  -0.30440  -0.29465  -0.29057
 Alpha  occ. eigenvalues --   -0.28287  -0.28266  -0.27821  -0.27725  -0.27283
 Alpha  occ. eigenvalues --   -0.26953  -0.26772  -0.22991  -0.21945
 Alpha virt. eigenvalues --   -0.09368  -0.07250  -0.01580  -0.00811   0.00768
 Alpha virt. eigenvalues --    0.03362   0.03974   0.04074   0.04421   0.04895
 Alpha virt. eigenvalues --    0.05019   0.05341   0.07518   0.08620   0.09605

 Mulliken charges:
               1
     1  Mg   0.824870
     2  C    0.098957
     3  C   -0.083875
     4  C   -0.154719
     5  C   -0.119965
     6  N   -0.593772
     7  C    0.278521
     8  C   -0.149862
     9  C   -0.143584
    10  C    0.321472
    11  C   -0.303910
    12  C   -0.204563
    13  C   -0.285720
    14  C    0.599172
    15  O   -0.389232
    16  O   -0.506619
    17  N   -0.716532
    18  C    0.294512
    19  C   -0.001010
    20  C    0.028296
    21  C    0.269246
    22  C   -0.383504
    23  C    0.235725
    24  O   -0.404015
    25  N   -0.689870
    26  C    0.319398
    27  C   -0.030794
    28  C    0.147616
    29  C    0.228885
    30  C    0.204034
    31  C   -0.281578
    32  C   -0.339802
    33  N   -0.709034
    34  C    0.244913
    35  C    0.043659
    36  C    0.022145
    37  C    0.317820
    38  C   -0.358807
    39  C    0.341953
    40  O   -0.482846
    41  C   -0.339741
    42  C    0.612164
    43  O   -0.470143
    44  O   -0.432416
    45  C   -0.097907
    46  C   -0.027294
    47  C   -0.097559
    48  C    0.172059
    49  C   -0.383919
    50  C   -0.257154
    51  C   -0.169917
    52  C   -0.159229
    53  C   -0.053747
    54  C   -0.323558
    55  C   -0.181704
    56  C   -0.185460
    57  C   -0.163647
    58  C   -0.064066
    59  C   -0.301518
    60  C   -0.154255
    61  C   -0.157487
    62  C   -0.150294
    63  C   -0.075107
    64  C   -0.314219
    65  C   -0.284664
    66  H    0.029924
    67  H    0.104989
    68  H    0.046975
    69  H    0.132366
    70  H    0.123297
    71  H    0.076646
    72  H    0.131450
    73  H    0.125422
    74  H    0.116251
    75  H    0.129283
    76  H    0.104843
    77  H    0.141965
    78  H    0.101682
    79  H    0.150433
    80  H    0.135456
    81  H    0.084301
    82  H    0.128947
    83  H    0.117658
    84  H    0.122642
    85  H    0.122605
    86  H    0.122376
    87  H    0.119066
    88  H    0.151279
    89  H    0.142650
    90  H    0.147859
    91  H    0.124995
    92  H    0.127767
    93  H    0.083282
    94  H    0.133381
    95  H    0.120919
    96  H    0.105108
    97  H    0.104841
    98  H    0.086376
    99  H    0.087809
   100  H    0.098221
   101  H    0.059354
   102  H    0.102961
   103  H    0.063686
   104  H    0.106097
   105  H    0.111008
   106  H    0.106938
   107  H    0.082721
   108  H    0.101450
   109  H    0.082063
   110  H    0.080066
   111  H    0.095186
   112  H    0.071610
   113  H    0.083653
   114  H    0.088858
   115  H    0.105095
   116  H    0.075275
   117  H    0.066400
   118  H    0.095491
   119  H    0.090596
   120  H    0.092152
   121  H    0.048075
   122  H    0.064523
   123  H    0.094455
   124  H    0.108170
   125  H    0.107982
   126  H    0.093999
   127  H    0.114438
   128  H    0.070341
   129  H    0.118204
   130  H    0.131996
   131  H    0.137408
   132  H    0.127659
   133  O   -0.443157
   134  H    0.055379
 Sum of Mulliken charges =   0.00000

 Dipole moment (field-independent basis, Debye):
    X=              2.0010    Y=             -5.3848    Z=             -1.1098  Tot=              5.8508
 Quadrupole moment (field-independent basis, Debye-Ang):
   XX=           -365.1241   YY=           -441.8971   ZZ=           -384.9267
   XY=              4.2655   XZ=             23.6536   YZ=            -34.5689

 Normal termination of Gaussian 09 at Mon Oct  7 10:55:46 2019.
