 Gaussian 09, Revision D.01,
 Gaussian 09:  ES64L-G09RevD.01 24-Apr-2013

 ----------------------------------------------------------------------
 # td=(NStates=1) iop(3/107=0140000000,3/108=0140000000) iop(3/107=0140
 000000,3/108=0140000000) CAM-B3LYP/6-31G(d,p)
 ----------------------------------------------------------------------

 --
 TD
 --
 Symbolic Z-matrix:
 Charge =  0 Multiplicity = 1

                         Standard orientation:
 ---------------------------------------------------------------------
 Center     Atomic      Atomic             Coordinates (Angstroms)
 Number     Number       Type             X           Y           Z
 ---------------------------------------------------------------------
      1         12           0       -5.707606    1.184011    0.137363
      2          6           0       -5.033687   -2.151627   -0.358885
      3          6           0       -3.495927    1.271461    2.735741
      4          6           0       -6.221966    4.617432    0.551689
      5          6           0       -8.049535    1.087726   -2.285621
      6          7           0       -4.516703   -0.335396    1.100009
      7          6           0       -4.269474   -1.513027    0.733760
      8          6           0       -3.229076   -2.333981    1.562208
      9          6           0       -2.911861   -1.191689    2.590370
     10          6           0       -3.672326    0.034792    2.116400
     11          6           0       -3.319876   -1.693929    4.072329
     12          6           0       -2.001383   -2.630239    0.622814
     13          6           0       -0.924254   -3.544986    1.476657
     14          6           0        0.359333   -3.868031    0.754803
     15          8           0        0.558031   -3.640534   -0.480091
     16          8           0        1.061419   -4.695059    1.523482
     17          7           0       -4.873946    2.713402    1.368470
     18          6           0       -3.972848    2.556240    2.442242
     19          6           0       -3.745295    3.777116    3.078209
     20          6           0       -4.505302    4.699294    2.389388
     21          6           0       -5.208193    4.035408    1.339896
     22          6           0       -2.716402    3.940428    4.184842
     23          6           0       -4.670468    6.127995    2.958250
     24          8           0       -4.094734    6.783909    3.711897
     25          7           0       -6.849213    2.642061   -0.837789
     26          6           0       -7.009694    3.958321   -0.470251
     27          6           0       -7.992204    4.607682   -1.260953
     28          6           0       -8.477923    3.653819   -2.117748
     29          6           0       -7.852125    2.415562   -1.730578
     30          6           0       -8.484077    6.001633   -1.049345
     31          6           0       -9.590623    3.667276   -3.197918
     32          6           0       -8.885792    3.756237   -4.539345
     33          7           0       -6.427869   -0.188419   -1.102034
     34          6           0       -7.395781   -0.085354   -2.056705
     35          6           0       -7.591079   -1.371171   -2.737977
     36          6           0       -6.712588   -2.185196   -2.113543
     37          6           0       -6.058533   -1.452556   -1.086619
     38          6           0       -8.504883   -1.805890   -3.793975
     39          6           0       -6.237619   -3.606929   -1.934603
     40          8           0       -6.540322   -4.591135   -2.561782
     41          6           0       -5.053707   -3.583376   -0.798590
     42          6           0       -5.329171   -4.699774    0.187725
     43          8           0       -5.735443   -4.531314    1.308752
     44          8           0       -4.906287   -5.839749   -0.239916
     45          6           0       -5.265215   -7.010600    0.559424
     46          6           0        2.289061   -5.070310    0.734923
     47          6           0        3.454792   -4.089607    1.044802
     48          6           0        4.070773   -3.318114    0.200427
     49          6           0        3.741671   -3.204657   -1.277426
     50          6           0        5.219656   -2.485941    0.739570
     51          6           0        6.536172   -2.735799   -0.046995
     52          6           0        7.682773   -1.777292    0.544623
     53          6           0        8.991794   -1.958010   -0.180464
     54          6           0        9.639754   -3.367801    0.049346
     55          6           0        9.944942   -0.853959    0.322301
     56          6           0       11.340095   -0.794725   -0.360643
     57          6           0       12.341775    0.322693    0.153055
     58          6           0       13.662839    0.431562   -0.521641
     59          6           0       14.604020   -0.800892   -0.199505
     60          6           0       14.392644    1.770565   -0.229544
     61          6           0       15.600264    2.118983   -1.097886
     62          6           0       16.094939    3.533890   -0.673014
     63          6           0       17.371755    3.852848   -1.326717
     64          6           0       17.156141    4.126622   -2.850754
     65          6           0       17.963562    5.290080   -0.724869
     66          1           0       -2.918721    1.278243    3.580792
     67          1           0       -6.529408    5.670183    0.841246
     68          1           0       -8.741231    1.014862   -3.186282
     69          1           0       -3.720303   -3.052558    2.096988
     70          1           0       -1.884237   -0.998469    2.512065
     71          1           0       -2.578649   -2.661219    4.120170
     72          1           0       -3.048494   -0.939297    4.741297
     73          1           0       -4.363738   -1.912567    4.003703
     74          1           0       -2.317783   -3.090016   -0.059172
     75          1           0       -1.573914   -1.570199    0.399107
     76          1           0       -0.872786   -3.229095    2.467520
     77          1           0       -1.442273   -4.374918    1.706745
     78          1           0       -1.644273    3.665876    3.872705
     79          1           0       -2.727146    5.025196    4.479794
     80          1           0       -3.043561    3.205999    5.030199
     81          1           0       -5.474497    6.591771    2.365085
     82          1           0      -10.295558    2.835553   -2.812902
     83          1           0      -10.063367    4.773798   -3.203479
     84          1           0       -9.527747    3.620211   -5.502671
     85          1           0       -8.213348    4.647230   -4.662406
     86          1           0       -8.334949    2.836886   -4.825836
     87          1           0       -8.365595   -1.215121   -4.585657
     88          1           0       -8.410352   -2.874342   -4.090605
     89          1           0       -9.577747   -1.622563   -3.393208
     90          1           0       -4.281660   -3.820025   -1.517088
     91          1           0        2.538044   -6.072136    1.231427
     92          1           0        1.871372   -5.202749   -0.369867
     93          1           0        3.654037   -4.041509    2.192873
     94          1           0        2.650682   -3.559040   -1.403607
     95          1           0        3.699591   -2.415685   -1.811035
     96          1           0        4.380108   -3.927052   -1.642650
     97          1           0        4.962770   -1.350820    0.413159
     98          1           0        5.354025   -2.551962    1.782287
     99          1           0        6.730955   -3.717100    0.105711
    100          1           0        6.496618   -2.538568   -1.087756
    101          1           0        7.211478   -0.851658    0.055148
    102          1           0        7.792531   -1.878524    1.449100
    103          1           0        8.716909   -1.823257   -1.327928
    104          1           0        8.995234   -4.073351   -0.333282
    105          1           0       10.720927   -3.411894   -0.323291
    106          1           0        9.672625   -3.605340    0.945065
    107          1           0        9.373961    0.088676    0.335714
    108          1           0       10.108128   -1.183576    1.424945
    109          1           0       11.932953   -1.602715   -0.266019
    110          1           0       11.228866   -0.736874   -1.415445
    111          1           0       11.755988    1.285000    0.066667
    112          1           0       12.629539    0.239069    1.245506
    113          1           0       13.592005    0.440676   -1.678472
    114          1           0       14.566010   -0.970769    0.945595
    115          1           0       14.040594   -1.619112   -0.714283
    116          1           0       15.693023   -0.622456   -0.781810
    117          1           0       13.584852    2.504035   -0.540172
    118          1           0       14.628939    1.889351    0.712714
    119          1           0       16.291562    1.399696   -0.934552
    120          1           0       15.160996    1.948865   -2.133740
    121          1           0       15.425095    4.277693   -1.093455
    122          1           0       16.117664    3.345900    0.679080
    123          1           0       18.092532    3.172399   -1.257521
    124          1           0       16.394835    5.080498   -2.908019
    125          1           0       18.064261    4.328995   -3.401112
    126          1           0       16.645102    3.197330   -3.139076
    127          1           0       18.216047    5.074779    0.351863
    128          1           0       19.017936    5.589967   -1.115849
    129          1           0       17.243639    6.142075   -0.785854
    130          1           0       -5.106449   -8.035847   -0.165797
    131          1           0       -6.350433   -6.977268    0.957286
    132          1           0       -4.526902   -6.935667    1.288789
    133          8           0       -8.019979    6.850221   -0.294518
    134          1           0       -9.152603    6.352917   -1.764086
 ---------------------------------------------------------------------

 SCF Done:  E(RCAM-B3LYP) =  -3043.38716834     A.U. after   15 cycles

 Excitation energies and oscillator strengths:

 Excited State   1:      Singlet-A      2.1002 eV  590.35 nm  f=0.1053  <S**2>=0.000
     243 -> 246       -0.34807
     244 -> 245        0.60186
 This state for optimization and/or second-order correction.
 Total Energy, E(TD-HF/TD-KS) =  -3043.30998758
 Copying the excited state density for this state as the 1-particle RhoCI density.

 The electronic state is 1-A.
 Alpha  occ. eigenvalues --  -46.82227 -19.23529 -19.23092 -19.18195 -19.17638
 Alpha  occ. eigenvalues --  -19.17296 -19.17289 -19.16234 -14.38894 -14.36798
 Alpha  occ. eigenvalues --  -14.36117 -14.36083 -10.35689 -10.34734 -10.32460
 Alpha  occ. eigenvalues --  -10.30122 -10.29811 -10.29660 -10.28747 -10.27700
 Alpha  occ. eigenvalues --  -10.27036 -10.26243 -10.26074 -10.25714 -10.25635
 Alpha  occ. eigenvalues --  -10.25484 -10.25459 -10.25186 -10.25177 -10.24813
 Alpha  occ. eigenvalues --  -10.24261 -10.24138 -10.24092 -10.23720 -10.23204
 Alpha  occ. eigenvalues --  -10.23142 -10.23087 -10.23075 -10.23041 -10.22974
 Alpha  occ. eigenvalues --  -10.22910 -10.22895 -10.22875 -10.22871 -10.22657
 Alpha  occ. eigenvalues --  -10.22624 -10.22496 -10.22301 -10.22199 -10.22198
 Alpha  occ. eigenvalues --  -10.22189 -10.22030 -10.21999 -10.21693 -10.21584
 Alpha  occ. eigenvalues --  -10.21167 -10.21075 -10.21053 -10.20974 -10.20355
 Alpha  occ. eigenvalues --  -10.20092 -10.20007 -10.19873 -10.19201 -10.18969
 Alpha  occ. eigenvalues --  -10.18328  -3.10632  -1.85586  -1.85098  -1.85030
 Alpha  occ. eigenvalues --   -1.15708  -1.13383  -1.10475  -1.08363  -1.06465
 Alpha  occ. eigenvalues --   -1.04925  -1.02744  -1.02599  -1.01374  -0.99678
 Alpha  occ. eigenvalues --   -0.98402  -0.87630  -0.86362  -0.85687  -0.85399
 Alpha  occ. eigenvalues --   -0.85064  -0.84651  -0.84422  -0.83954  -0.83152
 Alpha  occ. eigenvalues --   -0.83059  -0.82182  -0.81293  -0.79960  -0.79570
 Alpha  occ. eigenvalues --   -0.78900  -0.77981  -0.77578  -0.77007  -0.75979
 Alpha  occ. eigenvalues --   -0.75053  -0.74786  -0.74031  -0.72868  -0.72738
 Alpha  occ. eigenvalues --   -0.72022  -0.70892  -0.69541  -0.69330  -0.69196
 Alpha  occ. eigenvalues --   -0.69152  -0.68540  -0.67950  -0.67078  -0.65915
 Alpha  occ. eigenvalues --   -0.65440  -0.65342  -0.63949  -0.63134  -0.62709
 Alpha  occ. eigenvalues --   -0.61544  -0.61390  -0.60819  -0.59399  -0.59317
 Alpha  occ. eigenvalues --   -0.58887  -0.58701  -0.57831  -0.57402  -0.56833
 Alpha  occ. eigenvalues --   -0.56200  -0.56109  -0.55545  -0.55297  -0.54953
 Alpha  occ. eigenvalues --   -0.54462  -0.54027  -0.53308  -0.52629  -0.52473
 Alpha  occ. eigenvalues --   -0.52413  -0.51641  -0.51412  -0.50831  -0.50632
 Alpha  occ. eigenvalues --   -0.50459  -0.50107  -0.49749  -0.49463  -0.49113
 Alpha  occ. eigenvalues --   -0.48965  -0.48663  -0.48424  -0.48163  -0.48046
 Alpha  occ. eigenvalues --   -0.47605  -0.47484  -0.47339  -0.46900  -0.46753
 Alpha  occ. eigenvalues --   -0.46678  -0.46470  -0.46071  -0.45954  -0.45822
 Alpha  occ. eigenvalues --   -0.45634  -0.45403  -0.45248  -0.44990  -0.44753
 Alpha  occ. eigenvalues --   -0.44503  -0.44268  -0.44125  -0.43943  -0.43705
 Alpha  occ. eigenvalues --   -0.43453  -0.43284  -0.43146  -0.43106  -0.43004
 Alpha  occ. eigenvalues --   -0.42733  -0.42344  -0.42291  -0.42007  -0.42001
 Alpha  occ. eigenvalues --   -0.41775  -0.41632  -0.41425  -0.41145  -0.41116
 Alpha  occ. eigenvalues --   -0.41032  -0.40911  -0.40662  -0.40551  -0.40354
 Alpha  occ. eigenvalues --   -0.40260  -0.40199  -0.39625  -0.39455  -0.39379
 Alpha  occ. eigenvalues --   -0.39254  -0.38956  -0.38796  -0.38606  -0.38373
 Alpha  occ. eigenvalues --   -0.38287  -0.37589  -0.37536  -0.37351  -0.36890
 Alpha  occ. eigenvalues --   -0.36794  -0.36482  -0.36140  -0.35982  -0.35840
 Alpha  occ. eigenvalues --   -0.35664  -0.35633  -0.34900  -0.34876  -0.34494
 Alpha  occ. eigenvalues --   -0.34203  -0.34029  -0.33862  -0.33643  -0.33636
 Alpha  occ. eigenvalues --   -0.33152  -0.33026  -0.32130  -0.31866  -0.31609
 Alpha  occ. eigenvalues --   -0.31216  -0.30653  -0.30408  -0.30342  -0.29326
 Alpha  occ. eigenvalues --   -0.29019  -0.28593  -0.27970  -0.27851  -0.27646
 Alpha  occ. eigenvalues --   -0.27189  -0.26842  -0.22097  -0.21504
 Alpha virt. eigenvalues --   -0.07790  -0.06285  -0.01145  -0.00027   0.01574
 Alpha virt. eigenvalues --    0.02197   0.03344   0.03862   0.04218   0.04763
 Alpha virt. eigenvalues --    0.05301   0.05887   0.08018   0.08480   0.08881

 Mulliken charges:
               1
     1  Mg   0.831846
     2  C    0.035865
     3  C   -0.187901
     4  C   -0.178622
     5  C   -0.211093
     6  N   -0.600580
     7  C    0.303843
     8  C   -0.157493
     9  C   -0.176315
    10  C    0.325929
    11  C   -0.298873
    12  C   -0.114613
    13  C   -0.291908
    14  C    0.625530
    15  O   -0.504245
    16  O   -0.446321
    17  N   -0.708357
    18  C    0.301103
    19  C    0.068662
    20  C   -0.109453
    21  C    0.333735
    22  C   -0.377065
    23  C    0.279488
    24  O   -0.372282
    25  N   -0.668737
    26  C    0.279383
    27  C   -0.028893
    28  C    0.011324
    29  C    0.295124
    30  C    0.259287
    31  C   -0.230284
    32  C   -0.310563
    33  N   -0.748509
    34  C    0.301325
    35  C    0.020850
    36  C    0.023507
    37  C    0.308844
    38  C   -0.381120
    39  C    0.349795
    40  O   -0.435879
    41  C   -0.327157
    42  C    0.611239
    43  O   -0.489507
    44  O   -0.418457
    45  C   -0.083616
    46  C   -0.031610
    47  C   -0.152334
    48  C    0.161505
    49  C   -0.374721
    50  C   -0.217937
    51  C   -0.206700
    52  C   -0.137144
    53  C   -0.065038
    54  C   -0.309627
    55  C   -0.158696
    56  C   -0.180898
    57  C   -0.170574
    58  C   -0.069082
    59  C   -0.299794
    60  C   -0.159744
    61  C   -0.189325
    62  C   -0.113763
    63  C   -0.057891
    64  C   -0.301283
    65  C   -0.321182
    66  H    0.062544
    67  H    0.148863
    68  H    0.077916
    69  H    0.133164
    70  H    0.112803
    71  H    0.085491
    72  H    0.122683
    73  H    0.135802
    74  H    0.107819
    75  H    0.108821
    76  H    0.129064
    77  H    0.149494
    78  H    0.122370
    79  H    0.150454
    80  H    0.108485
    81  H    0.045113
    82  H    0.123644
    83  H    0.098399
    84  H    0.093240
    85  H    0.126543
    86  H    0.108051
    87  H    0.139709
    88  H    0.151048
    89  H    0.120096
    90  H    0.167208
    91  H    0.106277
    92  H    0.148603
    93  H    0.083017
    94  H    0.135693
    95  H    0.122370
    96  H    0.128954
    97  H    0.073645
    98  H    0.098603
    99  H    0.103863
   100  H    0.103900
   101  H    0.090999
   102  H    0.083691
   103  H    0.053523
   104  H    0.103839
   105  H    0.093169
   106  H    0.111470
   107  H    0.089277
   108  H    0.072138
   109  H    0.102791
   110  H    0.096299
   111  H    0.081795
   112  H    0.079412
   113  H    0.060875
   114  H    0.095105
   115  H    0.104009
   116  H    0.082313
   117  H    0.078011
   118  H    0.088636
   119  H    0.102035
   120  H    0.088320
   121  H    0.098182
   122  H    0.042396
   123  H    0.094662
   124  H    0.074701
   125  H    0.111528
   126  H    0.103035
   127  H    0.091620
   128  H    0.084446
   129  H    0.101549
   130  H    0.110793
   131  H    0.144670
   132  H    0.144288
   133  O   -0.418174
   134  H    0.071851
 Sum of Mulliken charges =   0.00000

 Dipole moment (field-independent basis, Debye):
    X=              1.2424    Y=             -6.3363    Z=             -1.2751  Tot=              6.5816
 Quadrupole moment (field-independent basis, Debye-Ang):
   XX=           -378.2063   YY=           -438.7628   ZZ=           -392.4791
   XY=              9.6956   XZ=             23.9280   YZ=            -32.8409

 Normal termination of Gaussian 09 at Mon Oct  7 12:51:20 2019.
