 Gaussian 09, Revision D.01,
 Gaussian 09:  ES64L-G09RevD.01 24-Apr-2013

 ----------------------------------------------------------------------
 # td=(NStates=1) iop(3/107=0140000000,3/108=0140000000) iop(3/107=0140
 000000,3/108=0140000000) CAM-B3LYP/6-31G(d,p)
 ----------------------------------------------------------------------

 --
 TD
 --
 Symbolic Z-matrix:
 Charge =  0 Multiplicity = 1

                         Standard orientation:
 ---------------------------------------------------------------------
 Center     Atomic      Atomic             Coordinates (Angstroms)
 Number     Number       Type             X           Y           Z
 ---------------------------------------------------------------------
      1         12           0       -5.633390    1.199451    0.240080
      2          6           0       -5.092393   -2.072912   -0.261968
      3          6           0       -3.377724    1.152508    2.790184
      4          6           0       -6.285236    4.582451    0.667415
      5          6           0       -8.075855    1.224138   -2.424161
      6          7           0       -4.314319   -0.317118    1.027266
      7          6           0       -4.241389   -1.630358    0.659043
      8          6           0       -3.167777   -2.278447    1.544276
      9          6           0       -2.850905   -1.203474    2.577715
     10          6           0       -3.567753    0.017394    2.070403
     11          6           0       -3.463536   -1.766168    3.985547
     12          6           0       -1.967174   -2.839319    0.718018
     13          6           0       -0.979631   -3.753158    1.479030
     14          6           0        0.298240   -3.881562    0.568001
     15          8           0        0.508464   -3.371793   -0.415991
     16          8           0        0.993358   -4.778777    1.258773
     17          7           0       -4.855075    2.623713    1.439804
     18          6           0       -3.920613    2.440121    2.414999
     19          6           0       -3.683732    3.744219    3.140053
     20          6           0       -4.468843    4.607460    2.544558
     21          6           0       -5.256043    3.933594    1.454521
     22          6           0       -2.783397    3.834972    4.287547
     23          6           0       -4.719612    5.973861    2.910542
     24          8           0       -4.071446    6.624086    3.818370
     25          7           0       -6.900179    2.607402   -0.700213
     26          6           0       -6.961749    4.010779   -0.344416
     27          6           0       -8.015511    4.542861   -1.223226
     28          6           0       -8.531649    3.619404   -1.974480
     29          6           0       -7.814882    2.411242   -1.623039
     30          6           0       -8.478146    5.967443   -1.227041
     31          6           0       -9.701104    3.717451   -2.988601
     32          6           0       -9.218551    3.962152   -4.499656
     33          7           0       -6.419733   -0.163098   -1.143781
     34          6           0       -7.396042   -0.008541   -2.096903
     35          6           0       -7.425395   -1.394321   -2.737170
     36          6           0       -6.595792   -2.171054   -2.071201
     37          6           0       -5.994691   -1.362867   -1.076739
     38          6           0       -8.286575   -1.734619   -3.920950
     39          6           0       -6.083723   -3.611185   -2.089902
     40          8           0       -6.487128   -4.511464   -2.718615
     41          6           0       -4.991046   -3.508661   -0.886472
     42          6           0       -5.242960   -4.600204    0.192041
     43          8           0       -5.488097   -4.340481    1.399050
     44          8           0       -5.171022   -5.850404   -0.367904
     45          6           0       -5.389037   -6.888811    0.684679
     46          6           0        2.329117   -5.020922    0.689011
     47          6           0        3.462724   -4.113165    1.018314
     48          6           0        4.053968   -3.331589    0.038584
     49          6           0        3.813466   -3.211924   -1.375313
     50          6           0        5.119331   -2.434742    0.656461
     51          6           0        6.643336   -2.824179    0.129424
     52          6           0        7.657489   -1.796788    0.606100
     53          6           0        9.082820   -2.080402   -0.045497
     54          6           0        9.574667   -3.500156    0.329179
     55          6           0       10.016002   -1.021530    0.412979
     56          6           0       11.292881   -0.784710   -0.413117
     57          6           0       12.177232    0.360647    0.129160
     58          6           0       13.566335    0.537161   -0.612315
     59          6           0       14.560644   -0.553290   -0.518289
     60          6           0       14.263159    1.849318   -0.206256
     61          6           0       15.534440    2.149080   -1.098178
     62          6           0       15.960022    3.547739   -0.748866
     63          6           0       17.346699    4.032663   -1.252449
     64          6           0       17.248437    3.950126   -2.714647
     65          6           0       17.797012    5.373739   -0.720121
     66          1           0       -2.401132    1.022367    3.310855
     67          1           0       -6.366711    5.748906    0.774875
     68          1           0       -8.745945    1.118536   -3.289359
     69          1           0       -3.779011   -3.242422    1.800080
     70          1           0       -1.707599   -0.989119    2.549786
     71          1           0       -2.963319   -2.762866    4.047991
     72          1           0       -3.099411   -1.121626    4.843734
     73          1           0       -4.550701   -1.813245    3.874488
     74          1           0       -2.286040   -3.388395   -0.279053
     75          1           0       -1.365471   -2.061419    0.187579
     76          1           0       -0.833120   -3.458055    2.619150
     77          1           0       -1.574491   -4.721002    1.643344
     78          1           0       -1.722598    3.531285    3.772814
     79          1           0       -2.779266    4.961004    4.569776
     80          1           0       -2.828318    3.118700    5.145735
     81          1           0       -5.679113    6.486789    2.455605
     82          1           0      -10.112936    2.795916   -2.981174
     83          1           0      -10.417153    4.526889   -2.887989
     84          1           0      -10.055141    4.032157   -5.031272
     85          1           0       -8.601075    4.902188   -4.583768
     86          1           0       -8.740401    3.061899   -4.876707
     87          1           0       -8.241241   -0.816058   -4.620523
     88          1           0       -8.105802   -2.710144   -4.431203
     89          1           0       -9.498630   -1.936631   -3.550899
     90          1           0       -3.908441   -3.587069   -1.405392
     91          1           0        2.516919   -6.156388    0.955927
     92          1           0        2.300799   -5.074164   -0.322696
     93          1           0        3.603802   -3.827618    1.991290
     94          1           0        2.684345   -3.222008   -1.741287
     95          1           0        4.155952   -2.107129   -1.856696
     96          1           0        4.448467   -3.933749   -1.953951
     97          1           0        4.927150   -1.457017    0.275817
     98          1           0        5.080507   -2.449981    1.834546
     99          1           0        6.793250   -3.841403    0.561972
    100          1           0        6.592657   -2.958825   -0.934353
    101          1           0        7.519676   -0.882260    0.032002
    102          1           0        7.674076   -1.914409    1.739182
    103          1           0        9.032693   -2.119136   -1.260417
    104          1           0        8.808533   -4.173168   -0.124088
    105          1           0       10.530916   -3.758851   -0.172891
    106          1           0        9.524530   -3.615920    1.375454
    107          1           0        9.441138   -0.070528    0.528743
    108          1           0       10.476812   -1.255949    1.467410
    109          1           0       11.864194   -1.674202   -0.584381
    110          1           0       10.939459   -0.382238   -1.442571
    111          1           0       11.655927    1.376816    0.300628
    112          1           0       12.670676    0.116015    1.254308
    113          1           0       13.341534    0.605296   -1.684426
    114          1           0       14.553798   -0.849006    0.560145
    115          1           0       14.237191   -1.311995   -1.177546
    116          1           0       15.600169   -0.221175   -0.817280
    117          1           0       13.517112    2.633319   -0.347243
    118          1           0       14.685402    1.994803    0.945090
    119          1           0       16.314215    1.348987   -0.946186
    120          1           0       15.434342    1.870219   -2.264987
    121          1           0       15.387577    4.405992   -1.130339
    122          1           0       16.001039    3.963114    0.257827
    123          1           0       18.220930    3.340536   -0.923532
    124          1           0       16.311283    4.542108   -2.780329
    125          1           0       17.951892    4.475147   -3.334466
    126          1           0       16.968651    3.049212   -3.053335
    127          1           0       18.003645    5.214707    0.410870
    128          1           0       18.919982    5.639367   -1.112807
    129          1           0       17.107119    6.117765   -0.958621
    130          1           0       -5.162898   -7.720928    0.031939
    131          1           0       -6.411493   -6.755962    1.074226
    132          1           0       -4.865244   -6.879542    1.450331
    133          8           0       -7.934465    6.772443   -0.542174
    134          1           0       -9.384456    6.242182   -1.757158
 ---------------------------------------------------------------------

 SCF Done:  E(RCAM-B3LYP) =  -3043.46307679     A.U. after   16 cycles

 Excitation energies and oscillator strengths:

 Excited State   1:      Singlet-A      1.9646 eV  631.09 nm  f=0.2672  <S**2>=0.000
     243 -> 246        0.20189
     244 -> 245        0.67289
 This state for optimization and/or second-order correction.
 Total Energy, E(TD-HF/TD-KS) =  -3043.39087881
 Copying the excited state density for this state as the 1-particle RhoCI density.

 The electronic state is 1-A.
 Alpha  occ. eigenvalues --  -46.82008 -19.24061 -19.22349 -19.19097 -19.18957
 Alpha  occ. eigenvalues --  -19.18679 -19.17205 -19.16198 -14.37718 -14.37380
 Alpha  occ. eigenvalues --  -14.36930 -14.36209 -10.36638 -10.34929 -10.32809
 Alpha  occ. eigenvalues --  -10.30157 -10.29994 -10.26916 -10.26716 -10.26690
 Alpha  occ. eigenvalues --  -10.26680 -10.26639 -10.26491 -10.26415 -10.26227
 Alpha  occ. eigenvalues --  -10.25891 -10.25804 -10.25230 -10.25202 -10.24651
 Alpha  occ. eigenvalues --  -10.24360 -10.24192 -10.24115 -10.24084 -10.24043
 Alpha  occ. eigenvalues --  -10.23924 -10.23505 -10.23502 -10.23247 -10.23115
 Alpha  occ. eigenvalues --  -10.23093 -10.23091 -10.22887 -10.22845 -10.22828
 Alpha  occ. eigenvalues --  -10.22788 -10.22689 -10.22547 -10.22309 -10.22148
 Alpha  occ. eigenvalues --  -10.22098 -10.22041 -10.21921 -10.21838 -10.21795
 Alpha  occ. eigenvalues --  -10.21385 -10.21349 -10.21335 -10.21220 -10.21213
 Alpha  occ. eigenvalues --  -10.21132 -10.20830 -10.20536 -10.20073 -10.19706
 Alpha  occ. eigenvalues --  -10.17657  -3.10400  -1.85365  -1.84852  -1.84803
 Alpha  occ. eigenvalues --   -1.16609  -1.12581  -1.10882  -1.08699  -1.08480
 Alpha  occ. eigenvalues --   -1.04204  -1.02036  -1.01850  -1.00163  -0.99505
 Alpha  occ. eigenvalues --   -0.98745  -0.87859  -0.86269  -0.85701  -0.85006
 Alpha  occ. eigenvalues --   -0.84814  -0.84146  -0.83989  -0.83816  -0.83712
 Alpha  occ. eigenvalues --   -0.83271  -0.82658  -0.80520  -0.79937  -0.79263
 Alpha  occ. eigenvalues --   -0.78898  -0.77838  -0.77653  -0.77106  -0.76513
 Alpha  occ. eigenvalues --   -0.75210  -0.74526  -0.73213  -0.72796  -0.71631
 Alpha  occ. eigenvalues --   -0.71607  -0.71166  -0.70599  -0.69583  -0.69063
 Alpha  occ. eigenvalues --   -0.68959  -0.68407  -0.66812  -0.66523  -0.65732
 Alpha  occ. eigenvalues --   -0.65640  -0.64323  -0.64184  -0.62625  -0.62065
 Alpha  occ. eigenvalues --   -0.61332  -0.60961  -0.60142  -0.59390  -0.59136
 Alpha  occ. eigenvalues --   -0.58052  -0.57998  -0.57659  -0.56887  -0.56551
 Alpha  occ. eigenvalues --   -0.56403  -0.56035  -0.55397  -0.55191  -0.54220
 Alpha  occ. eigenvalues --   -0.53879  -0.53480  -0.52537  -0.52505  -0.52098
 Alpha  occ. eigenvalues --   -0.51957  -0.51669  -0.51396  -0.51307  -0.51060
 Alpha  occ. eigenvalues --   -0.50235  -0.50127  -0.49936  -0.49059  -0.49002
 Alpha  occ. eigenvalues --   -0.48479  -0.48302  -0.48235  -0.47977  -0.47878
 Alpha  occ. eigenvalues --   -0.47447  -0.47404  -0.47219  -0.46932  -0.46748
 Alpha  occ. eigenvalues --   -0.46579  -0.46456  -0.46044  -0.46008  -0.45973
 Alpha  occ. eigenvalues --   -0.45705  -0.45216  -0.44990  -0.44909  -0.44498
 Alpha  occ. eigenvalues --   -0.44467  -0.44143  -0.44113  -0.43940  -0.43829
 Alpha  occ. eigenvalues --   -0.43734  -0.43118  -0.42903  -0.42801  -0.42690
 Alpha  occ. eigenvalues --   -0.42645  -0.42363  -0.42212  -0.42030  -0.41887
 Alpha  occ. eigenvalues --   -0.41798  -0.41471  -0.41324  -0.41198  -0.40977
 Alpha  occ. eigenvalues --   -0.40893  -0.40532  -0.40432  -0.40229  -0.40128
 Alpha  occ. eigenvalues --   -0.39821  -0.39500  -0.39225  -0.39130  -0.38924
 Alpha  occ. eigenvalues --   -0.38824  -0.38746  -0.38615  -0.38454  -0.38331
 Alpha  occ. eigenvalues --   -0.38223  -0.37928  -0.37417  -0.37331  -0.37250
 Alpha  occ. eigenvalues --   -0.36929  -0.36782  -0.36421  -0.35819  -0.35754
 Alpha  occ. eigenvalues --   -0.35313  -0.35107  -0.34829  -0.34512  -0.34294
 Alpha  occ. eigenvalues --   -0.34114  -0.33829  -0.33419  -0.33190  -0.33111
 Alpha  occ. eigenvalues --   -0.32959  -0.32402  -0.32251  -0.32190  -0.32005
 Alpha  occ. eigenvalues --   -0.31861  -0.30732  -0.30512  -0.30228  -0.29874
 Alpha  occ. eigenvalues --   -0.28920  -0.28709  -0.28366  -0.27915  -0.27847
 Alpha  occ. eigenvalues --   -0.26712  -0.26664  -0.23146  -0.20343
 Alpha virt. eigenvalues --   -0.07981  -0.05238  -0.01115  -0.00642   0.00557
 Alpha virt. eigenvalues --    0.01802   0.01964   0.03354   0.04623   0.04938
 Alpha virt. eigenvalues --    0.05693   0.05834   0.08348   0.08364   0.09588

 Mulliken charges:
               1
     1  Mg   0.826534
     2  C    0.057395
     3  C   -0.159105
     4  C   -0.185336
     5  C   -0.159845
     6  N   -0.652204
     7  C    0.322808
     8  C   -0.152612
     9  C   -0.180351
    10  C    0.357343
    11  C   -0.294863
    12  C   -0.192492
    13  C   -0.281305
    14  C    0.618683
    15  O   -0.399860
    16  O   -0.457533
    17  N   -0.708760
    18  C    0.266055
    19  C    0.087535
    20  C   -0.002582
    21  C    0.298461
    22  C   -0.395034
    23  C    0.210714
    24  O   -0.456949
    25  N   -0.687494
    26  C    0.284539
    27  C   -0.061991
    28  C    0.058426
    29  C    0.297445
    30  C    0.256079
    31  C   -0.240938
    32  C   -0.323153
    33  N   -0.737824
    34  C    0.263122
    35  C   -0.043383
    36  C    0.033469
    37  C    0.349466
    38  C   -0.371952
    39  C    0.402513
    40  O   -0.397322
    41  C   -0.352541
    42  C    0.638256
    43  O   -0.484475
    44  O   -0.452535
    45  C   -0.087933
    46  C   -0.014842
    47  C   -0.128503
    48  C    0.167833
    49  C   -0.394940
    50  C   -0.231089
    51  C   -0.197490
    52  C   -0.157854
    53  C   -0.069386
    54  C   -0.308219
    55  C   -0.147409
    56  C   -0.176265
    57  C   -0.159164
    58  C   -0.065863
    59  C   -0.295079
    60  C   -0.161884
    61  C   -0.180334
    62  C   -0.169677
    63  C   -0.068633
    64  C   -0.279516
    65  C   -0.305787
    66  H    0.090548
    67  H    0.145936
    68  H    0.102743
    69  H    0.136703
    70  H    0.100858
    71  H    0.111666
    72  H    0.104133
    73  H    0.135421
    74  H    0.080573
    75  H    0.115096
    76  H    0.117167
    77  H    0.123923
    78  H    0.098594
    79  H    0.158633
    80  H    0.132183
    81  H    0.082369
    82  H    0.116663
    83  H    0.116211
    84  H    0.122971
    85  H    0.113058
    86  H    0.107593
    87  H    0.109708
    88  H    0.146847
    89  H    0.092927
    90  H    0.155387
    91  H    0.093074
    92  H    0.123146
    93  H    0.085805
    94  H    0.147705
    95  H    0.090245
    96  H    0.131684
    97  H    0.102324
    98  H    0.081596
    99  H    0.101942
   100  H    0.097695
   101  H    0.107628
   102  H    0.100808
   103  H    0.058142
   104  H    0.095905
   105  H    0.098128
   106  H    0.106883
   107  H    0.081904
   108  H    0.077904
   109  H    0.104718
   110  H    0.079631
   111  H    0.088446
   112  H    0.047969
   113  H    0.081838
   114  H    0.095064
   115  H    0.101322
   116  H    0.095510
   117  H    0.095528
   118  H    0.072329
   119  H    0.105732
   120  H    0.081867
   121  H    0.090485
   122  H    0.089092
   123  H    0.058622
   124  H    0.078021
   125  H    0.092034
   126  H    0.106468
   127  H    0.095583
   128  H    0.083617
   129  H    0.106180
   130  H    0.131293
   131  H    0.136950
   132  H    0.145522
   133  O   -0.396564
   134  H    0.067946
 Sum of Mulliken charges =   0.00000

 Dipole moment (field-independent basis, Debye):
    X=              1.1785    Y=             -6.5137    Z=             -2.7838  Tot=              7.1810
 Quadrupole moment (field-independent basis, Debye-Ang):
   XX=           -379.2539   YY=           -438.7370   ZZ=           -399.1783
   XY=              8.1719   XZ=             22.4458   YZ=            -34.1306

 Normal termination of Gaussian 09 at Thu Oct  3 11:42:11 2019.
