 Gaussian 09, Revision D.01,
 Gaussian 09:  ES64L-G09RevD.01 24-Apr-2013

 ----------------------------------------------------------------------
 # td=(NStates=1) iop(3/107=0140000000,3/108=0140000000) iop(3/107=0140
 000000,3/108=0140000000) CAM-B3LYP/6-31G(d,p)
 ----------------------------------------------------------------------

 --
 TD
 --
 Symbolic Z-matrix:
 Charge =  0 Multiplicity = 1

                         Standard orientation:
 ---------------------------------------------------------------------
 Center     Atomic      Atomic             Coordinates (Angstroms)
 Number     Number       Type             X           Y           Z
 ---------------------------------------------------------------------
      1         12           0       -5.598291    1.246545    0.176014
      2          6           0       -4.981891   -2.145890   -0.418035
      3          6           0       -3.489796    1.163713    2.798474
      4          6           0       -6.389247    4.553982    0.759423
      5          6           0       -7.916115    1.155697   -2.465649
      6          7           0       -4.317647   -0.277412    1.023909
      7          6           0       -4.224403   -1.627018    0.683111
      8          6           0       -3.182428   -2.239854    1.592676
      9          6           0       -2.967783   -1.330215    2.758556
     10          6           0       -3.622217   -0.150399    2.161590
     11          6           0       -3.549847   -1.789184    4.044600
     12          6           0       -2.007386   -2.545515    0.664025
     13          6           0       -1.003697   -3.444553    1.444864
     14          6           0        0.220607   -3.792189    0.642400
     15          8           0        0.509601   -3.460167   -0.437865
     16          8           0        0.993619   -4.622472    1.348068
     17          7           0       -4.935312    2.616171    1.464807
     18          6           0       -4.005065    2.396394    2.380099
     19          6           0       -3.799903    3.689429    3.115973
     20          6           0       -4.571773    4.643907    2.653642
     21          6           0       -5.342566    3.949736    1.542319
     22          6           0       -2.806974    3.878987    4.301386
     23          6           0       -4.684252    6.036990    2.950867
     24          8           0       -4.235978    6.661513    3.928571
     25          7           0       -6.850878    2.557429   -0.741685
     26          6           0       -6.952598    3.894068   -0.349899
     27          6           0       -7.993602    4.565185   -1.292879
     28          6           0       -8.465451    3.568862   -2.095073
     29          6           0       -7.798169    2.418868   -1.773956
     30          6           0       -8.327741    5.956899   -1.348384
     31          6           0       -9.547665    3.420591   -3.213263
     32          6           0       -8.976836    3.856317   -4.577034
     33          7           0       -6.309908   -0.104996   -1.137405
     34          6           0       -7.302067    0.001696   -2.111817
     35          6           0       -7.446416   -1.365000   -2.725004
     36          6           0       -6.630583   -2.224264   -2.041250
     37          6           0       -5.927908   -1.420003   -1.132717
     38          6           0       -8.455022   -1.605125   -3.819592
     39          6           0       -6.096886   -3.595784   -1.988606
     40          8           0       -6.519295   -4.588785   -2.479636
     41          6           0       -4.950365   -3.481206   -0.890544
     42          6           0       -5.127555   -4.628824    0.096276
     43          8           0       -5.385065   -4.586391    1.193658
     44          8           0       -4.912471   -5.788149   -0.468399
     45          6           0       -5.200812   -6.941859    0.412147
     46          6           0        2.229513   -5.081184    0.754735
     47          6           0        3.369204   -4.115075    1.099821
     48          6           0        4.124434   -3.343260    0.192026
     49          6           0        3.757625   -3.250590   -1.329518
     50          6           0        5.186260   -2.441320    0.671480
     51          6           0        6.573314   -2.665583    0.085218
     52          6           0        7.574971   -1.696628    0.644971
     53          6           0        8.958971   -1.898780   -0.021812
     54          6           0        9.502479   -3.276375    0.377944
     55          6           0        9.929058   -0.753340    0.413313
     56          6           0       11.248168   -0.806696   -0.307272
     57          6           0       12.078263    0.416533    0.161883
     58          6           0       13.419621    0.451680   -0.636322
     59          6           0       14.454164   -0.750329   -0.316859
     60          6           0       14.271602    1.761432   -0.276701
     61          6           0       15.379593    2.103515   -1.130989
     62          6           0       16.055301    3.513220   -0.743960
     63          6           0       17.409926    3.868956   -1.250893
     64          6           0       17.429475    3.986346   -2.792506
     65          6           0       17.930624    5.176975   -0.809289
     66          1           0       -2.990952    1.177863    3.757246
     67          1           0       -6.568455    5.674337    0.982402
     68          1           0       -8.736407    1.144211   -3.106246
     69          1           0       -3.635305   -3.186454    1.709369
     70          1           0       -1.922040   -1.156506    2.819767
     71          1           0       -3.038240   -2.665537    4.424345
     72          1           0       -3.317873   -1.003943    4.967051
     73          1           0       -4.522560   -1.924764    3.789260
     74          1           0       -2.285464   -3.236963   -0.192885
     75          1           0       -1.416180   -1.649959    0.372603
     76          1           0       -0.583493   -2.938014    2.415768
     77          1           0       -1.520114   -4.270440    1.729901
     78          1           0       -1.686091    3.812598    4.127206
     79          1           0       -3.237377    4.950056    4.634318
     80          1           0       -2.883848    2.992657    5.164430
     81          1           0       -5.594724    6.596973    2.489891
     82          1           0       -9.882572    2.515103   -3.312754
     83          1           0      -10.303019    4.321670   -2.972795
     84          1           0       -9.756021    3.783708   -5.202721
     85          1           0       -8.320537    4.772166   -4.590309
     86          1           0       -8.288061    3.072224   -4.819851
     87          1           0       -8.171408   -1.046135   -4.597334
     88          1           0       -8.232427   -2.595592   -3.967452
     89          1           0       -9.557081   -1.417703   -3.481576
     90          1           0       -3.972826   -3.670919   -1.469939
     91          1           0        2.474805   -6.128311    1.082558
     92          1           0        2.235382   -5.025321   -0.268407
     93          1           0        3.543961   -4.047200    1.995528
     94          1           0        2.765075   -3.466144   -1.641272
     95          1           0        3.892066   -2.272798   -1.606760
     96          1           0        4.575960   -3.709467   -2.027430
     97          1           0        4.929879   -1.420457    0.264185
     98          1           0        5.212887   -2.326052    1.755502
     99          1           0        6.854132   -3.724977    0.236454
    100          1           0        6.515076   -2.550594   -0.931507
    101          1           0        7.047485   -0.676601    0.336096
    102          1           0        7.671652   -1.757750    1.726507
    103          1           0        9.029984   -1.963707   -1.218290
    104          1           0        8.984792   -4.140802   -0.262435
    105          1           0       10.496223   -3.280572    0.032911
    106          1           0        9.551266   -3.466753    1.387411
    107          1           0        9.432895    0.196251    0.228901
    108          1           0       10.153643   -0.817455    1.409951
    109          1           0       11.772689   -1.693222   -0.127721
    110          1           0       11.094106   -0.971353   -1.439258
    111          1           0       11.525817    1.372309   -0.070951
    112          1           0       12.300320    0.271258    1.268030
    113          1           0       13.170406    0.405700   -1.740870
    114          1           0       14.809078   -0.722250    0.630411
    115          1           0       14.099435   -1.638464   -0.564874
    116          1           0       15.178883   -0.703221   -1.001058
    117          1           0       13.522296    2.613322   -0.165898
    118          1           0       14.531169    1.761324    0.743972
    119          1           0       16.297979    1.450268   -1.037559
    120          1           0       15.139247    2.271476   -2.197752
    121          1           0       15.316368    4.315459   -0.849448
    122          1           0       16.243460    3.660264    0.178917
    123          1           0       18.155432    2.934855   -1.067228
    124          1           0       16.604715    4.628622   -3.037361
    125          1           0       18.329428    4.333532   -3.260418
    126          1           0       17.245049    2.994016   -3.379112
    127          1           0       18.095576    5.227799    0.323898
    128          1           0       18.748490    5.302677   -1.433261
    129          1           0       16.931697    5.991303   -0.920553
    130          1           0       -5.174267   -7.781042   -0.219580
    131          1           0       -6.172166   -6.858715    0.923003
    132          1           0       -4.391233   -6.962550    1.430631
    133          8           0       -7.853770    6.827047   -0.672478
    134          1           0       -9.164386    6.143467   -2.094427
 ---------------------------------------------------------------------

 SCF Done:  E(RCAM-B3LYP) =  -3043.45834898     A.U. after   15 cycles

 Excitation energies and oscillator strengths:

 Excited State   1:      Singlet-A      1.9935 eV  621.93 nm  f=0.1453  <S**2>=0.000
     243 -> 246        0.28692
     244 -> 245        0.64031
 This state for optimization and/or second-order correction.
 Total Energy, E(TD-HF/TD-KS) =  -3043.38508743
 Copying the excited state density for this state as the 1-particle RhoCI density.

 The electronic state is 1-A.
 Alpha  occ. eigenvalues --  -46.81050 -19.22353 -19.21426 -19.18256 -19.17724
 Alpha  occ. eigenvalues --  -19.17448 -19.17027 -19.16329 -14.39475 -14.37535
 Alpha  occ. eigenvalues --  -14.36820 -14.36445 -10.34441 -10.34282 -10.32206
 Alpha  occ. eigenvalues --  -10.31115 -10.29318 -10.29123 -10.28146 -10.28006
 Alpha  occ. eigenvalues --  -10.27433 -10.26910 -10.26879 -10.26704 -10.25765
 Alpha  occ. eigenvalues --  -10.25743 -10.25281 -10.25138 -10.25112 -10.24804
 Alpha  occ. eigenvalues --  -10.24271 -10.24258 -10.24256 -10.23888 -10.23853
 Alpha  occ. eigenvalues --  -10.23814 -10.23650 -10.23643 -10.23590 -10.23502
 Alpha  occ. eigenvalues --  -10.23373 -10.23316 -10.23204 -10.23071 -10.22548
 Alpha  occ. eigenvalues --  -10.22396 -10.22354 -10.22177 -10.21908 -10.21721
 Alpha  occ. eigenvalues --  -10.21645 -10.21636 -10.21620 -10.21376 -10.21011
 Alpha  occ. eigenvalues --  -10.20765 -10.20745 -10.20321 -10.20097 -10.19975
 Alpha  occ. eigenvalues --  -10.19894 -10.19848 -10.19485 -10.19484 -10.18604
 Alpha  occ. eigenvalues --  -10.17262  -3.09759  -1.84690  -1.84236  -1.84171
 Alpha  occ. eigenvalues --   -1.17754  -1.14773  -1.09730  -1.07115  -1.07024
 Alpha  occ. eigenvalues --   -1.05962  -1.05821  -1.01512  -1.00205  -0.99423
 Alpha  occ. eigenvalues --   -0.97578  -0.90205  -0.87706  -0.86101  -0.85485
 Alpha  occ. eigenvalues --   -0.85423  -0.84779  -0.84536  -0.84279  -0.83541
 Alpha  occ. eigenvalues --   -0.83008  -0.82895  -0.82202  -0.80881  -0.79875
 Alpha  occ. eigenvalues --   -0.79294  -0.78748  -0.78030  -0.77139  -0.76842
 Alpha  occ. eigenvalues --   -0.75843  -0.74949  -0.74082  -0.73274  -0.71966
 Alpha  occ. eigenvalues --   -0.71946  -0.71704  -0.70833  -0.70356  -0.69899
 Alpha  occ. eigenvalues --   -0.69684  -0.68383  -0.67742  -0.66854  -0.66416
 Alpha  occ. eigenvalues --   -0.65985  -0.65141  -0.64194  -0.63062  -0.62490
 Alpha  occ. eigenvalues --   -0.61902  -0.61072  -0.61000  -0.59491  -0.59430
 Alpha  occ. eigenvalues --   -0.58676  -0.58311  -0.58109  -0.57339  -0.57234
 Alpha  occ. eigenvalues --   -0.56856  -0.56216  -0.56200  -0.55820  -0.55032
 Alpha  occ. eigenvalues --   -0.54520  -0.54170  -0.53439  -0.53060  -0.52589
 Alpha  occ. eigenvalues --   -0.52444  -0.51678  -0.51454  -0.51078  -0.50912
 Alpha  occ. eigenvalues --   -0.50500  -0.50360  -0.50138  -0.49807  -0.49565
 Alpha  occ. eigenvalues --   -0.49227  -0.49063  -0.48773  -0.48512  -0.47939
 Alpha  occ. eigenvalues --   -0.47698  -0.47572  -0.47393  -0.47244  -0.47172
 Alpha  occ. eigenvalues --   -0.47019  -0.46698  -0.46536  -0.46401  -0.46128
 Alpha  occ. eigenvalues --   -0.45959  -0.45845  -0.45588  -0.45348  -0.45211
 Alpha  occ. eigenvalues --   -0.44870  -0.44828  -0.44672  -0.44345  -0.43972
 Alpha  occ. eigenvalues --   -0.43951  -0.43620  -0.43200  -0.42989  -0.42922
 Alpha  occ. eigenvalues --   -0.42620  -0.42607  -0.42316  -0.42232  -0.42041
 Alpha  occ. eigenvalues --   -0.41974  -0.41763  -0.41623  -0.41430  -0.41177
 Alpha  occ. eigenvalues --   -0.41030  -0.40767  -0.40605  -0.40445  -0.40341
 Alpha  occ. eigenvalues --   -0.40091  -0.39960  -0.39777  -0.39418  -0.39340
 Alpha  occ. eigenvalues --   -0.39217  -0.39121  -0.38924  -0.38788  -0.38744
 Alpha  occ. eigenvalues --   -0.38283  -0.38266  -0.38035  -0.37813  -0.37278
 Alpha  occ. eigenvalues --   -0.37042  -0.36752  -0.36494  -0.36431  -0.36203
 Alpha  occ. eigenvalues --   -0.35591  -0.35532  -0.35191  -0.35145  -0.34797
 Alpha  occ. eigenvalues --   -0.34597  -0.34349  -0.34255  -0.33804  -0.33664
 Alpha  occ. eigenvalues --   -0.33548  -0.32608  -0.32355  -0.32241  -0.31960
 Alpha  occ. eigenvalues --   -0.31748  -0.31258  -0.31039  -0.30175  -0.30054
 Alpha  occ. eigenvalues --   -0.29216  -0.28592  -0.28439  -0.27780  -0.27692
 Alpha  occ. eigenvalues --   -0.27243  -0.26020  -0.22935  -0.20920
 Alpha virt. eigenvalues --   -0.07864  -0.06694  -0.02424  -0.01261   0.00867
 Alpha virt. eigenvalues --    0.03161   0.03731   0.04086   0.04640   0.04979
 Alpha virt. eigenvalues --    0.05341   0.05921   0.08093   0.08647   0.09104

 Mulliken charges:
               1
     1  Mg   0.822746
     2  C    0.100451
     3  C   -0.193847
     4  C   -0.170039
     5  C   -0.156872
     6  N   -0.600991
     7  C    0.285398
     8  C   -0.160200
     9  C   -0.123972
    10  C    0.329757
    11  C   -0.281536
    12  C   -0.179839
    13  C   -0.272089
    14  C    0.594545
    15  O   -0.444783
    16  O   -0.463857
    17  N   -0.703973
    18  C    0.352905
    19  C    0.001105
    20  C    0.060227
    21  C    0.249393
    22  C   -0.385564
    23  C    0.213684
    24  O   -0.414361
    25  N   -0.684851
    26  C    0.298181
    27  C   -0.068706
    28  C    0.080348
    29  C    0.247911
    30  C    0.236797
    31  C   -0.224020
    32  C   -0.311570
    33  N   -0.737002
    34  C    0.311371
    35  C   -0.068189
    36  C    0.067238
    37  C    0.294109
    38  C   -0.355029
    39  C    0.364848
    40  O   -0.418885
    41  C   -0.402008
    42  C    0.611017
    43  O   -0.428837
    44  O   -0.434323
    45  C   -0.080640
    46  C    0.001706
    47  C   -0.125822
    48  C    0.142245
    49  C   -0.389516
    50  C   -0.241515
    51  C   -0.169823
    52  C   -0.153583
    53  C   -0.063488
    54  C   -0.310597
    55  C   -0.158144
    56  C   -0.189663
    57  C   -0.169412
    58  C   -0.069786
    59  C   -0.319988
    60  C   -0.167060
    61  C   -0.169315
    62  C   -0.167043
    63  C   -0.060833
    64  C   -0.310666
    65  C   -0.271739
    66  H    0.075522
    67  H    0.143112
    68  H    0.071914
    69  H    0.124408
    70  H    0.120073
    71  H    0.123247
    72  H    0.090032
    73  H    0.135707
    74  H    0.116953
    75  H    0.122573
    76  H    0.119315
    77  H    0.143483
    78  H    0.128932
    79  H    0.153364
    80  H    0.087384
    81  H    0.081212
    82  H    0.114610
    83  H    0.098557
    84  H    0.120638
    85  H    0.118057
    86  H    0.107330
    87  H    0.137692
    88  H    0.144651
    89  H    0.120894
    90  H    0.162320
    91  H    0.113445
    92  H    0.128703
    93  H    0.057705
    94  H    0.150923
    95  H    0.121710
    96  H    0.097025
    97  H    0.093214
    98  H    0.096635
    99  H    0.094653
   100  H    0.105233
   101  H    0.065998
   102  H    0.094615
   103  H    0.062109
   104  H    0.085793
   105  H    0.102491
   106  H    0.108917
   107  H    0.091300
   108  H    0.094489
   109  H    0.107658
   110  H    0.072169
   111  H    0.092329
   112  H    0.086983
   113  H    0.075323
   114  H    0.108078
   115  H    0.098145
   116  H    0.112404
   117  H    0.067296
   118  H    0.095890
   119  H    0.090762
   120  H    0.100129
   121  H    0.076470
   122  H    0.094918
   123  H    0.061540
   124  H    0.103254
   125  H    0.097346
   126  H    0.077405
   127  H    0.093206
   128  H    0.114687
   129  H    0.062961
   130  H    0.138699
   131  H    0.144998
   132  H    0.088102
   133  O   -0.423494
   134  H    0.043798
 Sum of Mulliken charges =   0.00000

 Dipole moment (field-independent basis, Debye):
    X=              2.5106    Y=             -6.6320    Z=             -0.5450  Tot=              7.1122
 Quadrupole moment (field-independent basis, Debye-Ang):
   XX=           -375.6617   YY=           -448.1476   ZZ=           -393.6374
   XY=             19.9804   XZ=             25.0440   YZ=            -31.2349

 Normal termination of Gaussian 09 at Mon Oct  7 08:50:33 2019.
