 Gaussian 09, Revision D.01,
 Gaussian 09:  ES64L-G09RevD.01 24-Apr-2013

 ----------------------------------------------------------------------
 # td=(NStates=1) iop(3/107=0140000000,3/108=0140000000) iop(3/107=0140
 000000,3/108=0140000000) CAM-B3LYP/6-31G(d,p)
 ----------------------------------------------------------------------

 --
 TD
 --
 Symbolic Z-matrix:
 Charge =  0 Multiplicity = 1

                         Standard orientation:
 ---------------------------------------------------------------------
 Center     Atomic      Atomic             Coordinates (Angstroms)
 Number     Number       Type             X           Y           Z
 ---------------------------------------------------------------------
      1         12           0       -5.640831    1.278603    0.233256
      2          6           0       -5.008010   -2.173055   -0.330490
      3          6           0       -3.382831    1.169820    2.858481
      4          6           0       -6.232876    4.586384    0.720877
      5          6           0       -7.993498    1.264175   -2.388438
      6          7           0       -4.492602   -0.310931    1.106042
      7          6           0       -4.313775   -1.666346    0.676564
      8          6           0       -3.227707   -2.301329    1.473943
      9          6           0       -2.940799   -1.263267    2.633029
     10          6           0       -3.612744   -0.091229    2.139129
     11          6           0       -3.264520   -1.673142    3.963964
     12          6           0       -1.976257   -2.760256    0.705585
     13          6           0       -0.988311   -3.610700    1.445612
     14          6           0        0.205831   -3.836476    0.635697
     15          8           0        0.453731   -3.411354   -0.423843
     16          8           0        1.029940   -4.738893    1.316833
     17          7           0       -4.857702    2.618383    1.476445
     18          6           0       -3.931931    2.430838    2.413622
     19          6           0       -3.652231    3.608359    3.136975
     20          6           0       -4.436842    4.628046    2.505897
     21          6           0       -5.184037    3.924790    1.512184
     22          6           0       -2.677443    3.847194    4.220776
     23          6           0       -4.695591    6.060301    2.827701
     24          8           0       -4.144819    6.663299    3.708704
     25          7           0       -6.879238    2.647398   -0.711481
     26          6           0       -6.941090    3.959300   -0.306878
     27          6           0       -7.972732    4.615045   -1.240462
     28          6           0       -8.385625    3.615962   -2.038617
     29          6           0       -7.813658    2.376582   -1.663770
     30          6           0       -8.417781    6.090496   -1.257838
     31          6           0       -9.486574    3.826699   -3.031767
     32          6           0       -8.945019    3.928950   -4.551026
     33          7           0       -6.365357   -0.165698   -1.093029
     34          6           0       -7.338471    0.005117   -2.139184
     35          6           0       -7.533197   -1.354496   -2.645961
     36          6           0       -6.712550   -2.199043   -1.955558
     37          6           0       -5.964213   -1.452168   -1.013162
     38          6           0       -8.551448   -1.703591   -3.743981
     39          6           0       -6.237615   -3.575344   -1.981249
     40          8           0       -6.592678   -4.597504   -2.583488
     41          6           0       -5.015964   -3.588781   -0.909847
     42          6           0       -5.241811   -4.730904    0.141142
     43          8           0       -5.729731   -4.530310    1.208390
     44          8           0       -4.973053   -5.862625   -0.387675
     45          6           0       -5.131501   -6.995246    0.458272
     46          6           0        2.257769   -5.018333    0.561306
     47          6           0        3.394786   -4.163538    0.989234
     48          6           0        4.014434   -3.374603    0.054971
     49          6           0        3.843707   -3.235158   -1.426065
     50          6           0        5.195875   -2.440447    0.523594
     51          6           0        6.508809   -2.715460   -0.033076
     52          6           0        7.621082   -1.867360    0.595588
     53          6           0        8.985692   -2.024506   -0.082841
     54          6           0        9.605900   -3.386392    0.310044
     55          6           0        9.904590   -0.802093    0.544675
     56          6           0       11.256400   -0.853035   -0.189477
     57          6           0       12.199124    0.377797    0.170401
     58          6           0       13.506636    0.564398   -0.605828
     59          6           0       14.494803   -0.655622   -0.286084
     60          6           0       14.198928    1.808906   -0.186437
     61          6           0       15.508327    2.181705   -1.076537
     62          6           0       16.070101    3.545631   -0.716381
     63          6           0       17.379078    3.934809   -1.356424
     64          6           0       17.118462    3.870603   -2.820286
     65          6           0       17.854252    5.348185   -0.815693
     66          1           0       -2.769973    1.154488    3.818097
     67          1           0       -6.317920    5.705699    0.791118
     68          1           0       -8.740819    1.131681   -3.064188
     69          1           0       -3.544712   -3.268119    1.981851
     70          1           0       -1.837107   -1.121178    2.392827
     71          1           0       -2.541394   -2.457046    4.464444
     72          1           0       -3.341706   -0.859485    4.716875
     73          1           0       -4.309073   -2.164668    3.760625
     74          1           0       -2.257423   -3.176706   -0.258249
     75          1           0       -1.576451   -1.800846    0.438175
     76          1           0       -0.713549   -3.198017    2.476100
     77          1           0       -1.271720   -4.716029    1.678156
     78          1           0       -1.698907    3.585261    3.790137
     79          1           0       -2.755553    4.905589    4.491378
     80          1           0       -2.746048    3.211213    4.920058
     81          1           0       -5.446400    6.648272    2.259707
     82          1           0      -10.494513    3.067462   -3.100022
     83          1           0       -9.921661    4.708547   -2.803092
     84          1           0       -9.787513    4.050462   -5.187144
     85          1           0       -8.378665    4.902894   -4.745318
     86          1           0       -8.392827    3.182572   -4.984481
     87          1           0       -8.090519   -1.244042   -4.719518
     88          1           0       -8.248515   -2.668225   -3.755697
     89          1           0       -9.530199   -1.344699   -3.450862
     90          1           0       -4.251366   -3.890566   -1.539082
     91          1           0        2.459235   -6.088046    0.942951
     92          1           0        2.079162   -5.038775   -0.350406
     93          1           0        3.574557   -4.055993    2.005449
     94          1           0        2.794393   -3.328835   -1.872476
     95          1           0        4.091240   -2.169220   -1.728357
     96          1           0        4.569062   -3.779529   -1.930285
     97          1           0        4.794137   -1.379011    0.326991
     98          1           0        5.539485   -2.203234    1.634506
     99          1           0        6.519587   -3.687457    0.035730
    100          1           0        6.389434   -2.613833   -1.177186
    101          1           0        7.106119   -0.814529    0.646951
    102          1           0        7.646251   -1.970819    1.689521
    103          1           0        8.904827   -1.636366   -1.177065
    104          1           0        8.818479   -4.045918    0.088879
    105          1           0       10.405078   -3.594280   -0.408159
    106          1           0        9.924336   -3.482518    1.279391
    107          1           0        9.362999    0.131097    0.286877
    108          1           0        9.969121   -1.272565    1.734295
    109          1           0       11.860807   -1.807698   -0.164558
    110          1           0       11.096760   -0.906951   -1.197411
    111          1           0       11.664722    1.322684   -0.161486
    112          1           0       12.340421    0.510650    1.277902
    113          1           0       13.521240    0.432352   -1.816501
    114          1           0       14.926845   -0.614827    0.670127
    115          1           0       14.028674   -1.741336   -0.274407
    116          1           0       15.448416   -0.788170   -1.102700
    117          1           0       13.319637    2.623786   -0.089636
    118          1           0       14.597213    1.847482    0.776041
    119          1           0       16.335310    1.399178   -0.727007
    120          1           0       15.379365    2.081954   -2.151564
    121          1           0       15.296062    4.271668   -0.983529
    122          1           0       16.127223    3.505846    0.360925
    123          1           0       18.319794    3.517786   -0.942912
    124          1           0       16.375382    4.463059   -3.085298
    125          1           0       18.062956    4.046102   -3.273695
    126          1           0       16.964074    2.875602   -3.050608
    127          1           0       18.036533    5.419731    0.223743
    128          1           0       18.811209    5.407600   -1.168973
    129          1           0       17.208918    6.100265   -1.368480
    130          1           0       -4.653237   -7.890254   -0.082724
    131          1           0       -6.109966   -7.213716    0.623702
    132          1           0       -4.586384   -6.823908    1.334910
    133          8           0       -7.893061    6.887684   -0.446258
    134          1           0       -9.198924    6.147712   -1.967020
 ---------------------------------------------------------------------

 SCF Done:  E(RCAM-B3LYP) =  -3043.44972111     A.U. after   16 cycles

 Excitation energies and oscillator strengths:

 Excited State   1:      Singlet-A      1.9348 eV  640.80 nm  f=0.2305  <S**2>=0.000
     243 -> 246       -0.19850
     244 -> 245        0.66947
 This state for optimization and/or second-order correction.
 Total Energy, E(TD-HF/TD-KS) =  -3043.37861751
 Copying the excited state density for this state as the 1-particle RhoCI density.

 The electronic state is 1-A.
 Alpha  occ. eigenvalues --  -46.81106 -19.23440 -19.20757 -19.18681 -19.17923
 Alpha  occ. eigenvalues --  -19.16918 -19.16737 -19.16405 -14.39430 -14.36876
 Alpha  occ. eigenvalues --  -14.36753 -14.35997 -10.34492 -10.34346 -10.31949
 Alpha  occ. eigenvalues --  -10.31312 -10.30086 -10.28021 -10.27136 -10.27019
 Alpha  occ. eigenvalues --  -10.26756 -10.26671 -10.26366 -10.25995 -10.25572
 Alpha  occ. eigenvalues --  -10.25461 -10.24877 -10.24839 -10.24787 -10.24530
 Alpha  occ. eigenvalues --  -10.24262 -10.24119 -10.24060 -10.24055 -10.23968
 Alpha  occ. eigenvalues --  -10.23827 -10.23758 -10.23730 -10.23655 -10.23528
 Alpha  occ. eigenvalues --  -10.23310 -10.23026 -10.22967 -10.22922 -10.22907
 Alpha  occ. eigenvalues --  -10.22844 -10.22765 -10.21983 -10.21949 -10.21786
 Alpha  occ. eigenvalues --  -10.21763 -10.21729 -10.21615 -10.21369 -10.21350
 Alpha  occ. eigenvalues --  -10.21274 -10.21233 -10.21161 -10.20775 -10.20682
 Alpha  occ. eigenvalues --  -10.20214 -10.19773 -10.19735 -10.19349 -10.19046
 Alpha  occ. eigenvalues --  -10.17763  -3.09663  -1.84615  -1.84129  -1.84066
 Alpha  occ. eigenvalues --   -1.16701  -1.13652  -1.07404  -1.06144  -1.05920
 Alpha  occ. eigenvalues --   -1.05417  -1.05168  -1.01448  -0.99683  -0.99327
 Alpha  occ. eigenvalues --   -0.97817  -0.88314  -0.86695  -0.86158  -0.85531
 Alpha  occ. eigenvalues --   -0.85152  -0.84502  -0.84053  -0.83939  -0.83549
 Alpha  occ. eigenvalues --   -0.83182  -0.82700  -0.82335  -0.80772  -0.80068
 Alpha  occ. eigenvalues --   -0.79036  -0.77913  -0.77647  -0.77355  -0.76668
 Alpha  occ. eigenvalues --   -0.75448  -0.75295  -0.74779  -0.73407  -0.72857
 Alpha  occ. eigenvalues --   -0.72351  -0.71245  -0.70300  -0.69985  -0.69414
 Alpha  occ. eigenvalues --   -0.69077  -0.68765  -0.68058  -0.67720  -0.66838
 Alpha  occ. eigenvalues --   -0.65930  -0.64170  -0.64025  -0.62326  -0.62082
 Alpha  occ. eigenvalues --   -0.61767  -0.61280  -0.61128  -0.59868  -0.59242
 Alpha  occ. eigenvalues --   -0.58803  -0.58123  -0.57709  -0.57562  -0.57429
 Alpha  occ. eigenvalues --   -0.56713  -0.56367  -0.56040  -0.55237  -0.54677
 Alpha  occ. eigenvalues --   -0.54558  -0.53732  -0.53415  -0.52892  -0.52315
 Alpha  occ. eigenvalues --   -0.51857  -0.51618  -0.51273  -0.51147  -0.51003
 Alpha  occ. eigenvalues --   -0.50429  -0.50126  -0.50014  -0.49465  -0.49180
 Alpha  occ. eigenvalues --   -0.48660  -0.48195  -0.48112  -0.47909  -0.47856
 Alpha  occ. eigenvalues --   -0.47475  -0.47370  -0.47322  -0.47267  -0.46854
 Alpha  occ. eigenvalues --   -0.46723  -0.46433  -0.46189  -0.46075  -0.45751
 Alpha  occ. eigenvalues --   -0.45637  -0.45563  -0.45286  -0.45206  -0.45094
 Alpha  occ. eigenvalues --   -0.44833  -0.44684  -0.44467  -0.44310  -0.44025
 Alpha  occ. eigenvalues --   -0.43967  -0.43742  -0.43659  -0.43571  -0.43466
 Alpha  occ. eigenvalues --   -0.43095  -0.42761  -0.42545  -0.42466  -0.42220
 Alpha  occ. eigenvalues --   -0.42039  -0.41920  -0.41728  -0.41597  -0.41374
 Alpha  occ. eigenvalues --   -0.41170  -0.41168  -0.40827  -0.40600  -0.40446
 Alpha  occ. eigenvalues --   -0.39943  -0.39712  -0.39631  -0.39477  -0.39396
 Alpha  occ. eigenvalues --   -0.39128  -0.38714  -0.38536  -0.38440  -0.38313
 Alpha  occ. eigenvalues --   -0.38247  -0.37958  -0.37792  -0.37547  -0.37444
 Alpha  occ. eigenvalues --   -0.36685  -0.36512  -0.36386  -0.35486  -0.35226
 Alpha  occ. eigenvalues --   -0.34853  -0.34785  -0.34541  -0.34401  -0.34198
 Alpha  occ. eigenvalues --   -0.34167  -0.34131  -0.33836  -0.33564  -0.32996
 Alpha  occ. eigenvalues --   -0.32409  -0.31782  -0.31722  -0.31284  -0.31175
 Alpha  occ. eigenvalues --   -0.30935  -0.30759  -0.30544  -0.29824  -0.29528
 Alpha  occ. eigenvalues --   -0.28867  -0.28726  -0.27729  -0.27550  -0.27516
 Alpha  occ. eigenvalues --   -0.27324  -0.27189  -0.23114  -0.21281
 Alpha virt. eigenvalues --   -0.09019  -0.05971  -0.01527  -0.00853   0.00552
 Alpha virt. eigenvalues --    0.03412   0.03732   0.04092   0.04303   0.04523
 Alpha virt. eigenvalues --    0.04925   0.05559   0.08101   0.08901   0.09588

 Mulliken charges:
               1
     1  Mg   0.824192
     2  C    0.112693
     3  C   -0.189324
     4  C   -0.172223
     5  C   -0.128912
     6  N   -0.630695
     7  C    0.309479
     8  C   -0.190953
     9  C   -0.127277
    10  C    0.337664
    11  C   -0.305202
    12  C   -0.175623
    13  C   -0.275586
    14  C    0.623051
    15  O   -0.441085
    16  O   -0.512907
    17  N   -0.723585
    18  C    0.325470
    19  C    0.007762
    20  C   -0.039174
    21  C    0.299348
    22  C   -0.369521
    23  C    0.249135
    24  O   -0.411116
    25  N   -0.712868
    26  C    0.305089
    27  C   -0.071665
    28  C    0.049707
    29  C    0.335101
    30  C    0.290007
    31  C   -0.249766
    32  C   -0.332938
    33  N   -0.750708
    34  C    0.253871
    35  C   -0.061271
    36  C    0.055220
    37  C    0.310076
    38  C   -0.352847
    39  C    0.343993
    40  O   -0.475348
    41  C   -0.324362
    42  C    0.606202
    43  O   -0.474468
    44  O   -0.398580
    45  C   -0.095009
    46  C    0.038777
    47  C   -0.122873
    48  C    0.117650
    49  C   -0.391149
    50  C   -0.238107
    51  C   -0.137327
    52  C   -0.184891
    53  C   -0.080566
    54  C   -0.306708
    55  C   -0.157599
    56  C   -0.180778
    57  C   -0.176237
    58  C   -0.038258
    59  C   -0.308395
    60  C   -0.159859
    61  C   -0.195007
    62  C   -0.142969
    63  C   -0.073709
    64  C   -0.302860
    65  C   -0.320883
    66  H    0.094812
    67  H    0.140133
    68  H    0.088559
    69  H    0.113001
    70  H    0.105791
    71  H    0.100917
    72  H    0.115724
    73  H    0.122834
    74  H    0.120251
    75  H    0.120039
    76  H    0.139368
    77  H    0.136647
    78  H    0.122926
    79  H    0.157741
    80  H    0.126412
    81  H    0.084470
    82  H    0.088023
    83  H    0.112434
    84  H    0.113180
    85  H    0.101829
    86  H    0.129992
    87  H    0.113316
    88  H    0.156999
    89  H    0.132703
    90  H    0.151210
    91  H    0.093930
    92  H    0.114442
    93  H    0.092783
    94  H    0.138329
    95  H    0.116984
    96  H    0.138162
    97  H    0.084531
    98  H    0.068960
    99  H    0.112076
   100  H    0.069296
   101  H    0.075042
   102  H    0.094134
   103  H    0.083997
   104  H    0.112289
   105  H    0.106231
   106  H    0.118222
   107  H    0.100242
   108  H    0.057023
   109  H    0.088131
   110  H    0.101787
   111  H    0.082392
   112  H    0.094830
   113  H    0.075205
   114  H    0.109447
   115  H    0.076624
   116  H    0.064911
   117  H    0.056450
   118  H    0.105389
   119  H    0.079150
   120  H    0.093372
   121  H    0.086283
   122  H    0.077544
   123  H    0.078964
   124  H    0.112251
   125  H    0.093200
   126  H    0.117851
   127  H    0.107329
   128  H    0.103912
   129  H    0.087908
   130  H    0.117613
   131  H    0.148670
   132  H    0.132088
   133  O   -0.435719
   134  H    0.095138
 Sum of Mulliken charges =   0.00000

 Dipole moment (field-independent basis, Debye):
    X=              2.1364    Y=             -4.1500    Z=             -1.2004  Tot=              4.8195
 Quadrupole moment (field-independent basis, Debye-Ang):
   XX=           -375.8604   YY=           -433.7459   ZZ=           -392.0590
   XY=             -3.3419   XZ=             21.1759   YZ=            -35.2197

 Normal termination of Gaussian 09 at Fri Oct  4 15:02:56 2019.
