 Gaussian 09, Revision D.01,
 Gaussian 09:  ES64L-G09RevD.01 24-Apr-2013

 ----------------------------------------------------------------------
 # td=(NStates=1) iop(3/107=0140000000,3/108=0140000000) iop(3/107=0140
 000000,3/108=0140000000) CAM-B3LYP/6-31G(d,p)
 ----------------------------------------------------------------------

 --
 TD
 --
 Symbolic Z-matrix:
 Charge =  0 Multiplicity = 1

                         Standard orientation:
 ---------------------------------------------------------------------
 Center     Atomic      Atomic             Coordinates (Angstroms)
 Number     Number       Type             X           Y           Z
 ---------------------------------------------------------------------
      1         12           0       -5.671019    1.244080    0.051299
      2          6           0       -4.951503   -2.225786   -0.372091
      3          6           0       -3.252015    1.183550    2.672128
      4          6           0       -6.310724    4.540204    0.649792
      5          6           0       -8.119795    1.116946   -2.273943
      6          7           0       -4.325798   -0.291750    1.041220
      7          6           0       -4.180091   -1.586153    0.573196
      8          6           0       -3.161333   -2.292284    1.450796
      9          6           0       -2.897023   -1.328217    2.557695
     10          6           0       -3.508260   -0.022046    2.127229
     11          6           0       -3.500779   -1.677866    3.909982
     12          6           0       -1.901650   -2.696048    0.622886
     13          6           0       -0.846442   -3.448354    1.434498
     14          6           0        0.307319   -3.912666    0.607121
     15          8           0        0.588111   -3.629234   -0.499000
     16          8           0        1.112979   -4.703075    1.374259
     17          7           0       -4.847615    2.643445    1.438254
     18          6           0       -3.942923    2.495252    2.348641
     19          6           0       -3.751150    3.657226    3.045025
     20          6           0       -4.551011    4.628812    2.548564
     21          6           0       -5.276245    3.936321    1.445700
     22          6           0       -2.798901    3.755957    4.318461
     23          6           0       -4.619687    6.008508    2.989559
     24          8           0       -4.076130    6.572424    3.852503
     25          7           0       -6.952195    2.622800   -0.702248
     26          6           0       -7.045303    3.994854   -0.306643
     27          6           0       -8.101033    4.537329   -1.056031
     28          6           0       -8.622601    3.564919   -1.994807
     29          6           0       -7.821059    2.372628   -1.742466
     30          6           0       -8.489513    5.886274   -1.027024
     31          6           0       -9.592061    3.782055   -3.057025
     32          6           0       -8.969238    3.937421   -4.494950
     33          7           0       -6.306807   -0.144666   -1.132983
     34          6           0       -7.293192   -0.029392   -2.086131
     35          6           0       -7.589216   -1.354580   -2.717849
     36          6           0       -6.702695   -2.175205   -2.049285
     37          6           0       -5.918176   -1.416203   -1.120004
     38          6           0       -8.533804   -1.730132   -3.713013
     39          6           0       -6.170369   -3.579216   -2.139553
     40          8           0       -6.394797   -4.578911   -2.844759
     41          6           0       -5.098097   -3.608205   -1.009030
     42          6           0       -5.394307   -4.589912    0.033132
     43          8           0       -5.805513   -4.446197    1.242345
     44          8           0       -5.107244   -5.803882   -0.470610
     45          6           0       -5.252476   -6.924751    0.441445
     46          6           0        2.324916   -5.052982    0.803912
     47          6           0        3.393159   -4.080112    1.217854
     48          6           0        4.099138   -3.240259    0.306934
     49          6           0        3.957350   -3.285232   -1.181558
     50          6           0        5.154122   -2.228845    0.702507
     51          6           0        6.662052   -2.631964    0.227611
     52          6           0        7.664103   -1.656836    0.699252
     53          6           0        9.037615   -1.919793   -0.045128
     54          6           0        9.480286   -3.400246    0.303637
     55          6           0        9.999584   -0.839670    0.577551
     56          6           0       11.441353   -0.824306   -0.090714
     57          6           0       12.258782    0.356874    0.265912
     58          6           0       13.588589    0.438844   -0.452438
     59          6           0       14.449699   -0.764500   -0.213436
     60          6           0       14.252845    1.816102   -0.217660
     61          6           0       15.532232    2.145399   -1.071530
     62          6           0       16.050341    3.484301   -0.706019
     63          6           0       17.270825    4.002283   -1.508703
     64          6           0       17.055813    4.049455   -3.057284
     65          6           0       17.846119    5.304354   -1.121138
     66          1           0       -2.630908    1.201147    3.313982
     67          1           0       -6.420991    5.682746    0.458796
     68          1           0       -9.048584    1.004053   -2.911617
     69          1           0       -3.588228   -3.231486    1.807065
     70          1           0       -1.717393   -1.061320    2.462896
     71          1           0       -3.137019   -2.722705    4.227952
     72          1           0       -3.152869   -1.062284    4.849592
     73          1           0       -4.510751   -1.695050    3.598937
     74          1           0       -2.264058   -3.495932   -0.044161
     75          1           0       -1.396083   -1.948223    0.081502
     76          1           0       -0.630541   -2.799694    2.174879
     77          1           0       -1.219431   -4.472109    1.755749
     78          1           0       -1.677877    3.766057    4.014871
     79          1           0       -2.998367    4.874022    4.625861
     80          1           0       -3.015776    3.122133    5.111648
     81          1           0       -5.335964    6.558637    2.458751
     82          1           0      -10.321392    2.921481   -2.966746
     83          1           0      -10.443717    4.550308   -2.878672
     84          1           0       -9.663356    3.991151   -5.466826
     85          1           0       -8.250807    4.677162   -4.361595
     86          1           0       -8.299235    2.958923   -4.561449
     87          1           0       -8.362000   -1.500790   -4.820295
     88          1           0       -8.384835   -2.746650   -3.742077
     89          1           0       -9.584878   -1.312025   -3.537669
     90          1           0       -4.053602   -4.121937   -1.360796
     91          1           0        2.601025   -6.113386    1.316149
     92          1           0        2.437483   -5.236162   -0.201352
     93          1           0        3.692809   -4.108258    2.272076
     94          1           0        2.964132   -3.482824   -1.581672
     95          1           0        4.018299   -2.192836   -1.588884
     96          1           0        4.868085   -3.789876   -1.791801
     97          1           0        4.759043   -1.201868    0.222709
     98          1           0        4.970756   -2.288341    1.994745
     99          1           0        6.925316   -3.772482    0.433636
    100          1           0        6.783828   -2.706941   -0.914171
    101          1           0        7.295814   -0.577036    0.550845
    102          1           0        7.805215   -1.862600    1.745333
    103          1           0        8.911095   -1.882292   -1.138644
    104          1           0        8.858415   -4.371947   -0.131285
    105          1           0       10.492142   -3.676271   -0.324137
    106          1           0        9.355115   -3.662958    1.380262
    107          1           0        9.502614    0.228300    0.452789
    108          1           0       10.168133   -1.163158    1.551028
    109          1           0       11.764609   -1.693657    0.068180
    110          1           0       11.395202   -0.883033   -1.285620
    111          1           0       11.731252    1.226643    0.121979
    112          1           0       12.581606    0.381327    1.330829
    113          1           0       13.324195    0.731690   -1.600519
    114          1           0       14.619199   -0.803483    0.789649
    115          1           0       13.936548   -1.694448   -0.501352
    116          1           0       15.545266   -0.768105   -0.751039
    117          1           0       13.491411    2.682902   -0.642323
    118          1           0       14.774411    1.859110    0.622127
    119          1           0       16.397513    1.193203   -0.998168
    120          1           0       15.433625    2.086490   -2.138408
    121          1           0       15.330528    4.351190   -1.199484
    122          1           0       16.363342    3.601078    0.412105
    123          1           0       18.085867    3.198401   -1.365192
    124          1           0       16.270354    4.670933   -3.041093
    125          1           0       17.844247    4.408355   -3.570504
    126          1           0       16.676403    3.137751   -3.532448
    127          1           0       18.098338    5.360839   -0.093350
    128          1           0       18.854346    5.452598   -1.734743
    129          1           0       17.227588    6.192063   -1.291064
    130          1           0       -4.888449   -7.839948   -0.093828
    131          1           0       -6.321683   -6.993673    0.751755
    132          1           0       -4.575192   -6.994000    1.210011
    133          8           0       -8.050911    6.848235   -0.349810
    134          1           0       -9.295449    6.201794   -1.903804
 ---------------------------------------------------------------------

 SCF Done:  E(RCAM-B3LYP) =  -3043.37065966     A.U. after   16 cycles

 Excitation energies and oscillator strengths:

 Excited State   1:      Singlet-A      2.0107 eV  616.62 nm  f=0.1672  <S**2>=0.000
     243 -> 246        0.28601
     244 -> 245        0.63304
 This state for optimization and/or second-order correction.
 Total Energy, E(TD-HF/TD-KS) =  -3043.29676809
 Copying the excited state density for this state as the 1-particle RhoCI density.

 The electronic state is 1-A.
 Alpha  occ. eigenvalues --  -46.82062 -19.23504 -19.21901 -19.18843 -19.17711
 Alpha  occ. eigenvalues --  -19.17375 -19.17079 -19.16800 -14.38492 -14.38022
 Alpha  occ. eigenvalues --  -14.37448 -14.37236 -10.35879 -10.34750 -10.33475
 Alpha  occ. eigenvalues --  -10.30704 -10.28726 -10.28100 -10.27874 -10.27521
 Alpha  occ. eigenvalues --  -10.27394 -10.27296 -10.27254 -10.27096 -10.26903
 Alpha  occ. eigenvalues --  -10.26646 -10.26163 -10.26020 -10.25992 -10.25980
 Alpha  occ. eigenvalues --  -10.25811 -10.25078 -10.24959 -10.24862 -10.24451
 Alpha  occ. eigenvalues --  -10.24377 -10.24119 -10.23723 -10.23713 -10.23646
 Alpha  occ. eigenvalues --  -10.23567 -10.23483 -10.23449 -10.23273 -10.23082
 Alpha  occ. eigenvalues --  -10.22958 -10.22954 -10.22892 -10.22802 -10.22578
 Alpha  occ. eigenvalues --  -10.22315 -10.21966 -10.21956 -10.21923 -10.21886
 Alpha  occ. eigenvalues --  -10.21811 -10.21689 -10.21472 -10.21291 -10.21125
 Alpha  occ. eigenvalues --  -10.21048 -10.20639 -10.20261 -10.19737 -10.19675
 Alpha  occ. eigenvalues --  -10.17956  -3.10645  -1.85583  -1.85107  -1.85062
 Alpha  occ. eigenvalues --   -1.15058  -1.13402  -1.09526  -1.06874  -1.06692
 Alpha  occ. eigenvalues --   -1.04734  -1.02244  -1.02129  -1.01753  -0.99074
 Alpha  occ. eigenvalues --   -0.98692  -0.89181  -0.86423  -0.86316  -0.85881
 Alpha  occ. eigenvalues --   -0.85713  -0.84839  -0.84814  -0.84225  -0.84144
 Alpha  occ. eigenvalues --   -0.83274  -0.83063  -0.82205  -0.81322  -0.80092
 Alpha  occ. eigenvalues --   -0.79638  -0.78585  -0.78292  -0.77795  -0.76968
 Alpha  occ. eigenvalues --   -0.75619  -0.74672  -0.74030  -0.73654  -0.72371
 Alpha  occ. eigenvalues --   -0.71616  -0.70949  -0.70515  -0.69968  -0.69874
 Alpha  occ. eigenvalues --   -0.69662  -0.68796  -0.67463  -0.67254  -0.66917
 Alpha  occ. eigenvalues --   -0.66132  -0.65307  -0.64799  -0.62673  -0.62232
 Alpha  occ. eigenvalues --   -0.62011  -0.61444  -0.60509  -0.59396  -0.59293
 Alpha  occ. eigenvalues --   -0.59226  -0.58335  -0.58062  -0.57816  -0.57442
 Alpha  occ. eigenvalues --   -0.57074  -0.56680  -0.55831  -0.55318  -0.54945
 Alpha  occ. eigenvalues --   -0.53960  -0.53750  -0.53614  -0.53028  -0.52279
 Alpha  occ. eigenvalues --   -0.52064  -0.51741  -0.51523  -0.51243  -0.51103
 Alpha  occ. eigenvalues --   -0.50607  -0.50137  -0.49713  -0.49504  -0.49464
 Alpha  occ. eigenvalues --   -0.49126  -0.48826  -0.48235  -0.48113  -0.48036
 Alpha  occ. eigenvalues --   -0.47896  -0.47874  -0.47605  -0.47188  -0.46991
 Alpha  occ. eigenvalues --   -0.46896  -0.46794  -0.46295  -0.46218  -0.45935
 Alpha  occ. eigenvalues --   -0.45773  -0.45571  -0.45319  -0.45045  -0.44831
 Alpha  occ. eigenvalues --   -0.44655  -0.44531  -0.44201  -0.44157  -0.43948
 Alpha  occ. eigenvalues --   -0.43678  -0.43597  -0.43239  -0.43148  -0.43102
 Alpha  occ. eigenvalues --   -0.42924  -0.42745  -0.42490  -0.42333  -0.41887
 Alpha  occ. eigenvalues --   -0.41643  -0.41474  -0.41297  -0.41241  -0.41068
 Alpha  occ. eigenvalues --   -0.40860  -0.40715  -0.40622  -0.40451  -0.40254
 Alpha  occ. eigenvalues --   -0.39999  -0.39897  -0.39745  -0.38895  -0.38824
 Alpha  occ. eigenvalues --   -0.38693  -0.38676  -0.38589  -0.38427  -0.38358
 Alpha  occ. eigenvalues --   -0.38242  -0.38148  -0.37698  -0.37076  -0.36898
 Alpha  occ. eigenvalues --   -0.36570  -0.36469  -0.36264  -0.36111  -0.35869
 Alpha  occ. eigenvalues --   -0.35668  -0.35250  -0.34963  -0.34828  -0.34754
 Alpha  occ. eigenvalues --   -0.33975  -0.33936  -0.33524  -0.33487  -0.33126
 Alpha  occ. eigenvalues --   -0.32743  -0.32563  -0.31684  -0.31246  -0.31158
 Alpha  occ. eigenvalues --   -0.31025  -0.30810  -0.30735  -0.30512  -0.30005
 Alpha  occ. eigenvalues --   -0.29702  -0.29231  -0.28945  -0.28092  -0.27373
 Alpha  occ. eigenvalues --   -0.27106  -0.25831  -0.23220  -0.22633
 Alpha virt. eigenvalues --   -0.09630  -0.07461  -0.02386  -0.00808   0.00485
 Alpha virt. eigenvalues --    0.01860   0.02456   0.03201   0.03777   0.04374
 Alpha virt. eigenvalues --    0.04884   0.05083   0.07049   0.08152   0.08766

 Mulliken charges:
               1
     1  Mg   0.854462
     2  C    0.152466
     3  C   -0.075199
     4  C   -0.162276
     5  C   -0.155081
     6  N   -0.638388
     7  C    0.290556
     8  C   -0.158539
     9  C   -0.155003
    10  C    0.327533
    11  C   -0.293156
    12  C   -0.186493
    13  C   -0.259878
    14  C    0.592471
    15  O   -0.441518
    16  O   -0.446944
    17  N   -0.678636
    18  C    0.318577
    19  C    0.012478
    20  C   -0.029436
    21  C    0.262085
    22  C   -0.391524
    23  C    0.256638
    24  O   -0.387849
    25  N   -0.719894
    26  C    0.318409
    27  C    0.018154
    28  C    0.036415
    29  C    0.304650
    30  C    0.205121
    31  C   -0.273466
    32  C   -0.299096
    33  N   -0.752332
    34  C    0.251586
    35  C    0.080016
    36  C   -0.022570
    37  C    0.291163
    38  C   -0.411108
    39  C    0.405987
    40  O   -0.461361
    41  C   -0.350285
    42  C    0.634281
    43  O   -0.510286
    44  O   -0.434918
    45  C   -0.086744
    46  C    0.006782
    47  C   -0.139956
    48  C    0.134174
    49  C   -0.374213
    50  C   -0.207793
    51  C   -0.168020
    52  C   -0.152743
    53  C   -0.066148
    54  C   -0.316744
    55  C   -0.167460
    56  C   -0.163181
    57  C   -0.145915
    58  C   -0.046489
    59  C   -0.313448
    60  C   -0.149741
    61  C   -0.177330
    62  C   -0.140145
    63  C   -0.071347
    64  C   -0.307282
    65  C   -0.300223
    66  H    0.012798
    67  H    0.151428
    68  H    0.106852
    69  H    0.124212
    70  H    0.082467
    71  H    0.102127
    72  H    0.110788
    73  H    0.139359
    74  H    0.099419
    75  H    0.128662
    76  H    0.144652
    77  H    0.127926
    78  H    0.111374
    79  H    0.146737
    80  H    0.131100
    81  H    0.060794
    82  H    0.103741
    83  H    0.114495
    84  H    0.112550
    85  H    0.137216
    86  H    0.092889
    87  H    0.134801
    88  H    0.160351
    89  H    0.125072
    90  H    0.167432
    91  H    0.080554
    92  H    0.133299
    93  H    0.084000
    94  H    0.142908
    95  H    0.089160
    96  H    0.106580
    97  H    0.096258
    98  H    0.055232
    99  H    0.089937
   100  H    0.086443
   101  H    0.087598
   102  H    0.100463
   103  H    0.091761
   104  H    0.077569
   105  H    0.087727
   106  H    0.113637
   107  H    0.078153
   108  H    0.106301
   109  H    0.103471
   110  H    0.057058
   111  H    0.094960
   112  H    0.076638
   113  H    0.049280
   114  H    0.115725
   115  H    0.109076
   116  H    0.083770
   117  H    0.078130
   118  H    0.099248
   119  H    0.041297
   120  H    0.098293
   121  H    0.061661
   122  H    0.084781
   123  H    0.067330
   124  H    0.105301
   125  H    0.108068
   126  H    0.094740
   127  H    0.103343
   128  H    0.086082
   129  H    0.098738
   130  H    0.117202
   131  H    0.139705
   132  H    0.134747
   133  O   -0.448202
   134  H    0.038888
 Sum of Mulliken charges =   0.00000

 Dipole moment (field-independent basis, Debye):
    X=              1.0798    Y=             -5.6140    Z=             -2.2078  Tot=              6.1284
 Quadrupole moment (field-independent basis, Debye-Ang):
   XX=           -375.3954   YY=           -445.8286   ZZ=           -397.8025
   XY=             16.0641   XZ=             33.2378   YZ=            -34.4501

 Normal termination of Gaussian 09 at Thu Oct  3 15:56:12 2019.
