 Gaussian 09, Revision D.01,
 Gaussian 09:  ES64L-G09RevD.01 24-Apr-2013

 ----------------------------------------------------------------------
 # td=(NStates=1) iop(3/107=0140000000,3/108=0140000000) iop(3/107=0140
 000000,3/108=0140000000) CAM-B3LYP/6-31G(d,p)
 ----------------------------------------------------------------------

 --
 TD
 --
 Symbolic Z-matrix:
 Charge =  0 Multiplicity = 1

                         Standard orientation:
 ---------------------------------------------------------------------
 Center     Atomic      Atomic             Coordinates (Angstroms)
 Number     Number       Type             X           Y           Z
 ---------------------------------------------------------------------
      1         12           0       -5.541997    1.282999    0.190287
      2          6           0       -5.054226   -2.133245   -0.340506
      3          6           0       -3.397186    1.137719    2.801006
      4          6           0       -6.245618    4.613067    0.611368
      5          6           0       -7.964916    1.165545   -2.426935
      6          7           0       -4.369464   -0.217794    1.005848
      7          6           0       -4.258445   -1.588141    0.679501
      8          6           0       -3.244195   -2.278891    1.470905
      9          6           0       -3.059840   -1.323088    2.636000
     10          6           0       -3.571059   -0.074513    2.160475
     11          6           0       -3.636155   -1.778839    3.921172
     12          6           0       -1.984743   -2.636237    0.601995
     13          6           0       -0.980016   -3.551800    1.306452
     14          6           0        0.223232   -3.943709    0.513207
     15          8           0        0.609176   -3.423475   -0.597090
     16          8           0        1.057405   -4.726521    1.249842
     17          7           0       -4.931176    2.640807    1.479954
     18          6           0       -3.992954    2.515599    2.428239
     19          6           0       -3.809653    3.609625    3.203209
     20          6           0       -4.543461    4.613069    2.589933
     21          6           0       -5.338354    3.986584    1.511104
     22          6           0       -2.933423    3.658826    4.429178
     23          6           0       -4.590273    6.062023    2.956312
     24          8           0       -4.052345    6.548798    3.865661
     25          7           0       -6.867411    2.609455   -0.767802
     26          6           0       -6.915692    3.954987   -0.384652
     27          6           0       -8.034592    4.595296   -1.266153
     28          6           0       -8.418547    3.670061   -2.116053
     29          6           0       -7.675085    2.414246   -1.804861
     30          6           0       -8.366915    6.029907   -1.231595
     31          6           0       -9.409677    3.837000   -3.127765
     32          6           0       -8.678194    3.966436   -4.490444
     33          7           0       -6.344333   -0.172928   -1.165347
     34          6           0       -7.303715   -0.068415   -2.080744
     35          6           0       -7.555823   -1.435490   -2.663802
     36          6           0       -6.756474   -2.234189   -2.033501
     37          6           0       -6.014432   -1.438735   -1.075489
     38          6           0       -8.513727   -1.716292   -3.653846
     39          6           0       -6.209604   -3.574871   -2.041889
     40          8           0       -6.642293   -4.501545   -2.652790
     41          6           0       -5.076215   -3.553373   -0.927569
     42          6           0       -5.390565   -4.644132    0.182780
     43          8           0       -5.762955   -4.457344    1.357159
     44          8           0       -5.147597   -5.819436   -0.376864
     45          6           0       -5.440593   -6.931487    0.442188
     46          6           0        2.327082   -5.091090    0.636517
     47          6           0        3.448601   -4.141642    1.006153
     48          6           0        4.075403   -3.222556    0.123939
     49          6           0        3.765587   -3.051843   -1.280257
     50          6           0        5.098891   -2.316784    0.729254
     51          6           0        6.550267   -2.637513    0.041226
     52          6           0        7.691786   -1.741653    0.645699
     53          6           0        8.995719   -1.940122    0.043730
     54          6           0        9.591068   -3.314303    0.258713
     55          6           0        9.910546   -0.792139    0.380471
     56          6           0       11.340287   -0.861768   -0.155778
     57          6           0       12.348717    0.283513    0.221160
     58          6           0       13.664450    0.397999   -0.493664
     59          6           0       14.569411   -0.803402   -0.428097
     60          6           0       14.286897    1.760527   -0.235789
     61          6           0       15.542722    2.083612   -1.022537
     62          6           0       16.196511    3.364619   -0.630767
     63          6           0       17.513173    3.786641   -1.431042
     64          6           0       17.087747    4.105400   -2.851299
     65          6           0       18.078370    5.164441   -0.812892
     66          1           0       -2.769995    1.238836    3.560554
     67          1           0       -6.569295    5.625905    0.884762
     68          1           0       -8.935725    1.035029   -3.106119
     69          1           0       -3.612910   -3.209471    1.535150
     70          1           0       -1.873708   -1.238958    2.631090
     71          1           0       -3.056797   -2.675843    4.070367
     72          1           0       -3.516210   -1.001449    4.441109
     73          1           0       -4.853772   -2.032227    3.698878
     74          1           0       -2.455345   -2.838522   -0.424741
     75          1           0       -1.531013   -1.554487    0.347294
     76          1           0       -1.029464   -3.123968    2.328636
     77          1           0       -1.480542   -4.522034    1.620364
     78          1           0       -1.829068    3.395838    4.255929
     79          1           0       -2.767533    4.761034    4.621053
     80          1           0       -3.324311    2.933257    5.245544
     81          1           0       -5.174564    6.489003    2.046475
     82          1           0      -10.093742    2.950950   -3.263226
     83          1           0      -10.085252    4.637559   -3.094369
     84          1           0       -9.468388    4.209553   -5.279099
     85          1           0       -7.988802    4.936302   -4.510176
     86          1           0       -8.183227    3.053275   -4.575939
     87          1           0       -8.660727   -0.814096   -4.568425
     88          1           0       -8.053477   -2.780692   -4.243521
     89          1           0       -9.685440   -2.000771   -3.179599
     90          1           0       -3.954197   -4.193204   -1.113005
     91          1           0        2.667121   -6.001898    1.153357
     92          1           0        1.990697   -5.231749   -0.449757
     93          1           0        3.815992   -4.098689    1.998064
     94          1           0        2.790958   -3.526262   -1.544569
     95          1           0        3.863954   -1.931595   -1.647123
     96          1           0        4.598489   -3.605416   -1.998790
     97          1           0        5.165500   -1.169150    0.591740
     98          1           0        5.086614   -2.480917    1.868642
     99          1           0        6.885825   -3.639190    0.246427
    100          1           0        6.272926   -2.454015   -1.003517
    101          1           0        7.434755   -0.511599    0.539073
    102          1           0        7.731592   -2.013319    1.821175
    103          1           0        8.826647   -1.774017   -0.964176
    104          1           0        8.797486   -4.207383    0.492125
    105          1           0       10.326622   -3.760095   -0.580741
    106          1           0        9.960531   -3.098685    1.332456
    107          1           0        9.327130    0.095168    0.086024
    108          1           0       10.110443   -0.740931    1.636298
    109          1           0       11.582910   -2.076576    0.180429
    110          1           0       11.273373   -0.711884   -1.194575
    111          1           0       11.608690    1.199759    0.070367
    112          1           0       12.439169    0.252613    1.330946
    113          1           0       13.366038    0.446566   -1.546414
    114          1           0       15.155925   -0.846428    0.574799
    115          1           0       13.772754   -1.779959   -0.398164
    116          1           0       15.255288   -0.865874   -1.222506
    117          1           0       13.540078    2.530022   -0.364482
    118          1           0       14.719004    1.787456    0.958150
    119          1           0       16.336324    1.369787   -1.041802
    120          1           0       15.257303    1.916510   -2.086407
    121          1           0       15.527851    4.401842   -0.732277
    122          1           0       16.579955    3.489665    0.451932
    123          1           0       18.375554    2.967090   -1.396400
    124          1           0       16.307975    4.919339   -2.935824
    125          1           0       17.907708    4.567104   -3.391171
    126          1           0       16.707256    3.117510   -3.340583
    127          1           0       18.317655    4.990961    0.200665
    128          1           0       18.905435    5.360823   -1.307985
    129          1           0       17.270630    5.869783   -0.813382
    130          1           0       -4.906719   -7.751588   -0.014397
    131          1           0       -6.536374   -7.027330    0.651826
    132          1           0       -4.965919   -6.770431    1.453826
    133          8           0       -7.912999    6.859026   -0.458265
    134          1           0       -9.246717    6.524488   -1.989261
 ---------------------------------------------------------------------

 SCF Done:  E(RCAM-B3LYP) =  -3043.36244958     A.U. after   16 cycles

 Excitation energies and oscillator strengths:

 Excited State   1:      Singlet-A      1.9203 eV  645.65 nm  f=0.2463  <S**2>=0.000
     243 -> 246       -0.20521
     244 -> 245        0.67132
 This state for optimization and/or second-order correction.
 Total Energy, E(TD-HF/TD-KS) =  -3043.29188038
 Copying the excited state density for this state as the 1-particle RhoCI density.

 The electronic state is 1-A.
 Alpha  occ. eigenvalues --  -46.81835 -19.24419 -19.22855 -19.18368 -19.18307
 Alpha  occ. eigenvalues --  -19.17875 -19.17660 -19.17452 -14.38934 -14.38129
 Alpha  occ. eigenvalues --  -14.36920 -14.36377 -10.36624 -10.36340 -10.32464
 Alpha  occ. eigenvalues --  -10.32102 -10.29931 -10.28535 -10.28260 -10.27949
 Alpha  occ. eigenvalues --  -10.27711 -10.27401 -10.27189 -10.27075 -10.26854
 Alpha  occ. eigenvalues --  -10.26439 -10.26035 -10.25937 -10.25931 -10.25599
 Alpha  occ. eigenvalues --  -10.25254 -10.24948 -10.24607 -10.24230 -10.24144
 Alpha  occ. eigenvalues --  -10.24070 -10.23884 -10.23856 -10.23500 -10.23380
 Alpha  occ. eigenvalues --  -10.23285 -10.22816 -10.22727 -10.22706 -10.22671
 Alpha  occ. eigenvalues --  -10.22652 -10.22632 -10.22516 -10.22370 -10.22252
 Alpha  occ. eigenvalues --  -10.22071 -10.22056 -10.22036 -10.21971 -10.21957
 Alpha  occ. eigenvalues --  -10.21890 -10.21847 -10.21840 -10.21817 -10.21767
 Alpha  occ. eigenvalues --  -10.21697 -10.21521 -10.20761 -10.20755 -10.20344
 Alpha  occ. eigenvalues --  -10.18545  -3.10381  -1.85324  -1.84850  -1.84790
 Alpha  occ. eigenvalues --   -1.15792  -1.12469  -1.09718  -1.09575  -1.07216
 Alpha  occ. eigenvalues --   -1.04933  -1.02618  -1.02181  -1.00022  -0.99488
 Alpha  occ. eigenvalues --   -0.98764  -0.88799  -0.86870  -0.86850  -0.86803
 Alpha  occ. eigenvalues --   -0.85913  -0.85373  -0.84868  -0.84143  -0.83995
 Alpha  occ. eigenvalues --   -0.82745  -0.82348  -0.81933  -0.80601  -0.79629
 Alpha  occ. eigenvalues --   -0.79304  -0.78494  -0.77973  -0.77352  -0.76697
 Alpha  occ. eigenvalues --   -0.75470  -0.74567  -0.74152  -0.72769  -0.71118
 Alpha  occ. eigenvalues --   -0.70992  -0.70649  -0.70302  -0.69659  -0.69205
 Alpha  occ. eigenvalues --   -0.69048  -0.68792  -0.67430  -0.66297  -0.66158
 Alpha  occ. eigenvalues --   -0.65738  -0.64744  -0.64611  -0.62634  -0.62148
 Alpha  occ. eigenvalues --   -0.61911  -0.61295  -0.59853  -0.59607  -0.59129
 Alpha  occ. eigenvalues --   -0.57895  -0.57738  -0.57380  -0.57185  -0.56802
 Alpha  occ. eigenvalues --   -0.56493  -0.55917  -0.55815  -0.55054  -0.54676
 Alpha  occ. eigenvalues --   -0.54185  -0.53566  -0.52985  -0.52689  -0.52154
 Alpha  occ. eigenvalues --   -0.52000  -0.51651  -0.51363  -0.51137  -0.51081
 Alpha  occ. eigenvalues --   -0.50558  -0.50166  -0.49993  -0.49605  -0.49295
 Alpha  occ. eigenvalues --   -0.49025  -0.48864  -0.48632  -0.48539  -0.47895
 Alpha  occ. eigenvalues --   -0.47678  -0.47551  -0.47505  -0.47083  -0.47018
 Alpha  occ. eigenvalues --   -0.46960  -0.46618  -0.46441  -0.46337  -0.45939
 Alpha  occ. eigenvalues --   -0.45673  -0.45120  -0.45062  -0.44948  -0.44835
 Alpha  occ. eigenvalues --   -0.44577  -0.44377  -0.43783  -0.43631  -0.43565
 Alpha  occ. eigenvalues --   -0.43480  -0.43317  -0.43262  -0.43213  -0.42888
 Alpha  occ. eigenvalues --   -0.42543  -0.42515  -0.42290  -0.41941  -0.41762
 Alpha  occ. eigenvalues --   -0.41699  -0.41542  -0.41466  -0.41017  -0.40857
 Alpha  occ. eigenvalues --   -0.40734  -0.40495  -0.40319  -0.40157  -0.39972
 Alpha  occ. eigenvalues --   -0.39900  -0.39733  -0.39577  -0.39542  -0.39190
 Alpha  occ. eigenvalues --   -0.38974  -0.38646  -0.38502  -0.38288  -0.38005
 Alpha  occ. eigenvalues --   -0.37787  -0.37689  -0.37274  -0.37228  -0.37000
 Alpha  occ. eigenvalues --   -0.36707  -0.36285  -0.35965  -0.35769  -0.35426
 Alpha  occ. eigenvalues --   -0.35264  -0.35088  -0.34887  -0.34854  -0.34457
 Alpha  occ. eigenvalues --   -0.34365  -0.34154  -0.34111  -0.33420  -0.32917
 Alpha  occ. eigenvalues --   -0.32622  -0.32419  -0.32157  -0.32127  -0.31773
 Alpha  occ. eigenvalues --   -0.31747  -0.31155  -0.30776  -0.30626  -0.29930
 Alpha  occ. eigenvalues --   -0.29410  -0.28927  -0.28765  -0.28032  -0.27411
 Alpha  occ. eigenvalues --   -0.27023  -0.25698  -0.22882  -0.21257
 Alpha virt. eigenvalues --   -0.08933  -0.05880  -0.01721  -0.00607   0.00002
 Alpha virt. eigenvalues --    0.00877   0.01984   0.02723   0.02980   0.04121
 Alpha virt. eigenvalues --    0.04744   0.04966   0.07312   0.07603   0.08441

 Mulliken charges:
               1
     1  Mg   0.835824
     2  C    0.108325
     3  C   -0.178305
     4  C   -0.158467
     5  C   -0.189579
     6  N   -0.646944
     7  C    0.293706
     8  C   -0.120753
     9  C   -0.185786
    10  C    0.362077
    11  C   -0.239383
    12  C   -0.185523
    13  C   -0.259342
    14  C    0.609399
    15  O   -0.489715
    16  O   -0.456707
    17  N   -0.719914
    18  C    0.288241
    19  C    0.076028
    20  C   -0.093039
    21  C    0.279158
    22  C   -0.393089
    23  C    0.274273
    24  O   -0.389766
    25  N   -0.676170
    26  C    0.268922
    27  C   -0.014612
    28  C    0.072883
    29  C    0.314730
    30  C    0.240278
    31  C   -0.276770
    32  C   -0.305548
    33  N   -0.694219
    34  C    0.281628
    35  C    0.057468
    36  C    0.085365
    37  C    0.261673
    38  C   -0.399412
    39  C    0.390312
    40  O   -0.427315
    41  C   -0.354166
    42  C    0.603396
    43  O   -0.485612
    44  O   -0.404455
    45  C   -0.097215
    46  C    0.010668
    47  C   -0.158383
    48  C    0.199602
    49  C   -0.378701
    50  C   -0.244812
    51  C   -0.181713
    52  C   -0.157438
    53  C   -0.012899
    54  C   -0.316982
    55  C   -0.167854
    56  C   -0.161592
    57  C   -0.176751
    58  C   -0.040582
    59  C   -0.300425
    60  C   -0.143639
    61  C   -0.176956
    62  C   -0.141271
    63  C   -0.079126
    64  C   -0.282234
    65  C   -0.312086
    66  H    0.061262
    67  H    0.148348
    68  H    0.101450
    69  H    0.112215
    70  H    0.097485
    71  H    0.110058
    72  H    0.117134
    73  H    0.104090
    74  H    0.112091
    75  H    0.101350
    76  H    0.150719
    77  H    0.129134
    78  H    0.110918
    79  H    0.149478
    80  H    0.119871
    81  H    0.049554
    82  H    0.105118
    83  H    0.120352
    84  H    0.101319
    85  H    0.101854
    86  H    0.124108
    87  H    0.093547
    88  H    0.117429
    89  H    0.113347
    90  H    0.139324
    91  H    0.117130
    92  H    0.126363
    93  H    0.088394
    94  H    0.147169
    95  H    0.108905
    96  H    0.091991
    97  H    0.102977
    98  H    0.083279
    99  H    0.104023
   100  H    0.102479
   101  H    0.052809
   102  H    0.068280
   103  H    0.097874
   104  H    0.081305
   105  H    0.109272
   106  H    0.103689
   107  H    0.085211
   108  H    0.040128
   109  H    0.065296
   110  H    0.094104
   111  H    0.074346
   112  H    0.089490
   113  H    0.082234
   114  H    0.091674
   115  H    0.080715
   116  H    0.115008
   117  H    0.100359
   118  H    0.046114
   119  H    0.102723
   120  H    0.087361
   121  H    0.053756
   122  H    0.082927
   123  H    0.066981
   124  H    0.094326
   125  H    0.095092
   126  H    0.085627
   127  H    0.100486
   128  H    0.111452
   129  H    0.105461
   130  H    0.130954
   131  H    0.139281
   132  H    0.124125
   133  O   -0.403467
   134  H    0.042031
 Sum of Mulliken charges =   0.00000

 Dipole moment (field-independent basis, Debye):
    X=              1.1448    Y=             -6.1964    Z=             -2.0186  Tot=              6.6167
 Quadrupole moment (field-independent basis, Debye-Ang):
   XX=           -374.4539   YY=           -430.6336   ZZ=           -403.6856
   XY=             14.3922   XZ=             17.3624   YZ=            -35.1536

 Normal termination of Gaussian 09 at Fri Oct  4 00:30:35 2019.
