 Gaussian 09, Revision D.01,
 Gaussian 09:  ES64L-G09RevD.01 24-Apr-2013

 ----------------------------------------------------------------------
 # td=(NStates=1) iop(3/107=0140000000,3/108=0140000000) iop(3/107=0140
 000000,3/108=0140000000) CAM-B3LYP/6-31G(d,p)
 ----------------------------------------------------------------------

 --
 TD
 --
 Symbolic Z-matrix:
 Charge =  0 Multiplicity = 1

                         Standard orientation:
 ---------------------------------------------------------------------
 Center     Atomic      Atomic             Coordinates (Angstroms)
 Number     Number       Type             X           Y           Z
 ---------------------------------------------------------------------
      1         12           0       -5.622477    1.204673    0.271709
      2          6           0       -4.951034   -2.130926   -0.497830
      3          6           0       -3.432857    1.179974    2.933380
      4          6           0       -6.257913    4.524978    0.680959
      5          6           0       -7.984456    1.220924   -2.422781
      6          7           0       -4.424177   -0.255417    1.134782
      7          6           0       -4.234434   -1.601758    0.645713
      8          6           0       -3.190051   -2.351367    1.446960
      9          6           0       -2.933544   -1.373975    2.598575
     10          6           0       -3.578964    0.013052    2.255430
     11          6           0       -3.544783   -1.827492    3.904644
     12          6           0       -1.951118   -2.704345    0.714678
     13          6           0       -0.925165   -3.536978    1.371490
     14          6           0        0.329982   -3.847654    0.686616
     15          8           0        0.485196   -3.381182   -0.420819
     16          8           0        1.096434   -4.683740    1.382330
     17          7           0       -4.882709    2.663454    1.499035
     18          6           0       -3.959102    2.445186    2.491445
     19          6           0       -3.724414    3.683985    3.104120
     20          6           0       -4.492992    4.574989    2.564596
     21          6           0       -5.262540    3.988287    1.511464
     22          6           0       -2.730839    3.755690    4.325300
     23          6           0       -4.614132    5.966334    2.913745
     24          8           0       -3.999384    6.489677    3.914459
     25          7           0       -6.949915    2.597549   -0.643680
     26          6           0       -7.000296    3.954653   -0.307973
     27          6           0       -7.994303    4.625624   -1.286546
     28          6           0       -8.467990    3.689492   -2.089897
     29          6           0       -7.804041    2.416365   -1.744056
     30          6           0       -8.362015    5.985449   -1.214197
     31          6           0       -9.478937    3.903521   -3.265644
     32          6           0       -9.001550    3.865661   -4.595259
     33          7           0       -6.204987   -0.108147   -1.200550
     34          6           0       -7.203829    0.036982   -2.152247
     35          6           0       -7.467114   -1.355109   -2.742067
     36          6           0       -6.582439   -2.193814   -2.113187
     37          6           0       -5.794997   -1.385217   -1.206060
     38          6           0       -8.564020   -1.634112   -3.759473
     39          6           0       -6.138373   -3.539685   -2.039414
     40          8           0       -6.519154   -4.606932   -2.604841
     41          6           0       -4.988202   -3.550913   -0.916666
     42          6           0       -5.325800   -4.735193    0.079915
     43          8           0       -5.794873   -4.601052    1.263808
     44          8           0       -4.974914   -5.914569   -0.363027
     45          6           0       -5.210549   -6.962820    0.509901
     46          6           0        2.343537   -4.993947    0.732665
     47          6           0        3.363739   -3.941723    1.051189
     48          6           0        3.994210   -3.146924    0.169841
     49          6           0        3.706514   -3.165409   -1.299988
     50          6           0        5.080359   -2.208221    0.695016
     51          6           0        6.432604   -2.702054    0.127685
     52          6           0        7.576161   -1.795307    0.616931
     53          6           0        8.894073   -2.069972   -0.223981
     54          6           0        9.389779   -3.458346   -0.011898
     55          6           0        9.937724   -0.912685    0.194460
     56          6           0       11.265811   -0.881011   -0.373419
     57          6           0       12.091997    0.333452    0.109432
     58          6           0       13.517876    0.408072   -0.637351
     59          6           0       14.412581   -0.747608   -0.273135
     60          6           0       14.238443    1.717703   -0.110374
     61          6           0       15.530321    2.179949   -0.844347
     62          6           0       16.030809    3.637577   -0.683565
     63          6           0       17.405848    3.876911   -1.310347
     64          6           0       17.235077    3.973406   -2.833051
     65          6           0       17.997985    5.224988   -0.776336
     66          1           0       -2.937591    1.045504    3.803990
     67          1           0       -6.449374    5.620054    0.939512
     68          1           0       -8.647753    1.205488   -3.087484
     69          1           0       -3.614131   -3.281874    1.748116
     70          1           0       -1.756206   -0.988996    2.753132
     71          1           0       -3.056818   -2.765458    4.373981
     72          1           0       -3.487383   -1.024655    4.785160
     73          1           0       -4.509126   -2.108832    3.791245
     74          1           0       -2.202626   -3.143139   -0.202549
     75          1           0       -1.562509   -1.695444    0.531863
     76          1           0       -0.705017   -3.052876    2.389887
     77          1           0       -1.351250   -4.361511    1.639245
     78          1           0       -1.505733    3.484378    4.174891
     79          1           0       -2.875255    4.700293    5.104459
     80          1           0       -3.110627    3.012775    5.053048
     81          1           0       -5.203123    6.696015    2.325012
     82          1           0      -10.096033    3.066953   -3.425303
     83          1           0       -9.767398    4.912428   -3.019113
     84          1           0       -9.842410    3.971793   -5.356337
     85          1           0       -8.309567    4.732318   -4.675226
     86          1           0       -8.597393    2.841728   -4.932813
     87          1           0       -8.298226   -1.049039   -4.718862
     88          1           0       -8.437576   -2.677597   -3.870921
     89          1           0       -9.503151   -1.161919   -3.279861
     90          1           0       -4.092499   -4.050364   -1.371085
     91          1           0        2.704114   -5.992393    1.128756
     92          1           0        2.185729   -5.023215   -0.366445
     93          1           0        3.727190   -3.846112    2.143675
     94          1           0        2.570414   -3.111820   -1.597113
     95          1           0        4.317418   -2.250147   -1.598810
     96          1           0        4.345758   -3.863092   -1.705138
     97          1           0        4.783051   -1.002025    0.649107
     98          1           0        5.284817   -2.260143    1.666662
     99          1           0        6.573262   -3.713080    0.248947
    100          1           0        6.392165   -2.560003   -0.954027
    101          1           0        7.141643   -0.700755    0.582671
    102          1           0        7.592173   -1.996692    1.656088
    103          1           0        8.509188   -1.939499   -1.226657
    104          1           0        8.654615   -4.302583   -0.359927
    105          1           0       10.448212   -3.682794   -0.612776
    106          1           0        9.630915   -3.593148    1.024875
    107          1           0        9.340990   -0.000413    0.021363
    108          1           0       10.171386   -1.127981    1.244278
    109          1           0       11.736963   -1.889461   -0.148092
    110          1           0       11.285809   -0.686728   -1.484796
    111          1           0       11.518881    1.263365   -0.160192
    112          1           0       12.427625    0.316095    1.174563
    113          1           0       13.261728    0.521183   -1.785116
    114          1           0       14.487470   -1.008338    0.805025
    115          1           0       14.038696   -1.633685   -0.694768
    116          1           0       15.301212   -0.828692   -0.738030
    117          1           0       13.632432    2.597835   -0.385172
    118          1           0       14.278572    1.599516    1.083143
    119          1           0       16.218961    1.618891   -0.961525
    120          1           0       15.303696    2.150982   -1.947349
    121          1           0       15.210705    4.267929   -0.951701
    122          1           0       16.167744    3.663894    0.510054
    123          1           0       18.242521    3.157244   -0.985627
    124          1           0       16.551852    4.786556   -3.192708
    125          1           0       18.423895    4.275966   -3.233105
    126          1           0       17.082103    2.866559   -3.265403
    127          1           0       18.314124    5.088646    0.237537
    128          1           0       18.888144    5.438975   -1.363593
    129          1           0       17.231337    6.015641   -0.848440
    130          1           0       -5.335858   -7.923139   -0.066001
    131          1           0       -6.142849   -6.909820    1.038360
    132          1           0       -4.461338   -6.791777    1.365186
    133          8           0       -7.809134    6.881163   -0.482015
    134          1           0       -9.025644    6.303326   -1.958921
 ---------------------------------------------------------------------

 SCF Done:  E(RCAM-B3LYP) =  -3043.43577537     A.U. after   16 cycles

 Excitation energies and oscillator strengths:

 Excited State   1:      Singlet-A      1.9074 eV  650.02 nm  f=0.2423  <S**2>=0.000
     243 -> 246        0.21441
     244 -> 245        0.66873
 This state for optimization and/or second-order correction.
 Total Energy, E(TD-HF/TD-KS) =  -3043.36567997
 Copying the excited state density for this state as the 1-particle RhoCI density.

 The electronic state is 1-A.
 Alpha  occ. eigenvalues --  -46.81753 -19.24547 -19.23451 -19.17452 -19.17237
 Alpha  occ. eigenvalues --  -19.17114 -19.16840 -19.15635 -14.39769 -14.38181
 Alpha  occ. eigenvalues --  -14.37649 -14.36852 -10.36300 -10.34912 -10.32120
 Alpha  occ. eigenvalues --  -10.30195 -10.29455 -10.29434 -10.28223 -10.28035
 Alpha  occ. eigenvalues --  -10.27938 -10.27727 -10.27250 -10.27135 -10.26510
 Alpha  occ. eigenvalues --  -10.26424 -10.26421 -10.26230 -10.26143 -10.25752
 Alpha  occ. eigenvalues --  -10.25382 -10.24699 -10.24396 -10.24117 -10.24103
 Alpha  occ. eigenvalues --  -10.23940 -10.23795 -10.23743 -10.23522 -10.23225
 Alpha  occ. eigenvalues --  -10.23130 -10.23058 -10.23013 -10.22931 -10.22783
 Alpha  occ. eigenvalues --  -10.22688 -10.22609 -10.22426 -10.22258 -10.22167
 Alpha  occ. eigenvalues --  -10.21941 -10.21913 -10.21858 -10.21735 -10.21628
 Alpha  occ. eigenvalues --  -10.21427 -10.21328 -10.21225 -10.21113 -10.20994
 Alpha  occ. eigenvalues --  -10.20846 -10.20580 -10.20446 -10.19536 -10.18692
 Alpha  occ. eigenvalues --  -10.18425  -3.10257  -1.85205  -1.84717  -1.84669
 Alpha  occ. eigenvalues --   -1.16545  -1.14626  -1.05901  -1.04745  -1.03660
 Alpha  occ. eigenvalues --   -1.02295  -1.02145  -1.00657  -1.00204  -0.98356
 Alpha  occ. eigenvalues --   -0.97090  -0.89871  -0.87456  -0.87375  -0.86188
 Alpha  occ. eigenvalues --   -0.85160  -0.84892  -0.84144  -0.84117  -0.83824
 Alpha  occ. eigenvalues --   -0.83133  -0.82828  -0.82222  -0.81859  -0.80891
 Alpha  occ. eigenvalues --   -0.80321  -0.79428  -0.78619  -0.77978  -0.77075
 Alpha  occ. eigenvalues --   -0.76164  -0.75275  -0.74548  -0.73839  -0.71763
 Alpha  occ. eigenvalues --   -0.71401  -0.71126  -0.70272  -0.69861  -0.69501
 Alpha  occ. eigenvalues --   -0.69127  -0.68667  -0.67842  -0.66766  -0.66348
 Alpha  occ. eigenvalues --   -0.65974  -0.65317  -0.64751  -0.63416  -0.63065
 Alpha  occ. eigenvalues --   -0.62020  -0.61682  -0.60900  -0.60517  -0.59644
 Alpha  occ. eigenvalues --   -0.58592  -0.58385  -0.58286  -0.57314  -0.57294
 Alpha  occ. eigenvalues --   -0.57064  -0.56472  -0.56042  -0.55613  -0.54892
 Alpha  occ. eigenvalues --   -0.54680  -0.54130  -0.53963  -0.53404  -0.52942
 Alpha  occ. eigenvalues --   -0.52321  -0.52100  -0.51882  -0.51757  -0.51582
 Alpha  occ. eigenvalues --   -0.51330  -0.50419  -0.49937  -0.49670  -0.49557
 Alpha  occ. eigenvalues --   -0.49186  -0.49041  -0.48514  -0.48468  -0.48110
 Alpha  occ. eigenvalues --   -0.47783  -0.47550  -0.47270  -0.47055  -0.46929
 Alpha  occ. eigenvalues --   -0.46637  -0.46559  -0.46323  -0.45946  -0.45698
 Alpha  occ. eigenvalues --   -0.45477  -0.45364  -0.45018  -0.44923  -0.44870
 Alpha  occ. eigenvalues --   -0.44624  -0.44398  -0.44294  -0.44271  -0.43996
 Alpha  occ. eigenvalues --   -0.43824  -0.43553  -0.43329  -0.43099  -0.43033
 Alpha  occ. eigenvalues --   -0.42809  -0.42711  -0.42541  -0.42306  -0.41645
 Alpha  occ. eigenvalues --   -0.41229  -0.41150  -0.40931  -0.40748  -0.40518
 Alpha  occ. eigenvalues --   -0.40386  -0.40210  -0.40194  -0.39806  -0.39617
 Alpha  occ. eigenvalues --   -0.39603  -0.39466  -0.39301  -0.38916  -0.38832
 Alpha  occ. eigenvalues --   -0.38714  -0.38463  -0.38395  -0.38095  -0.37973
 Alpha  occ. eigenvalues --   -0.37734  -0.37315  -0.37238  -0.36986  -0.36911
 Alpha  occ. eigenvalues --   -0.36694  -0.36654  -0.35977  -0.35964  -0.35839
 Alpha  occ. eigenvalues --   -0.35718  -0.35373  -0.35360  -0.34914  -0.34533
 Alpha  occ. eigenvalues --   -0.34370  -0.34162  -0.34132  -0.33759  -0.33387
 Alpha  occ. eigenvalues --   -0.33248  -0.32819  -0.32208  -0.31916  -0.31816
 Alpha  occ. eigenvalues --   -0.31034  -0.30865  -0.30620  -0.30046  -0.29988
 Alpha  occ. eigenvalues --   -0.29438  -0.29243  -0.28366  -0.28246  -0.28099
 Alpha  occ. eigenvalues --   -0.27031  -0.26397  -0.23848  -0.21543
 Alpha virt. eigenvalues --   -0.09245  -0.06941  -0.02922  -0.01512  -0.00215
 Alpha virt. eigenvalues --    0.02168   0.02784   0.03777   0.04084   0.04383
 Alpha virt. eigenvalues --    0.04672   0.05298   0.07282   0.08095   0.08924

 Mulliken charges:
               1
     1  Mg   0.827364
     2  C    0.116739
     3  C   -0.135675
     4  C   -0.173831
     5  C   -0.105031
     6  N   -0.650759
     7  C    0.293579
     8  C   -0.147618
     9  C   -0.143999
    10  C    0.318680
    11  C   -0.305961
    12  C   -0.152769
    13  C   -0.261766
    14  C    0.628328
    15  O   -0.472591
    16  O   -0.448626
    17  N   -0.739471
    18  C    0.305599
    19  C    0.063484
    20  C    0.001728
    21  C    0.312430
    22  C   -0.370140
    23  C    0.202675
    24  O   -0.447877
    25  N   -0.682590
    26  C    0.300394
    27  C    0.028109
    28  C    0.020222
    29  C    0.280877
    30  C    0.216688
    31  C   -0.196949
    32  C   -0.305037
    33  N   -0.737420
    34  C    0.269413
    35  C   -0.028437
    36  C    0.097228
    37  C    0.313239
    38  C   -0.360174
    39  C    0.335705
    40  O   -0.489256
    41  C   -0.335916
    42  C    0.596802
    43  O   -0.516728
    44  O   -0.379674
    45  C   -0.096557
    46  C   -0.020428
    47  C   -0.129795
    48  C    0.130073
    49  C   -0.387851
    50  C   -0.221763
    51  C   -0.193548
    52  C   -0.180414
    53  C   -0.056990
    54  C   -0.304244
    55  C   -0.152351
    56  C   -0.169795
    57  C   -0.163823
    58  C   -0.072204
    59  C   -0.307393
    60  C   -0.145476
    61  C   -0.165121
    62  C   -0.158444
    63  C   -0.059577
    64  C   -0.277541
    65  C   -0.304935
    66  H    0.082495
    67  H    0.137358
    68  H    0.035216
    69  H    0.124865
    70  H    0.084920
    71  H    0.097654
    72  H    0.091694
    73  H    0.146231
    74  H    0.109191
    75  H    0.109226
    76  H    0.119979
    77  H    0.132856
    78  H    0.100722
    79  H    0.139662
    80  H    0.118271
    81  H    0.098676
    82  H    0.118310
    83  H    0.107786
    84  H    0.110671
    85  H    0.106591
    86  H    0.100482
    87  H    0.127691
    88  H    0.158474
    89  H    0.129681
    90  H    0.161332
    91  H    0.115605
    92  H    0.131282
    93  H    0.071099
    94  H    0.158495
    95  H    0.100512
    96  H    0.133547
    97  H    0.076116
    98  H    0.107030
    99  H    0.111259
   100  H    0.087785
   101  H    0.078006
   102  H    0.095577
   103  H    0.089775
   104  H    0.093451
   105  H    0.077454
   106  H    0.111567
   107  H    0.086351
   108  H    0.089173
   109  H    0.087113
   110  H    0.078460
   111  H    0.089381
   112  H    0.083390
   113  H    0.067632
   114  H    0.098299
   115  H    0.100136
   116  H    0.112538
   117  H    0.081038
   118  H    0.065432
   119  H    0.084674
   120  H    0.066479
   121  H    0.095456
   122  H    0.062872
   123  H    0.087194
   124  H    0.113107
   125  H    0.051919
   126  H    0.094072
   127  H    0.104819
   128  H    0.095580
   129  H    0.098359
   130  H    0.127444
   131  H    0.147593
   132  H    0.116202
   133  O   -0.453313
   134  H    0.077191
 Sum of Mulliken charges =   0.00000

 Dipole moment (field-independent basis, Debye):
    X=              1.0842    Y=             -6.0404    Z=             -2.2476  Tot=              6.5356
 Quadrupole moment (field-independent basis, Debye-Ang):
   XX=           -362.9561   YY=           -442.8590   ZZ=           -396.4642
   XY=             -2.4772   XZ=             30.6159   YZ=            -38.8957

 Normal termination of Gaussian 09 at Tue Oct  8 14:15:11 2019.
