 Gaussian 09, Revision D.01,
 Gaussian 09:  ES64L-G09RevD.01 24-Apr-2013

 ----------------------------------------------------------------------
 # td=(NStates=1) iop(3/107=0140000000,3/108=0140000000) iop(3/107=0140
 000000,3/108=0140000000) CAM-B3LYP/6-31G(d,p)
 ----------------------------------------------------------------------

 --
 TD
 --
 Symbolic Z-matrix:
 Charge =  0 Multiplicity = 1

                         Standard orientation:
 ---------------------------------------------------------------------
 Center     Atomic      Atomic             Coordinates (Angstroms)
 Number     Number       Type             X           Y           Z
 ---------------------------------------------------------------------
      1         12           0       -5.567130    1.308960    0.118817
      2          6           0       -5.050688   -2.197131   -0.317527
      3          6           0       -3.295268    1.189779    2.709216
      4          6           0       -6.154854    4.543630    0.680897
      5          6           0       -7.909779    1.293085   -2.395800
      6          7           0       -4.344995   -0.286387    1.058444
      7          6           0       -4.254667   -1.544793    0.632558
      8          6           0       -3.265921   -2.331077    1.506040
      9          6           0       -3.048573   -1.347041    2.605480
     10          6           0       -3.582029   -0.084177    2.087885
     11          6           0       -3.569866   -1.752917    4.014314
     12          6           0       -1.966981   -2.693689    0.709766
     13          6           0       -1.013132   -3.628023    1.421064
     14          6           0        0.295163   -3.993573    0.665616
     15          8           0        0.614775   -3.362196   -0.419786
     16          8           0        1.010833   -4.898803    1.208807
     17          7           0       -4.867192    2.640248    1.549978
     18          6           0       -3.919007    2.456822    2.529776
     19          6           0       -3.545754    3.716148    3.200482
     20          6           0       -4.438092    4.681796    2.520545
     21          6           0       -5.170518    3.992652    1.508649
     22          6           0       -2.566354    3.800469    4.250959
     23          6           0       -4.351962    6.183852    2.787187
     24          8           0       -3.770520    6.609191    3.757101
     25          7           0       -6.676931    2.661864   -0.798814
     26          6           0       -6.834859    3.969835   -0.325371
     27          6           0       -7.823950    4.608884   -1.164501
     28          6           0       -8.382076    3.710302   -2.042957
     29          6           0       -7.648073    2.435835   -1.792621
     30          6           0       -8.162841    6.063982   -1.155261
     31          6           0       -9.337046    3.899806   -3.029899
     32          6           0       -8.706635    3.947648   -4.465591
     33          7           0       -6.213703   -0.170208   -1.285287
     34          6           0       -7.249213    0.067443   -2.134496
     35          6           0       -7.609206   -1.262949   -2.761901
     36          6           0       -6.742801   -2.162890   -2.068098
     37          6           0       -5.890533   -1.462705   -1.203534
     38          6           0       -8.712521   -1.626483   -3.724899
     39          6           0       -6.279516   -3.607392   -2.022820
     40          8           0       -6.639877   -4.632059   -2.575030
     41          6           0       -5.071064   -3.556075   -0.932583
     42          6           0       -5.357030   -4.591215    0.144398
     43          8           0       -5.939189   -4.463739    1.230605
     44          8           0       -5.063778   -5.774183   -0.223795
     45          6           0       -5.340845   -6.821003    0.707782
     46          6           0        2.298065   -5.162204    0.679513
     47          6           0        3.297272   -4.114989    0.912268
     48          6           0        3.916299   -3.272481    0.063211
     49          6           0        3.542988   -3.079312   -1.254397
     50          6           0        5.092172   -2.447667    0.698618
     51          6           0        6.460371   -2.888548    0.138229
     52          6           0        7.565504   -1.989169    0.686915
     53          6           0        8.893629   -2.051526   -0.115743
     54          6           0        9.549830   -3.369477    0.002495
     55          6           0        9.940034   -0.906425    0.341732
     56          6           0       11.191436   -0.918361   -0.406868
     57          6           0       12.166901    0.325377    0.173821
     58          6           0       13.456925    0.395955   -0.688925
     59          6           0       14.244499   -0.835220   -0.550269
     60          6           0       14.231593    1.726193   -0.227604
     61          6           0       15.540546    2.106953   -1.003569
     62          6           0       15.980858    3.433960   -0.694186
     63          6           0       17.370111    3.892312   -1.224835
     64          6           0       17.165064    4.076209   -2.727132
     65          6           0       17.761582    5.203661   -0.600078
     66          1           0       -2.878964    1.104011    3.615533
     67          1           0       -6.662240    5.555393    0.648284
     68          1           0       -8.955866    1.380258   -3.178572
     69          1           0       -3.756481   -3.174801    1.839070
     70          1           0       -2.010239   -1.340664    2.775111
     71          1           0       -3.349671   -2.741721    4.294254
     72          1           0       -3.392078   -1.056937    4.775789
     73          1           0       -4.769412   -1.795098    3.965250
     74          1           0       -2.202275   -3.306702   -0.012637
     75          1           0       -1.272692   -1.824826    0.283118
     76          1           0       -0.524217   -3.493366    2.489765
     77          1           0       -1.310413   -4.556666    1.591735
     78          1           0       -1.639018    3.457404    3.930489
     79          1           0       -2.726516    4.945469    4.572964
     80          1           0       -2.736329    3.078601    5.239896
     81          1           0       -4.879017    6.858491    2.194846
     82          1           0      -10.142169    3.147674   -3.028768
     83          1           0       -9.980375    4.931794   -2.862638
     84          1           0       -9.596207    4.207380   -5.275694
     85          1           0       -7.926591    4.887761   -4.796315
     86          1           0       -8.247344    2.871113   -4.800796
     87          1           0       -8.829801   -0.936219   -4.647423
     88          1           0       -8.517649   -2.606241   -4.313018
     89          1           0       -9.867120   -1.472549   -3.321440
     90          1           0       -4.401126   -3.858537   -1.647961
     91          1           0        2.629548   -6.288183    0.783364
     92          1           0        2.090792   -5.116560   -0.417768
     93          1           0        3.604047   -4.342455    2.046652
     94          1           0        2.584451   -3.342007   -1.346904
     95          1           0        3.454628   -1.927022   -1.425209
     96          1           0        4.361987   -3.445819   -1.942329
     97          1           0        4.994997   -1.440909    0.691274
     98          1           0        4.975821   -2.583248    1.731384
     99          1           0        6.736182   -3.897296    0.481235
    100          1           0        6.513206   -2.864508   -1.075974
    101          1           0        7.025274   -0.789843    0.763384
    102          1           0        8.010251   -2.255118    1.826536
    103          1           0        8.860565   -1.503572   -1.063541
    104          1           0        8.721199   -4.015245   -0.461995
    105          1           0       10.434727   -3.527561   -0.569780
    106          1           0        9.703194   -3.751713    0.968053
    107          1           0        9.371521    0.190665    0.033866
    108          1           0        9.989853   -0.932080    1.426125
    109          1           0       11.884657   -1.669443   -0.196090
    110          1           0       11.175478   -0.852693   -1.400770
    111          1           0       11.433812    1.321455   -0.038883
    112          1           0       12.389137    0.188181    1.103099
    113          1           0       13.193689    0.600490   -1.782074
    114          1           0       14.624277   -0.649056    0.632064
    115          1           0       13.669347   -1.818727   -0.911580
    116          1           0       15.163980   -0.759110   -0.975543
    117          1           0       13.495245    2.519063   -0.290906
    118          1           0       14.484597    1.476441    0.888231
    119          1           0       16.371981    1.249781   -1.061456
    120          1           0       15.192627    2.068153   -2.161908
    121          1           0       15.441191    4.392588   -0.953065
    122          1           0       15.946499    3.491195    0.398950
    123          1           0       18.138098    3.276014   -0.940886
    124          1           0       16.483445    4.986250   -2.853393
    125          1           0       18.008226    4.423061   -3.379235
    126          1           0       16.692846    3.145350   -2.969257
    127          1           0       17.781818    5.162132    0.545756
    128          1           0       18.667847    5.597954   -1.108658
    129          1           0       16.999445    5.972595   -0.841973
    130          1           0       -4.897249   -7.661210    0.077145
    131          1           0       -6.391991   -6.907227    0.932104
    132          1           0       -4.547117   -6.652069    1.476661
    133          8           0       -7.806822    6.802013   -0.259195
    134          1           0       -8.863531    6.657901   -1.900961
 ---------------------------------------------------------------------

 SCF Done:  E(RCAM-B3LYP) =  -3043.32030818     A.U. after   16 cycles

 Excitation energies and oscillator strengths:

 Excited State   1:      Singlet-A      1.9724 eV  628.61 nm  f=0.2358  <S**2>=0.000
     243 -> 246        0.24235
     244 -> 245        0.65277
 This state for optimization and/or second-order correction.
 Total Energy, E(TD-HF/TD-KS) =  -3043.24782537
 Copying the excited state density for this state as the 1-particle RhoCI density.

 The electronic state is 1-A.
 Alpha  occ. eigenvalues --  -46.81925 -19.24335 -19.22208 -19.18207 -19.17873
 Alpha  occ. eigenvalues --  -19.17115 -19.15686 -19.15221 -14.38956 -14.36753
 Alpha  occ. eigenvalues --  -14.36400 -14.36289 -10.35330 -10.33907 -10.32224
 Alpha  occ. eigenvalues --  -10.32041 -10.29987 -10.28331 -10.27747 -10.27291
 Alpha  occ. eigenvalues --  -10.27158 -10.26906 -10.26578 -10.26575 -10.26283
 Alpha  occ. eigenvalues --  -10.26194 -10.26053 -10.25587 -10.25585 -10.25433
 Alpha  occ. eigenvalues --  -10.25079 -10.24962 -10.24889 -10.24800 -10.24559
 Alpha  occ. eigenvalues --  -10.24314 -10.24301 -10.23853 -10.23704 -10.23702
 Alpha  occ. eigenvalues --  -10.23006 -10.23000 -10.22895 -10.22882 -10.22859
 Alpha  occ. eigenvalues --  -10.22613 -10.22613 -10.22395 -10.22260 -10.22255
 Alpha  occ. eigenvalues --  -10.22065 -10.21904 -10.21847 -10.21844 -10.21748
 Alpha  occ. eigenvalues --  -10.21528 -10.21433 -10.21161 -10.20394 -10.20323
 Alpha  occ. eigenvalues --  -10.20288 -10.20150 -10.20130 -10.20003 -10.19599
 Alpha  occ. eigenvalues --  -10.19408  -3.10342  -1.85296  -1.84818  -1.84727
 Alpha  occ. eigenvalues --   -1.16544  -1.16010  -1.08521  -1.07388  -1.07181
 Alpha  occ. eigenvalues --   -1.02848  -1.02368  -1.01013  -0.99911  -0.98762
 Alpha  occ. eigenvalues --   -0.97827  -0.88718  -0.86908  -0.86764  -0.86243
 Alpha  occ. eigenvalues --   -0.85695  -0.84951  -0.84859  -0.83789  -0.83557
 Alpha  occ. eigenvalues --   -0.82674  -0.82198  -0.81622  -0.80604  -0.80130
 Alpha  occ. eigenvalues --   -0.79185  -0.78521  -0.78068  -0.77939  -0.77149
 Alpha  occ. eigenvalues --   -0.76376  -0.74598  -0.74145  -0.73590  -0.71765
 Alpha  occ. eigenvalues --   -0.71487  -0.70561  -0.70371  -0.70200  -0.69310
 Alpha  occ. eigenvalues --   -0.69103  -0.68911  -0.67380  -0.66386  -0.65815
 Alpha  occ. eigenvalues --   -0.65554  -0.65406  -0.63756  -0.62792  -0.61862
 Alpha  occ. eigenvalues --   -0.61506  -0.60784  -0.60477  -0.59931  -0.59136
 Alpha  occ. eigenvalues --   -0.58779  -0.58302  -0.58250  -0.57656  -0.57146
 Alpha  occ. eigenvalues --   -0.56424  -0.56338  -0.56069  -0.55708  -0.55363
 Alpha  occ. eigenvalues --   -0.54132  -0.53781  -0.53435  -0.53119  -0.52956
 Alpha  occ. eigenvalues --   -0.52720  -0.52181  -0.52117  -0.50827  -0.50469
 Alpha  occ. eigenvalues --   -0.50277  -0.50176  -0.49962  -0.49608  -0.49510
 Alpha  occ. eigenvalues --   -0.49294  -0.48761  -0.48450  -0.47889  -0.47698
 Alpha  occ. eigenvalues --   -0.47452  -0.47266  -0.47140  -0.46888  -0.46495
 Alpha  occ. eigenvalues --   -0.46324  -0.46283  -0.46178  -0.46009  -0.45472
 Alpha  occ. eigenvalues --   -0.45269  -0.45113  -0.45035  -0.44911  -0.44808
 Alpha  occ. eigenvalues --   -0.44373  -0.44173  -0.43994  -0.43822  -0.43665
 Alpha  occ. eigenvalues --   -0.43483  -0.43289  -0.42889  -0.42684  -0.42670
 Alpha  occ. eigenvalues --   -0.42417  -0.42388  -0.42263  -0.42096  -0.42039
 Alpha  occ. eigenvalues --   -0.41709  -0.41506  -0.41233  -0.41154  -0.40941
 Alpha  occ. eigenvalues --   -0.40830  -0.40544  -0.40244  -0.40229  -0.40170
 Alpha  occ. eigenvalues --   -0.40017  -0.39768  -0.39565  -0.39251  -0.39035
 Alpha  occ. eigenvalues --   -0.38857  -0.38673  -0.38667  -0.38171  -0.37787
 Alpha  occ. eigenvalues --   -0.37629  -0.37451  -0.37121  -0.37095  -0.36832
 Alpha  occ. eigenvalues --   -0.36781  -0.36121  -0.36059  -0.35614  -0.35299
 Alpha  occ. eigenvalues --   -0.35270  -0.35012  -0.34663  -0.34402  -0.34335
 Alpha  occ. eigenvalues --   -0.33802  -0.33530  -0.33477  -0.33309  -0.32982
 Alpha  occ. eigenvalues --   -0.32708  -0.31889  -0.31815  -0.31359  -0.31100
 Alpha  occ. eigenvalues --   -0.31079  -0.30027  -0.29533  -0.29248  -0.28747
 Alpha  occ. eigenvalues --   -0.28374  -0.27986  -0.27704  -0.27669  -0.27426
 Alpha  occ. eigenvalues --   -0.27083  -0.26683  -0.22795  -0.21416
 Alpha virt. eigenvalues --   -0.08958  -0.06105  -0.01811  -0.00813   0.00618
 Alpha virt. eigenvalues --    0.03131   0.03577   0.03970   0.04191   0.04210
 Alpha virt. eigenvalues --    0.05037   0.05528   0.06423   0.08172   0.09152

 Mulliken charges:
               1
     1  Mg   0.833984
     2  C    0.147916
     3  C   -0.168777
     4  C   -0.168173
     5  C   -0.163766
     6  N   -0.594936
     7  C    0.285103
     8  C   -0.165008
     9  C   -0.145435
    10  C    0.347836
    11  C   -0.322319
    12  C   -0.160972
    13  C   -0.264371
    14  C    0.571280
    15  O   -0.523233
    16  O   -0.402706
    17  N   -0.696621
    18  C    0.288252
    19  C    0.075188
    20  C   -0.079614
    21  C    0.306935
    22  C   -0.409956
    23  C    0.264917
    24  O   -0.405273
    25  N   -0.763748
    26  C    0.327194
    27  C   -0.057330
    28  C    0.129019
    29  C    0.336614
    30  C    0.240508
    31  C   -0.302643
    32  C   -0.287869
    33  N   -0.726560
    34  C    0.271080
    35  C    0.031778
    36  C    0.005293
    37  C    0.248549
    38  C   -0.389684
    39  C    0.350956
    40  O   -0.446996
    41  C   -0.329524
    42  C    0.611388
    43  O   -0.522818
    44  O   -0.405221
    45  C   -0.080234
    46  C   -0.029256
    47  C   -0.130211
    48  C    0.150387
    49  C   -0.374651
    50  C   -0.217963
    51  C   -0.162686
    52  C   -0.141523
    53  C   -0.058320
    54  C   -0.309029
    55  C   -0.172138
    56  C   -0.182734
    57  C   -0.153049
    58  C   -0.072407
    59  C   -0.278716
    60  C   -0.174985
    61  C   -0.172968
    62  C   -0.148421
    63  C   -0.068793
    64  C   -0.295226
    65  C   -0.307471
    66  H    0.072146
    67  H    0.143279
    68  H    0.086292
    69  H    0.125014
    70  H    0.118383
    71  H    0.123480
    72  H    0.121306
    73  H    0.097730
    74  H    0.126371
    75  H    0.128311
    76  H    0.113378
    77  H    0.136214
    78  H    0.142699
    79  H    0.161437
    80  H    0.100045
    81  H    0.096081
    82  H    0.130237
    83  H    0.098451
    84  H    0.088680
    85  H    0.101279
    86  H    0.108627
    87  H    0.109169
    88  H    0.141072
    89  H    0.113874
    90  H    0.162174
    91  H    0.120593
    92  H    0.115802
    93  H    0.064011
    94  H    0.161359
    95  H    0.101325
    96  H    0.113095
    97  H    0.106624
    98  H    0.107349
    99  H    0.111714
   100  H    0.082449
   101  H    0.044174
   102  H    0.061975
   103  H    0.093658
   104  H    0.088601
   105  H    0.111908
   106  H    0.111279
   107  H    0.041595
   108  H    0.085222
   109  H    0.104484
   110  H    0.102224
   111  H    0.055219
   112  H    0.101462
   113  H    0.071535
   114  H    0.059853
   115  H    0.097789
   116  H    0.115066
   117  H    0.106397
   118  H    0.069709
   119  H    0.086988
   120  H    0.071075
   121  H    0.089915
   122  H    0.085133
   123  H    0.094293
   124  H    0.087405
   125  H    0.094150
   126  H    0.106146
   127  H    0.090290
   128  H    0.096329
   129  H    0.088216
   130  H    0.116735
   131  H    0.153993
   132  H    0.123251
   133  O   -0.402040
   134  H    0.076077
 Sum of Mulliken charges =   0.00000

 Dipole moment (field-independent basis, Debye):
    X=              1.7390    Y=             -3.7461    Z=             -1.6169  Tot=              4.4353
 Quadrupole moment (field-independent basis, Debye-Ang):
   XX=           -368.1310   YY=           -422.3737   ZZ=           -396.2023
   XY=            -17.3732   XZ=             24.9434   YZ=            -38.8880

 Normal termination of Gaussian 09 at Fri Oct  4 10:51:14 2019.
