 Gaussian 09, Revision D.01,
 Gaussian 09:  ES64L-G09RevD.01 24-Apr-2013

 ----------------------------------------------------------------------
 # td=(NStates=1) iop(3/107=0140000000,3/108=0140000000) iop(3/107=0140
 000000,3/108=0140000000) CAM-B3LYP/6-31G(d,p)
 ----------------------------------------------------------------------

 --
 TD
 --
 Symbolic Z-matrix:
 Charge =  0 Multiplicity = 1

                         Standard orientation:
 ---------------------------------------------------------------------
 Center     Atomic      Atomic             Coordinates (Angstroms)
 Number     Number       Type             X           Y           Z
 ---------------------------------------------------------------------
      1         12           0       -5.608639    1.179963    0.174063
      2          6           0       -4.982120   -2.186564   -0.397705
      3          6           0       -3.234767    1.228660    2.679789
      4          6           0       -6.206464    4.537237    0.677166
      5          6           0       -8.032457    1.125710   -2.229379
      6          7           0       -4.442081   -0.219887    1.064117
      7          6           0       -4.237024   -1.572191    0.679525
      8          6           0       -3.177261   -2.271125    1.456745
      9          6           0       -2.920151   -1.368453    2.645259
     10          6           0       -3.595390   -0.034378    2.116686
     11          6           0       -3.498842   -1.768017    3.872314
     12          6           0       -2.025589   -2.740959    0.599290
     13          6           0       -0.866531   -3.427647    1.354858
     14          6           0        0.296124   -3.826520    0.613621
     15          8           0        0.528624   -3.449950   -0.533875
     16          8           0        1.145705   -4.493768    1.320317
     17          7           0       -4.879017    2.541209    1.480671
     18          6           0       -3.917644    2.463301    2.469525
     19          6           0       -3.640365    3.746683    3.095626
     20          6           0       -4.535595    4.612039    2.517692
     21          6           0       -5.248924    3.951452    1.501560
     22          6           0       -2.787182    3.936126    4.331163
     23          6           0       -4.570007    6.137140    2.765307
     24          8           0       -4.021795    6.666007    3.673314
     25          7           0       -6.924749    2.640779   -0.622446
     26          6           0       -6.968001    3.937003   -0.364640
     27          6           0       -7.964170    4.487513   -1.216938
     28          6           0       -8.423609    3.524545   -2.028467
     29          6           0       -7.768632    2.374330   -1.675737
     30          6           0       -8.365780    5.956311   -1.191702
     31          6           0       -9.515787    3.728456   -3.109178
     32          6           0       -8.879859    3.897365   -4.527092
     33          7           0       -6.398330   -0.170653   -1.044426
     34          6           0       -7.391334   -0.099842   -1.981922
     35          6           0       -7.558969   -1.390361   -2.673112
     36          6           0       -6.643447   -2.259287   -2.097804
     37          6           0       -5.906581   -1.465950   -1.130711
     38          6           0       -8.552936   -1.604071   -3.736131
     39          6           0       -6.208446   -3.540472   -1.924869
     40          8           0       -6.636866   -4.552314   -2.472808
     41          6           0       -5.110549   -3.606800   -0.933781
     42          6           0       -5.321005   -4.647810    0.123975
     43          8           0       -5.664194   -4.465601    1.254103
     44          8           0       -5.125236   -5.885572   -0.369927
     45          6           0       -5.540017   -6.963234    0.566361
     46          6           0        2.436553   -4.998170    0.812015
     47          6           0        3.440688   -4.071297    1.015731
     48          6           0        4.049792   -3.159888    0.198390
     49          6           0        3.744358   -3.111346   -1.269610
     50          6           0        5.133642   -2.283535    0.665917
     51          6           0        6.538574   -2.616061    0.094661
     52          6           0        7.631647   -1.818207    0.668378
     53          6           0        9.012758   -1.861454   -0.131753
     54          6           0        9.468533   -3.355762   -0.112627
     55          6           0       10.014578   -0.933552    0.331524
     56          6           0       11.375854   -0.925162   -0.256816
     57          6           0       12.204821    0.342393    0.137485
     58          6           0       13.628243    0.342914   -0.509852
     59          6           0       14.498250   -0.821659   -0.120734
     60          6           0       14.312909    1.729119   -0.288334
     61          6           0       15.592813    2.031475   -0.975475
     62          6           0       16.066675    3.484392   -0.588101
     63          6           0       17.248509    3.850206   -1.376901
     64          6           0       16.998078    4.040580   -2.885295
     65          6           0       17.865557    5.192747   -0.808130
     66          1           0       -2.507135    1.306739    3.384099
     67          1           0       -6.246545    5.673439    0.657624
     68          1           0       -8.787230    1.125379   -3.116312
     69          1           0       -3.518985   -3.199844    2.258914
     70          1           0       -1.871562   -1.304434    2.676682
     71          1           0       -3.132554   -2.440623    4.409942
     72          1           0       -3.372215   -0.873578    4.352812
     73          1           0       -4.855782   -1.775186    3.916346
     74          1           0       -2.573259   -3.362145   -0.109326
     75          1           0       -1.645378   -1.780617    0.002794
     76          1           0       -0.541214   -3.115848    2.322249
     77          1           0       -1.302815   -4.416770    1.526458
     78          1           0       -1.675392    3.995373    3.890505
     79          1           0       -2.719499    4.805799    4.925739
     80          1           0       -2.811492    3.062855    5.050925
     81          1           0       -5.193416    6.479012    2.025793
     82          1           0      -10.173965    2.784107   -3.049051
     83          1           0      -10.175184    4.550502   -2.754688
     84          1           0       -9.806754    4.029445   -5.361354
     85          1           0       -8.148420    4.836260   -4.630706
     86          1           0       -8.255613    3.093244   -4.684481
     87          1           0       -8.591015   -1.013305   -4.558135
     88          1           0       -8.247449   -2.627927   -3.976212
     89          1           0       -9.496915   -1.630138   -3.377125
     90          1           0       -4.265949   -3.876048   -1.571676
     91          1           0        2.462223   -5.823451    1.394994
     92          1           0        2.278806   -5.288983   -0.270189
     93          1           0        3.647693   -4.142412    2.045579
     94          1           0        2.720363   -3.407730   -1.585169
     95          1           0        3.854422   -1.963402   -1.580595
     96          1           0        4.502525   -3.658384   -1.893720
     97          1           0        4.943212   -1.313618    0.589670
     98          1           0        5.300812   -2.395810    1.773123
     99          1           0        6.945862   -3.655981    0.316976
    100          1           0        6.769646   -2.422529   -1.058924
    101          1           0        7.246177   -0.698727    0.574826
    102          1           0        7.838918   -1.967472    1.823140
    103          1           0        8.798538   -1.538103   -1.399356
    104          1           0        9.012783   -4.218227   -0.717832
    105          1           0       10.526085   -3.340604   -0.526216
    106          1           0        9.525609   -3.681824    1.030985
    107          1           0        9.549297    0.109083    0.239577
    108          1           0       10.207038   -0.957183    1.481478
    109          1           0       11.990038   -1.869621    0.055935
    110          1           0       11.279173   -0.837311   -1.492918
    111          1           0       11.902279    1.327430   -0.131220
    112          1           0       12.265949    0.297295    1.167901
    113          1           0       13.405102    0.386712   -1.533281
    114          1           0       14.394514   -0.988668    0.994257
    115          1           0       13.978340   -1.688140   -0.717828
    116          1           0       15.562474   -0.777665   -0.470527
    117          1           0       13.599909    2.623623   -0.474005
    118          1           0       14.633492    1.530831    0.839672
    119          1           0       16.487233    1.282027   -0.690897
    120          1           0       15.387843    1.999938   -1.978418
    121          1           0       15.246181    4.183178   -0.776488
    122          1           0       16.420468    3.496619    0.326981
    123          1           0       18.025915    2.994827   -1.413512
    124          1           0       16.286970    4.867091   -3.156594
    125          1           0       17.904420    4.476186   -3.373405
    126          1           0       16.877663    3.222550   -3.644324
    127          1           0       18.111214    4.830574    0.456704
    128          1           0       18.764776    5.497226   -1.424374
    129          1           0       16.974403    5.786962   -0.736951
    130          1           0       -5.525482   -7.888615   -0.143351
    131          1           0       -6.737440   -6.925549    0.965096
    132          1           0       -4.898056   -6.855836    1.514697
    133          8           0       -7.889165    6.908905   -0.570268
    134          1           0       -9.216460    5.979113   -1.940924
 ---------------------------------------------------------------------

 SCF Done:  E(RCAM-B3LYP) =  -3043.41010332     A.U. after   16 cycles

 Excitation energies and oscillator strengths:

 Excited State   1:      Singlet-A      2.0752 eV  597.45 nm  f=0.1491  <S**2>=0.000
     243 -> 246       -0.30357
     244 -> 245        0.63072
 This state for optimization and/or second-order correction.
 Total Energy, E(TD-HF/TD-KS) =  -3043.33384091
 Copying the excited state density for this state as the 1-particle RhoCI density.

 The electronic state is 1-A.
 Alpha  occ. eigenvalues --  -46.80434 -19.22297 -19.21451 -19.18302 -19.17977
 Alpha  occ. eigenvalues --  -19.17000 -19.15505 -19.14829 -14.39662 -14.36600
 Alpha  occ. eigenvalues --  -14.36591 -14.36094 -10.34672 -10.33504 -10.30970
 Alpha  occ. eigenvalues --  -10.30387 -10.29789 -10.29717 -10.28487 -10.28170
 Alpha  occ. eigenvalues --  -10.26756 -10.26647 -10.26273 -10.26013 -10.25774
 Alpha  occ. eigenvalues --  -10.25669 -10.25394 -10.25186 -10.25059 -10.24740
 Alpha  occ. eigenvalues --  -10.24705 -10.24592 -10.24536 -10.24169 -10.24157
 Alpha  occ. eigenvalues --  -10.24129 -10.24123 -10.24054 -10.23976 -10.23311
 Alpha  occ. eigenvalues --  -10.23172 -10.23164 -10.23150 -10.23104 -10.22846
 Alpha  occ. eigenvalues --  -10.22698 -10.22520 -10.22386 -10.22309 -10.22223
 Alpha  occ. eigenvalues --  -10.21933 -10.21855 -10.21848 -10.21748 -10.21742
 Alpha  occ. eigenvalues --  -10.21665 -10.21432 -10.21329 -10.21118 -10.20638
 Alpha  occ. eigenvalues --  -10.20628 -10.20625 -10.20493 -10.20411 -10.20062
 Alpha  occ. eigenvalues --  -10.19219  -3.09204  -1.84129  -1.83684  -1.83628
 Alpha  occ. eigenvalues --   -1.13867  -1.13551  -1.09176  -1.06065  -1.05973
 Alpha  occ. eigenvalues --   -1.04598  -1.02766  -1.01212  -0.99835  -0.98958
 Alpha  occ. eigenvalues --   -0.97563  -0.89933  -0.87460  -0.86958  -0.86008
 Alpha  occ. eigenvalues --   -0.85507  -0.85320  -0.84592  -0.84097  -0.83692
 Alpha  occ. eigenvalues --   -0.83408  -0.82916  -0.82454  -0.81725  -0.80157
 Alpha  occ. eigenvalues --   -0.79203  -0.78666  -0.77716  -0.77499  -0.76768
 Alpha  occ. eigenvalues --   -0.76024  -0.75187  -0.74880  -0.72686  -0.72186
 Alpha  occ. eigenvalues --   -0.71348  -0.70955  -0.70416  -0.70084  -0.69507
 Alpha  occ. eigenvalues --   -0.69278  -0.68940  -0.68018  -0.67027  -0.66699
 Alpha  occ. eigenvalues --   -0.66286  -0.65785  -0.64905  -0.62425  -0.61998
 Alpha  occ. eigenvalues --   -0.60652  -0.60244  -0.59309  -0.58837  -0.58663
 Alpha  occ. eigenvalues --   -0.58472  -0.58038  -0.57699  -0.57606  -0.57061
 Alpha  occ. eigenvalues --   -0.56576  -0.56189  -0.55627  -0.55332  -0.54972
 Alpha  occ. eigenvalues --   -0.54631  -0.53909  -0.53448  -0.53042  -0.52441
 Alpha  occ. eigenvalues --   -0.51777  -0.51643  -0.51505  -0.50928  -0.50851
 Alpha  occ. eigenvalues --   -0.50668  -0.50061  -0.49796  -0.49560  -0.49144
 Alpha  occ. eigenvalues --   -0.48807  -0.48691  -0.48262  -0.48098  -0.48051
 Alpha  occ. eigenvalues --   -0.47998  -0.47681  -0.47389  -0.47286  -0.47141
 Alpha  occ. eigenvalues --   -0.46887  -0.46480  -0.46247  -0.46053  -0.45709
 Alpha  occ. eigenvalues --   -0.45605  -0.45439  -0.45292  -0.45012  -0.44900
 Alpha  occ. eigenvalues --   -0.44628  -0.44316  -0.44158  -0.44014  -0.43815
 Alpha  occ. eigenvalues --   -0.43453  -0.43217  -0.43086  -0.42967  -0.42825
 Alpha  occ. eigenvalues --   -0.42731  -0.42516  -0.42329  -0.42098  -0.42033
 Alpha  occ. eigenvalues --   -0.41772  -0.41372  -0.41314  -0.41129  -0.40955
 Alpha  occ. eigenvalues --   -0.40911  -0.40712  -0.40285  -0.39981  -0.39788
 Alpha  occ. eigenvalues --   -0.39486  -0.39410  -0.39296  -0.39179  -0.39166
 Alpha  occ. eigenvalues --   -0.38727  -0.38655  -0.38299  -0.38225  -0.38087
 Alpha  occ. eigenvalues --   -0.37946  -0.37842  -0.37681  -0.37114  -0.36681
 Alpha  occ. eigenvalues --   -0.36352  -0.36179  -0.35733  -0.35652  -0.35525
 Alpha  occ. eigenvalues --   -0.35391  -0.34997  -0.34869  -0.34848  -0.34685
 Alpha  occ. eigenvalues --   -0.34304  -0.33626  -0.33427  -0.33415  -0.32983
 Alpha  occ. eigenvalues --   -0.32703  -0.32556  -0.32282  -0.31955  -0.31861
 Alpha  occ. eigenvalues --   -0.31407  -0.30803  -0.30268  -0.30062  -0.28976
 Alpha  occ. eigenvalues --   -0.28828  -0.28225  -0.28172  -0.27709  -0.27444
 Alpha  occ. eigenvalues --   -0.27402  -0.27328  -0.22878  -0.21657
 Alpha virt. eigenvalues --   -0.08226  -0.06556  -0.02259  -0.00308   0.00763
 Alpha virt. eigenvalues --    0.01715   0.03203   0.03878   0.04158   0.04717
 Alpha virt. eigenvalues --    0.05582   0.05762   0.08265   0.08515   0.08533

 Mulliken charges:
               1
     1  Mg   0.813453
     2  C    0.069335
     3  C   -0.175188
     4  C   -0.196300
     5  C   -0.187784
     6  N   -0.619934
     7  C    0.303032
     8  C   -0.146081
     9  C   -0.123184
    10  C    0.301764
    11  C   -0.270365
    12  C   -0.160177
    13  C   -0.264469
    14  C    0.584320
    15  O   -0.499107
    16  O   -0.462521
    17  N   -0.685688
    18  C    0.297974
    19  C    0.051005
    20  C   -0.072491
    21  C    0.302978
    22  C   -0.375443
    23  C    0.313802
    24  O   -0.400771
    25  N   -0.695106
    26  C    0.313632
    27  C   -0.065560
    28  C    0.036323
    29  C    0.310121
    30  C    0.284292
    31  C   -0.238368
    32  C   -0.288782
    33  N   -0.729762
    34  C    0.295045
    35  C   -0.004314
    36  C    0.126768
    37  C    0.239376
    38  C   -0.381378
    39  C    0.289244
    40  O   -0.480109
    41  C   -0.319267
    42  C    0.637850
    43  O   -0.461612
    44  O   -0.446946
    45  C   -0.081426
    46  C    0.009440
    47  C   -0.108383
    48  C    0.157747
    49  C   -0.384300
    50  C   -0.230744
    51  C   -0.160107
    52  C   -0.164084
    53  C   -0.024764
    54  C   -0.317230
    55  C   -0.145456
    56  C   -0.171038
    57  C   -0.166481
    58  C   -0.062048
    59  C   -0.309783
    60  C   -0.165336
    61  C   -0.174339
    62  C   -0.134218
    63  C   -0.060293
    64  C   -0.323936
    65  C   -0.283976
    66  H    0.068687
    67  H    0.134135
    68  H    0.088313
    69  H    0.097081
    70  H    0.108336
    71  H    0.117675
    72  H    0.118255
    73  H    0.080084
    74  H    0.118873
    75  H    0.107662
    76  H    0.140796
    77  H    0.141630
    78  H    0.103228
    79  H    0.162687
    80  H    0.118817
    81  H    0.083604
    82  H    0.103596
    83  H    0.116160
    84  H    0.087834
    85  H    0.104352
    86  H    0.128274
    87  H    0.134441
    88  H    0.145726
    89  H    0.143766
    90  H    0.176781
    91  H    0.118501
    92  H    0.114762
    93  H    0.073690
    94  H    0.156893
    95  H    0.089102
    96  H    0.122363
    97  H    0.119073
    98  H    0.097510
    99  H    0.098939
   100  H    0.086434
   101  H    0.061521
   102  H    0.076046
   103  H    0.034777
   104  H    0.109443
   105  H    0.098063
   106  H    0.084476
   107  H    0.094052
   108  H    0.075618
   109  H    0.097850
   110  H    0.057214
   111  H    0.093033
   112  H    0.093601
   113  H    0.085530
   114  H    0.099354
   115  H    0.094977
   116  H    0.104309
   117  H    0.072168
   118  H    0.061053
   119  H    0.071216
   120  H    0.103824
   121  H    0.086024
   122  H    0.100435
   123  H    0.075666
   124  H    0.088585
   125  H    0.086889
   126  H    0.102472
   127  H    0.047897
   128  H    0.109725
   129  H    0.118782
   130  H    0.131545
   131  H    0.109179
   132  H    0.135592
   133  O   -0.437906
   134  H    0.050076
 Sum of Mulliken charges =   0.00000

 Dipole moment (field-independent basis, Debye):
    X=              3.6151    Y=             -4.1722    Z=              0.1087  Tot=              5.5216
 Quadrupole moment (field-independent basis, Debye-Ang):
   XX=           -382.0504   YY=           -438.2121   ZZ=           -390.5919
   XY=              7.8486   XZ=             16.3967   YZ=            -33.7147

 Normal termination of Gaussian 09 at Tue Oct  8 22:26:11 2019.
