 Gaussian 09, Revision D.01,
 Gaussian 09:  ES64L-G09RevD.01 24-Apr-2013

 ----------------------------------------------------------------------
 # td=(NStates=1) iop(3/107=0140000000,3/108=0140000000) iop(3/107=0140
 000000,3/108=0140000000) CAM-B3LYP/6-31G(d,p)
 ----------------------------------------------------------------------

 --
 TD
 --
 Symbolic Z-matrix:
 Charge =  0 Multiplicity = 1

                         Standard orientation:
 ---------------------------------------------------------------------
 Center     Atomic      Atomic             Coordinates (Angstroms)
 Number     Number       Type             X           Y           Z
 ---------------------------------------------------------------------
      1         12           0       -5.633497    1.225647    0.070829
      2          6           0       -4.954312   -2.156218   -0.302771
      3          6           0       -3.480086    1.224325    2.601095
      4          6           0       -6.315649    4.575992    0.719131
      5          6           0       -7.916239    1.139033   -2.401320
      6          7           0       -4.490826   -0.250478    1.107244
      7          6           0       -4.263392   -1.552741    0.662427
      8          6           0       -3.162393   -2.320034    1.473343
      9          6           0       -2.924245   -1.280115    2.604004
     10          6           0       -3.614821   -0.063918    2.147272
     11          6           0       -3.449103   -1.808565    4.024921
     12          6           0       -1.877283   -2.642847    0.580277
     13          6           0       -0.923986   -3.526868    1.464185
     14          6           0        0.257101   -3.849210    0.588192
     15          8           0        0.485152   -3.362627   -0.546697
     16          8           0        1.012799   -4.758153    1.210263
     17          7           0       -4.966004    2.650150    1.462795
     18          6           0       -4.067975    2.445459    2.336471
     19          6           0       -3.762894    3.727068    3.130535
     20          6           0       -4.517700    4.700111    2.559227
     21          6           0       -5.248635    4.044083    1.416078
     22          6           0       -2.871588    3.758073    4.293250
     23          6           0       -4.718670    6.080861    2.976790
     24          8           0       -4.196452    6.637878    3.891514
     25          7           0       -6.758911    2.596619   -0.742470
     26          6           0       -6.931772    3.956123   -0.400868
     27          6           0       -7.905786    4.660260   -1.302630
     28          6           0       -8.263703    3.658136   -2.125588
     29          6           0       -7.652645    2.459677   -1.789930
     30          6           0       -8.304550    5.973445   -1.232872
     31          6           0       -9.330602    3.816594   -3.115999
     32          6           0       -8.744773    3.837719   -4.628759
     33          7           0       -6.325689   -0.144942   -1.054610
     34          6           0       -7.282794   -0.082950   -2.077833
     35          6           0       -7.570077   -1.300490   -2.667976
     36          6           0       -6.739465   -2.194671   -2.025907
     37          6           0       -5.882122   -1.435148   -1.121424
     38          6           0       -8.579931   -1.668960   -3.752842
     39          6           0       -6.211217   -3.590904   -1.918011
     40          8           0       -6.558688   -4.697152   -2.461850
     41          6           0       -5.072598   -3.530064   -0.902861
     42          6           0       -5.368944   -4.608806    0.158217
     43          8           0       -5.832301   -4.449575    1.278485
     44          8           0       -5.193642   -5.887855   -0.219910
     45          6           0       -5.456039   -6.973304    0.654866
     46          6           0        2.329524   -5.102798    0.627686
     47          6           0        3.460855   -4.109646    1.020813
     48          6           0        4.041198   -3.286371    0.252154
     49          6           0        3.723721   -3.080162   -1.296413
     50          6           0        5.219469   -2.448076    0.763240
     51          6           0        6.502645   -2.635819   -0.065295
     52          6           0        7.715689   -1.840366    0.521542
     53          6           0        9.006099   -1.987401   -0.192653
     54          6           0        9.590179   -3.512189   -0.015834
     55          6           0       10.067432   -0.941238    0.419942
     56          6           0       11.311684   -0.775342   -0.359506
     57          6           0       12.208072    0.361544    0.100416
     58          6           0       13.569781    0.499590   -0.438142
     59          6           0       14.410895   -0.750710   -0.208311
     60          6           0       14.246742    1.812442   -0.109613
     61          6           0       15.523192    1.996807   -0.873008
     62          6           0       16.076163    3.492348   -0.618053
     63          6           0       17.399941    3.871585   -1.304839
     64          6           0       17.209470    4.061471   -2.855746
     65          6           0       18.016147    5.143224   -0.730241
     66          1           0       -2.744401    1.283512    3.379560
     67          1           0       -6.550282    5.697630    0.532248
     68          1           0       -8.829350    1.130651   -3.024737
     69          1           0       -3.746166   -3.208180    1.779019
     70          1           0       -1.902592   -1.072222    2.794692
     71          1           0       -2.869217   -2.699170    4.105630
     72          1           0       -3.522925   -0.955809    4.761814
     73          1           0       -4.582207   -1.923569    3.897857
     74          1           0       -2.086391   -3.223777   -0.205893
     75          1           0       -1.561245   -1.640352    0.221481
     76          1           0       -0.681144   -2.826743    2.241385
     77          1           0       -1.475326   -4.392495    1.951514
     78          1           0       -1.970411    3.637287    4.035979
     79          1           0       -2.840279    4.802666    4.740950
     80          1           0       -2.991407    3.048479    5.351622
     81          1           0       -5.521572    6.666059    2.647229
     82          1           0      -10.040660    2.934945   -3.058923
     83          1           0      -10.018467    4.674539   -3.128589
     84          1           0       -9.527479    4.312588   -5.310742
     85          1           0       -7.690729    4.506113   -4.843477
     86          1           0       -8.334995    2.754489   -4.983490
     87          1           0       -8.108345   -1.398229   -4.992415
     88          1           0       -8.618735   -2.910489   -3.574089
     89          1           0       -9.561798   -1.086448   -3.751876
     90          1           0       -3.988992   -4.044930   -1.215623
     91          1           0        2.484942   -6.066617    0.912828
     92          1           0        2.180980   -5.134005   -0.716808
     93          1           0        3.638007   -4.234856    2.152023
     94          1           0        2.618380   -3.305201   -1.563913
     95          1           0        4.255773   -2.045338   -1.462932
     96          1           0        4.317714   -3.713584   -2.117801
     97          1           0        4.868458   -1.321926    0.577673
     98          1           0        5.569545   -2.823608    1.787955
     99          1           0        6.619281   -3.741535   -0.241099
    100          1           0        6.207927   -2.299818   -1.161527
    101          1           0        7.464217   -0.890762    0.692219
    102          1           0        7.879237   -2.103422    1.609116
    103          1           0        8.946469   -1.866126   -1.342475
    104          1           0        9.073662   -4.212345   -0.498944
    105          1           0       10.536779   -3.360157   -0.480347
    106          1           0        9.870044   -3.646627    1.159956
    107          1           0        9.649523    0.034029    0.305177
    108          1           0       10.245221   -1.378629    1.442055
    109          1           0       11.902541   -1.759726   -0.199523
    110          1           0       11.135411   -0.596996   -1.387638
    111          1           0       11.482960    1.196453   -0.196828
    112          1           0       12.265469    0.404946    1.315742
    113          1           0       13.328353    0.646690   -1.564979
    114          1           0       14.467622   -0.799223    0.957316
    115          1           0       13.761027   -1.494954   -0.321604
    116          1           0       15.263440   -0.719243   -0.857442
    117          1           0       13.659767    2.671329   -0.470312
    118          1           0       14.141480    1.787724    0.891652
    119          1           0       16.131882    1.210952   -0.408785
    120          1           0       15.365452    2.102796   -1.851873
    121          1           0       15.265495    4.126139   -0.817095
    122          1           0       16.362092    3.650134    0.517397
    123          1           0       18.043996    2.973378   -1.221037
    124          1           0       16.531651    4.701000   -3.257599
    125          1           0       18.025908    4.380299   -3.411287
    126          1           0       16.963805    3.021153   -3.210807
    127          1           0       18.210599    5.334914    0.327323
    128          1           0       18.840783    5.548534   -1.161528
    129          1           0       17.310072    5.999710   -1.047197
    130          1           0       -5.198890   -7.868868   -0.078732
    131          1           0       -6.512041   -6.961647    0.908785
    132          1           0       -4.835485   -6.837226    1.605157
    133          8           0       -7.877866    6.873121   -0.451297
    134          1           0       -9.014518    6.373184   -1.893087
 ---------------------------------------------------------------------

 SCF Done:  E(RCAM-B3LYP) =  -3043.37517952     A.U. after   16 cycles

 Excitation energies and oscillator strengths:

 Excited State   1:      Singlet-A      2.0896 eV  593.33 nm  f=0.1511  <S**2>=0.000
     243 -> 246        0.30685
     244 -> 245        0.62375
 This state for optimization and/or second-order correction.
 Total Energy, E(TD-HF/TD-KS) =  -3043.29838636
 Copying the excited state density for this state as the 1-particle RhoCI density.

 The electronic state is 1-A.
 Alpha  occ. eigenvalues --  -46.80433 -19.23382 -19.21229 -19.17588 -19.16852
 Alpha  occ. eigenvalues --  -19.16789 -19.16449 -19.16293 -14.38500 -14.37582
 Alpha  occ. eigenvalues --  -14.37186 -14.36816 -10.35836 -10.34866 -10.32284
 Alpha  occ. eigenvalues --  -10.29504 -10.29334 -10.29323 -10.28181 -10.27547
 Alpha  occ. eigenvalues --  -10.27214 -10.27110 -10.27064 -10.27050 -10.27029
 Alpha  occ. eigenvalues --  -10.26974 -10.26440 -10.26428 -10.26266 -10.26030
 Alpha  occ. eigenvalues --  -10.25483 -10.25348 -10.25290 -10.24680 -10.24534
 Alpha  occ. eigenvalues --  -10.24484 -10.24412 -10.24134 -10.23871 -10.23621
 Alpha  occ. eigenvalues --  -10.23587 -10.23484 -10.23451 -10.23274 -10.23172
 Alpha  occ. eigenvalues --  -10.23170 -10.23023 -10.22852 -10.22682 -10.22676
 Alpha  occ. eigenvalues --  -10.22364 -10.22297 -10.22241 -10.21687 -10.21595
 Alpha  occ. eigenvalues --  -10.21192 -10.21002 -10.20865 -10.20803 -10.20577
 Alpha  occ. eigenvalues --  -10.20436 -10.20096 -10.19700 -10.19487 -10.18943
 Alpha  occ. eigenvalues --  -10.18928  -3.09445  -1.84340  -1.83922  -1.83898
 Alpha  occ. eigenvalues --   -1.13384  -1.13040  -1.08301  -1.04310  -1.03593
 Alpha  occ. eigenvalues --   -1.03505  -1.03275  -1.01243  -1.00340  -0.99415
 Alpha  occ. eigenvalues --   -0.98800  -0.88938  -0.86739  -0.86224  -0.86081
 Alpha  occ. eigenvalues --   -0.85576  -0.84876  -0.84444  -0.84357  -0.83842
 Alpha  occ. eigenvalues --   -0.83217  -0.83091  -0.81889  -0.80868  -0.80056
 Alpha  occ. eigenvalues --   -0.78943  -0.78469  -0.77460  -0.77107  -0.76762
 Alpha  occ. eigenvalues --   -0.75477  -0.75093  -0.73277  -0.73043  -0.71787
 Alpha  occ. eigenvalues --   -0.71753  -0.71516  -0.71013  -0.70335  -0.70297
 Alpha  occ. eigenvalues --   -0.69987  -0.69231  -0.68243  -0.67285  -0.66806
 Alpha  occ. eigenvalues --   -0.65634  -0.65457  -0.64340  -0.62927  -0.62426
 Alpha  occ. eigenvalues --   -0.62075  -0.60629  -0.60326  -0.59427  -0.59091
 Alpha  occ. eigenvalues --   -0.58574  -0.58541  -0.57995  -0.57555  -0.56942
 Alpha  occ. eigenvalues --   -0.56555  -0.56012  -0.55681  -0.55178  -0.54682
 Alpha  occ. eigenvalues --   -0.53796  -0.53619  -0.53165  -0.52949  -0.52757
 Alpha  occ. eigenvalues --   -0.52635  -0.52300  -0.51840  -0.51757  -0.51198
 Alpha  occ. eigenvalues --   -0.50679  -0.49856  -0.49680  -0.49547  -0.49236
 Alpha  occ. eigenvalues --   -0.48842  -0.48484  -0.48299  -0.47900  -0.47758
 Alpha  occ. eigenvalues --   -0.47653  -0.47610  -0.47513  -0.47089  -0.47069
 Alpha  occ. eigenvalues --   -0.46920  -0.46634  -0.46462  -0.45996  -0.45652
 Alpha  occ. eigenvalues --   -0.45455  -0.45335  -0.44897  -0.44733  -0.44523
 Alpha  occ. eigenvalues --   -0.44357  -0.44244  -0.44014  -0.43969  -0.43776
 Alpha  occ. eigenvalues --   -0.43296  -0.43121  -0.43022  -0.42948  -0.42305
 Alpha  occ. eigenvalues --   -0.42248  -0.42147  -0.41794  -0.41674  -0.41454
 Alpha  occ. eigenvalues --   -0.41402  -0.40952  -0.40739  -0.40617  -0.40517
 Alpha  occ. eigenvalues --   -0.40383  -0.40282  -0.40228  -0.40200  -0.40143
 Alpha  occ. eigenvalues --   -0.39816  -0.39655  -0.39490  -0.39335  -0.39027
 Alpha  occ. eigenvalues --   -0.38982  -0.38942  -0.38894  -0.38612  -0.38521
 Alpha  occ. eigenvalues --   -0.38116  -0.37785  -0.37592  -0.37247  -0.36950
 Alpha  occ. eigenvalues --   -0.36917  -0.36606  -0.36402  -0.36085  -0.35929
 Alpha  occ. eigenvalues --   -0.35286  -0.35213  -0.34876  -0.34714  -0.34356
 Alpha  occ. eigenvalues --   -0.34280  -0.34018  -0.33817  -0.33093  -0.32796
 Alpha  occ. eigenvalues --   -0.32692  -0.32484  -0.32347  -0.32144  -0.31929
 Alpha  occ. eigenvalues --   -0.31377  -0.31041  -0.30600  -0.30290  -0.29542
 Alpha  occ. eigenvalues --   -0.29309  -0.29134  -0.28548  -0.28455  -0.27863
 Alpha  occ. eigenvalues --   -0.27682  -0.27335  -0.23055  -0.22016
 Alpha virt. eigenvalues --   -0.08482  -0.07122  -0.02062  -0.01538  -0.00085
 Alpha virt. eigenvalues --    0.02142   0.03246   0.03776   0.04170   0.04353
 Alpha virt. eigenvalues --    0.04452   0.05533   0.06854   0.07886   0.08885

 Mulliken charges:
               1
     1  Mg   0.850467
     2  C    0.165084
     3  C   -0.240020
     4  C   -0.176176
     5  C   -0.167786
     6  N   -0.630463
     7  C    0.261046
     8  C   -0.176747
     9  C   -0.162994
    10  C    0.396454
    11  C   -0.305499
    12  C   -0.159105
    13  C   -0.279280
    14  C    0.625318
    15  O   -0.485275
    16  O   -0.458799
    17  N   -0.664236
    18  C    0.388185
    19  C    0.059919
    20  C   -0.017473
    21  C    0.240290
    22  C   -0.394680
    23  C    0.238487
    24  O   -0.395256
    25  N   -0.690144
    26  C    0.220160
    27  C    0.061567
    28  C    0.069987
    29  C    0.283017
    30  C    0.203700
    31  C   -0.276755
    32  C   -0.303012
    33  N   -0.737073
    34  C    0.278806
    35  C    0.070968
    36  C    0.014047
    37  C    0.215443
    38  C   -0.353248
    39  C    0.390289
    40  O   -0.496393
    41  C   -0.334107
    42  C    0.590088
    43  O   -0.481131
    44  O   -0.431278
    45  C   -0.072148
    46  C    0.014518
    47  C   -0.151197
    48  C    0.180549
    49  C   -0.368228
    50  C   -0.234129
    51  C   -0.179291
    52  C   -0.132472
    53  C   -0.082224
    54  C   -0.309857
    55  C   -0.162447
    56  C   -0.180258
    57  C   -0.169504
    58  C   -0.055917
    59  C   -0.302492
    60  C   -0.153250
    61  C   -0.179142
    62  C   -0.177123
    63  C   -0.045474
    64  C   -0.331631
    65  C   -0.316910
    66  H    0.060493
    67  H    0.148796
    68  H    0.095847
    69  H    0.129417
    70  H    0.112703
    71  H    0.123978
    72  H    0.117449
    73  H    0.125717
    74  H    0.125184
    75  H    0.124903
    76  H    0.145449
    77  H    0.138053
    78  H    0.147084
    79  H    0.149544
    80  H    0.095844
    81  H    0.087268
    82  H    0.113156
    83  H    0.124011
    84  H    0.110416
    85  H    0.087823
    86  H    0.098131
    87  H    0.087893
    88  H    0.141196
    89  H    0.126415
    90  H    0.150116
    91  H    0.126028
    92  H    0.078398
    93  H    0.084751
    94  H    0.155731
    95  H    0.097180
    96  H    0.100410
    97  H    0.094274
    98  H    0.097489
    99  H    0.097777
   100  H    0.072359
   101  H    0.099362
   102  H    0.075955
   103  H    0.070903
   104  H    0.115967
   105  H    0.110361
   106  H    0.074344
   107  H    0.090821
   108  H    0.092464
   109  H    0.079242
   110  H    0.101586
   111  H    0.077158
   112  H    0.048754
   113  H    0.053713
   114  H    0.079898
   115  H    0.113998
   116  H    0.117223
   117  H    0.076567
   118  H    0.093114
   119  H    0.101469
   120  H    0.110030
   121  H    0.095662
   122  H    0.070896
   123  H    0.090149
   124  H    0.109760
   125  H    0.104825
   126  H    0.088735
   127  H    0.098915
   128  H    0.110727
   129  H    0.081333
   130  H    0.122845
   131  H    0.138761
   132  H    0.116295
   133  O   -0.457260
   134  H    0.076377
 Sum of Mulliken charges =   0.00000

 Dipole moment (field-independent basis, Debye):
    X=              3.2326    Y=             -3.7788    Z=             -0.8255  Tot=              5.0409
 Quadrupole moment (field-independent basis, Debye-Ang):
   XX=           -386.6645   YY=           -441.8219   ZZ=           -394.6807
   XY=              4.1753   XZ=             17.3931   YZ=            -38.3984

 Normal termination of Gaussian 09 at Mon Oct  7 14:58:29 2019.
