 Gaussian 09, Revision D.01,
 Gaussian 09:  ES64L-G09RevD.01 24-Apr-2013

 ----------------------------------------------------------------------
 # td=(NStates=1) iop(3/107=0140000000,3/108=0140000000) iop(3/107=0140
 000000,3/108=0140000000) CAM-B3LYP/6-31G(d,p)
 ----------------------------------------------------------------------

 --
 TD
 --
 Symbolic Z-matrix:
 Charge =  0 Multiplicity = 1

                         Standard orientation:
 ---------------------------------------------------------------------
 Center     Atomic      Atomic             Coordinates (Angstroms)
 Number     Number       Type             X           Y           Z
 ---------------------------------------------------------------------
      1         12           0       -5.603793    1.220897    0.170337
      2          6           0       -4.982409   -2.149622   -0.407071
      3          6           0       -3.468988    1.107258    2.829021
      4          6           0       -6.231041    4.551838    0.722158
      5          6           0       -7.927808    1.178102   -2.397692
      6          7           0       -4.498773   -0.327307    1.089159
      7          6           0       -4.220950   -1.605658    0.677199
      8          6           0       -3.148060   -2.323290    1.476367
      9          6           0       -2.906543   -1.338497    2.644943
     10          6           0       -3.662012   -0.102125    2.138205
     11          6           0       -3.491141   -1.914956    3.987873
     12          6           0       -1.910096   -2.693106    0.549076
     13          6           0       -0.990136   -3.595893    1.331592
     14          6           0        0.252617   -3.848003    0.584624
     15          8           0        0.459420   -3.463632   -0.585508
     16          8           0        1.008910   -4.727810    1.153944
     17          7           0       -5.059669    2.633464    1.670627
     18          6           0       -3.967356    2.339785    2.566571
     19          6           0       -3.821869    3.635865    3.225842
     20          6           0       -4.553391    4.621708    2.629792
     21          6           0       -5.292910    3.945598    1.592615
     22          6           0       -2.744098    3.765896    4.331398
     23          6           0       -4.644510    5.955537    3.020891
     24          8           0       -3.906577    6.623261    3.798787
     25          7           0       -6.764075    2.694088   -0.776859
     26          6           0       -7.001355    3.976566   -0.296713
     27          6           0       -8.022300    4.567524   -1.218561
     28          6           0       -8.499934    3.654502   -2.030327
     29          6           0       -7.645758    2.406343   -1.738724
     30          6           0       -8.384776    5.993878   -1.074476
     31          6           0       -9.368253    3.848904   -3.290914
     32          6           0       -8.807984    4.051692   -4.618374
     33          7           0       -6.248547   -0.157949   -1.147481
     34          6           0       -7.320789   -0.006791   -2.270746
     35          6           0       -7.587799   -1.344592   -2.664601
     36          6           0       -6.694047   -2.195668   -2.090800
     37          6           0       -5.994635   -1.455080   -1.136690
     38          6           0       -8.573567   -1.676543   -3.793381
     39          6           0       -6.086734   -3.510463   -2.063194
     40          8           0       -6.455761   -4.536935   -2.578601
     41          6           0       -4.951407   -3.562297   -0.948370
     42          6           0       -5.337366   -4.571730    0.102874
     43          8           0       -5.759364   -4.533563    1.245913
     44          8           0       -4.965273   -5.759478   -0.425524
     45          6           0       -5.516667   -6.826994    0.355932
     46          6           0        2.354380   -5.032955    0.595506
     47          6           0        3.404150   -4.059462    0.992430
     48          6           0        4.108039   -3.305763    0.195413
     49          6           0        3.706327   -3.075497   -1.293006
     50          6           0        5.122495   -2.451284    0.732351
     51          6           0        6.436600   -2.636863    0.029535
     52          6           0        7.605343   -1.803766    0.604276
     53          6           0        9.044606   -1.967695    0.020583
     54          6           0        9.623789   -3.383009    0.220046
     55          6           0        9.962545   -0.890735    0.590044
     56          6           0       11.322809   -0.704359   -0.201714
     57          6           0       12.188936    0.403648    0.342501
     58          6           0       13.519956    0.423480   -0.445450
     59          6           0       14.491972   -0.733073   -0.213786
     60          6           0       14.303140    1.690866   -0.063341
     61          6           0       15.478223    2.061722   -1.061792
     62          6           0       16.134910    3.432923   -0.701101
     63          6           0       17.373786    3.851897   -1.549521
     64          6           0       16.974120    4.218610   -3.008374
     65          6           0       17.975968    5.223965   -0.942286
     66          1           0       -2.620343    1.109434    3.503346
     67          1           0       -6.660589    5.574667    0.875458
     68          1           0       -8.655525    1.211982   -3.260616
     69          1           0       -3.538053   -3.464525    1.778334
     70          1           0       -1.858578   -1.036131    2.641605
     71          1           0       -3.026237   -2.878087    4.601849
     72          1           0       -3.329365   -1.166714    4.794704
     73          1           0       -4.617787   -1.839968    3.998541
     74          1           0       -2.326460   -2.983532   -0.393271
     75          1           0       -1.367042   -1.809682    0.167546
     76          1           0       -0.570966   -3.074592    2.219886
     77          1           0       -1.423947   -4.507022    1.746646
     78          1           0       -1.728431    3.002208    3.999472
     79          1           0       -2.422797    4.939869    4.403045
     80          1           0       -3.262963    3.318999    5.407121
     81          1           0       -5.321235    6.518798    2.283536
     82          1           0       -9.948853    2.831832   -3.166809
     83          1           0      -10.007036    4.821750   -2.923454
     84          1           0       -9.548625    4.050740   -5.327097
     85          1           0       -8.207563    5.085154   -4.901391
     86          1           0       -7.887934    3.357462   -4.901948
     87          1           0       -8.253997   -1.129964   -4.752301
     88          1           0       -8.564602   -2.633279   -3.951926
     89          1           0       -9.575370   -1.504009   -3.436768
     90          1           0       -4.107340   -3.836090   -1.347728
     91          1           0        2.321185   -6.009612    0.898261
     92          1           0        2.352579   -5.154251   -0.413361
     93          1           0        3.933041   -4.455298    1.994635
     94          1           0        2.661979   -3.314875   -1.663749
     95          1           0        3.680854   -2.014953   -1.588774
     96          1           0        4.443886   -3.737667   -1.931098
     97          1           0        4.984516   -1.274470    0.554563
     98          1           0        5.209815   -2.444271    1.882966
     99          1           0        6.725836   -3.742466    0.171530
    100          1           0        6.232486   -2.734739   -1.010126
    101          1           0        7.408272   -0.830463    0.226459
    102          1           0        7.591264   -2.064651    1.866136
    103          1           0        9.116174   -1.728237   -1.069192
    104          1           0        9.017740   -4.066571   -0.231602
    105          1           0       10.740686   -3.407256   -0.231031
    106          1           0        9.663076   -3.790159    1.284052
    107          1           0        9.522969    0.089494    0.718886
    108          1           0       10.392124   -1.206948    1.642093
    109          1           0       11.680380   -1.765048    0.041497
    110          1           0       11.187258   -0.737918   -1.214488
    111          1           0       11.680383    1.157569    0.066641
    112          1           0       12.680822    0.244949    1.322408
    113          1           0       13.218115    0.362797   -1.538603
    114          1           0       14.690984   -0.872795    0.727801
    115          1           0       13.979222   -1.695065   -0.527158
    116          1           0       15.556143   -0.576305   -0.609108
    117          1           0       13.325721    2.562787   -0.031667
    118          1           0       14.656814    1.529966    0.968877
    119          1           0       16.065092    1.330685   -0.893097
    120          1           0       15.031859    2.024186   -2.196369
    121          1           0       15.295592    4.277021   -0.781497
    122          1           0       16.455961    3.367493    0.180260
    123          1           0       18.260919    3.183313   -1.405274
    124          1           0       16.269986    5.197070   -2.983272
    125          1           0       17.714017    4.478172   -3.746617
    126          1           0       16.558499    3.274512   -3.723177
    127          1           0       18.332812    5.243020    0.126352
    128          1           0       18.899136    5.377617   -1.399760
    129          1           0       17.332103    6.008457   -1.127999
    130          1           0       -5.325119   -7.792869   -0.030747
    131          1           0       -6.671397   -6.535819    0.511190
    132          1           0       -4.877259   -6.877777    1.279051
    133          8           0       -7.964200    6.840565   -0.312495
    134          1           0       -9.027279    6.221934   -1.849865
 ---------------------------------------------------------------------

 SCF Done:  E(RCAM-B3LYP) =  -3043.33992583     A.U. after   16 cycles

 Excitation energies and oscillator strengths:

 Excited State   1:      Singlet-A      1.9269 eV  643.45 nm  f=0.2265  <S**2>=0.000
     243 -> 246        0.21627
     244 -> 245        0.66626
 This state for optimization and/or second-order correction.
 Total Energy, E(TD-HF/TD-KS) =  -3043.26911503
 Copying the excited state density for this state as the 1-particle RhoCI density.

 The electronic state is 1-A.
 Alpha  occ. eigenvalues --  -46.82122 -19.22097 -19.21880 -19.18292 -19.17465
 Alpha  occ. eigenvalues --  -19.17224 -19.16050 -19.15381 -14.39893 -14.37642
 Alpha  occ. eigenvalues --  -14.36733 -14.36252 -10.34852 -10.33920 -10.31667
 Alpha  occ. eigenvalues --  -10.30339 -10.29208 -10.28211 -10.28072 -10.27290
 Alpha  occ. eigenvalues --  -10.27146 -10.26712 -10.26619 -10.26546 -10.26390
 Alpha  occ. eigenvalues --  -10.26358 -10.26334 -10.25857 -10.25607 -10.25451
 Alpha  occ. eigenvalues --  -10.25405 -10.25348 -10.25038 -10.25016 -10.24593
 Alpha  occ. eigenvalues --  -10.24233 -10.23940 -10.23927 -10.23879 -10.23858
 Alpha  occ. eigenvalues --  -10.23794 -10.23667 -10.23204 -10.23189 -10.23130
 Alpha  occ. eigenvalues --  -10.23076 -10.22953 -10.22856 -10.22645 -10.22542
 Alpha  occ. eigenvalues --  -10.22479 -10.22453 -10.22321 -10.22252 -10.22028
 Alpha  occ. eigenvalues --  -10.21994 -10.21495 -10.21140 -10.21001 -10.20945
 Alpha  occ. eigenvalues --  -10.20692 -10.20146 -10.20122 -10.19514 -10.19413
 Alpha  occ. eigenvalues --  -10.19221  -3.10533  -1.85488  -1.85022  -1.84906
 Alpha  occ. eigenvalues --   -1.13998  -1.13804  -1.07885  -1.07846  -1.04229
 Alpha  occ. eigenvalues --   -1.03200  -1.02204  -1.00879  -0.99951  -0.98868
 Alpha  occ. eigenvalues --   -0.98217  -0.88441  -0.87732  -0.85897  -0.85818
 Alpha  occ. eigenvalues --   -0.85732  -0.85052  -0.84193  -0.84110  -0.83906
 Alpha  occ. eigenvalues --   -0.82780  -0.82591  -0.82333  -0.80978  -0.80294
 Alpha  occ. eigenvalues --   -0.79885  -0.78835  -0.78202  -0.77443  -0.76771
 Alpha  occ. eigenvalues --   -0.75540  -0.75143  -0.73903  -0.72360  -0.71797
 Alpha  occ. eigenvalues --   -0.71464  -0.71268  -0.70484  -0.70180  -0.69958
 Alpha  occ. eigenvalues --   -0.69521  -0.68865  -0.68147  -0.67321  -0.66558
 Alpha  occ. eigenvalues --   -0.65882  -0.65522  -0.64413  -0.63065  -0.62365
 Alpha  occ. eigenvalues --   -0.61538  -0.60732  -0.60450  -0.59297  -0.58884
 Alpha  occ. eigenvalues --   -0.58722  -0.58569  -0.57675  -0.57547  -0.57012
 Alpha  occ. eigenvalues --   -0.56555  -0.56355  -0.55657  -0.55079  -0.54612
 Alpha  occ. eigenvalues --   -0.54173  -0.54112  -0.52880  -0.52678  -0.52552
 Alpha  occ. eigenvalues --   -0.52001  -0.51672  -0.51373  -0.50922  -0.50737
 Alpha  occ. eigenvalues --   -0.50556  -0.50426  -0.49858  -0.49620  -0.49163
 Alpha  occ. eigenvalues --   -0.48954  -0.48698  -0.48661  -0.48320  -0.48139
 Alpha  occ. eigenvalues --   -0.47772  -0.47490  -0.47220  -0.46827  -0.46665
 Alpha  occ. eigenvalues --   -0.46582  -0.46532  -0.46007  -0.45788  -0.45649
 Alpha  occ. eigenvalues --   -0.45518  -0.45315  -0.45110  -0.45084  -0.44558
 Alpha  occ. eigenvalues --   -0.44516  -0.44071  -0.44014  -0.43834  -0.43703
 Alpha  occ. eigenvalues --   -0.43431  -0.43260  -0.43179  -0.43099  -0.42693
 Alpha  occ. eigenvalues --   -0.42329  -0.42190  -0.42162  -0.41677  -0.41450
 Alpha  occ. eigenvalues --   -0.41215  -0.41081  -0.40924  -0.40853  -0.40711
 Alpha  occ. eigenvalues --   -0.40671  -0.40323  -0.40103  -0.40007  -0.39607
 Alpha  occ. eigenvalues --   -0.39554  -0.39416  -0.39192  -0.39050  -0.38706
 Alpha  occ. eigenvalues --   -0.38617  -0.38383  -0.38282  -0.38162  -0.37995
 Alpha  occ. eigenvalues --   -0.37789  -0.37675  -0.37520  -0.37248  -0.37133
 Alpha  occ. eigenvalues --   -0.36943  -0.36447  -0.36377  -0.36023  -0.35617
 Alpha  occ. eigenvalues --   -0.35411  -0.35297  -0.35028  -0.34746  -0.34495
 Alpha  occ. eigenvalues --   -0.34208  -0.33814  -0.33810  -0.33089  -0.32789
 Alpha  occ. eigenvalues --   -0.32751  -0.32332  -0.32274  -0.32169  -0.31917
 Alpha  occ. eigenvalues --   -0.31527  -0.31121  -0.30176  -0.30128  -0.29891
 Alpha  occ. eigenvalues --   -0.29461  -0.28590  -0.28509  -0.28311  -0.27879
 Alpha  occ. eigenvalues --   -0.27471  -0.26657  -0.23508  -0.21281
 Alpha virt. eigenvalues --   -0.08971  -0.06510  -0.02172  -0.01184   0.00150
 Alpha virt. eigenvalues --    0.01902   0.02616   0.03115   0.03828   0.04189
 Alpha virt. eigenvalues --    0.04415   0.05613   0.07617   0.08248   0.08748

 Mulliken charges:
               1
     1  Mg   0.815106
     2  C    0.008842
     3  C   -0.174117
     4  C   -0.182011
     5  C   -0.176746
     6  N   -0.617128
     7  C    0.322695
     8  C   -0.151424
     9  C   -0.127231
    10  C    0.305167
    11  C   -0.312211
    12  C   -0.173728
    13  C   -0.261753
    14  C    0.593443
    15  O   -0.508145
    16  O   -0.460024
    17  N   -0.699387
    18  C    0.293838
    19  C    0.042032
    20  C    0.040172
    21  C    0.338987
    22  C   -0.349852
    23  C    0.201094
    24  O   -0.448843
    25  N   -0.674839
    26  C    0.262900
    27  C    0.003574
    28  C   -0.038570
    29  C    0.319143
    30  C    0.283268
    31  C   -0.206200
    32  C   -0.293957
    33  N   -0.734395
    34  C    0.245919
    35  C   -0.054672
    36  C    0.116333
    37  C    0.325557
    38  C   -0.359172
    39  C    0.319568
    40  O   -0.437106
    41  C   -0.290344
    42  C    0.621800
    43  O   -0.479382
    44  O   -0.435673
    45  C   -0.070476
    46  C    0.015613
    47  C   -0.159103
    48  C    0.184299
    49  C   -0.385497
    50  C   -0.212238
    51  C   -0.195432
    52  C   -0.145014
    53  C   -0.060330
    54  C   -0.307528
    55  C   -0.173754
    56  C   -0.209852
    57  C   -0.118770
    58  C   -0.076133
    59  C   -0.317210
    60  C   -0.161701
    61  C   -0.159332
    62  C   -0.120908
    63  C   -0.073015
    64  C   -0.288340
    65  C   -0.326569
    66  H    0.086649
    67  H    0.141200
    68  H    0.094859
    69  H    0.114408
    70  H    0.114841
    71  H    0.105065
    72  H    0.108632
    73  H    0.133858
    74  H    0.123656
    75  H    0.119048
    76  H    0.135523
    77  H    0.144384
    78  H    0.074933
    79  H    0.154520
    80  H    0.103587
    81  H    0.066215
    82  H    0.108408
    83  H    0.095121
    84  H    0.136888
    85  H    0.093355
    86  H    0.105379
    87  H    0.122445
    88  H    0.148569
    89  H    0.128187
    90  H    0.159344
    91  H    0.119355
    92  H    0.131006
    93  H    0.070882
    94  H    0.156830
    95  H    0.120339
    96  H    0.104325
    97  H    0.089172
    98  H    0.094089
    99  H    0.072192
   100  H    0.108149
   101  H    0.103042
   102  H    0.068146
   103  H    0.086366
   104  H    0.113518
   105  H    0.082859
   106  H    0.094004
   107  H    0.083167
   108  H    0.073233
   109  H    0.083738
   110  H    0.095832
   111  H    0.102708
   112  H    0.093505
   113  H    0.069671
   114  H    0.111024
   115  H    0.091688
   116  H    0.095582
   117  H    0.028936
   118  H    0.085580
   119  H    0.101731
   120  H    0.077640
   121  H    0.073064
   122  H    0.095688
   123  H    0.085942
   124  H    0.087183
   125  H    0.110273
   126  H    0.066909
   127  H    0.086817
   128  H    0.107941
   129  H    0.110330
   130  H    0.122898
   131  H    0.124191
   132  H    0.111918
   133  O   -0.420393
   134  H    0.058620
 Sum of Mulliken charges =   0.00000

 Dipole moment (field-independent basis, Debye):
    X=              2.4418    Y=             -5.5503    Z=             -2.6346  Tot=              6.6113
 Quadrupole moment (field-independent basis, Debye-Ang):
   XX=           -353.3375   YY=           -448.7249   ZZ=           -394.9528
   XY=              3.8085   XZ=             32.4123   YZ=            -41.9484

 Normal termination of Gaussian 09 at Tue Oct  8 04:05:56 2019.
