 Gaussian 09, Revision D.01,
 Gaussian 09:  ES64L-G09RevD.01 24-Apr-2013

 ----------------------------------------------------------------------
 # td=(NStates=1) iop(3/107=0140000000,3/108=0140000000) iop(3/107=0140
 000000,3/108=0140000000) CAM-B3LYP/6-31G(d,p)
 ----------------------------------------------------------------------

 --
 TD
 --
 Symbolic Z-matrix:
 Charge =  0 Multiplicity = 1

                         Standard orientation:
 ---------------------------------------------------------------------
 Center     Atomic      Atomic             Coordinates (Angstroms)
 Number     Number       Type             X           Y           Z
 ---------------------------------------------------------------------
      1         12           0       -5.592394    1.164331    0.161717
      2          6           0       -5.075587   -2.148612   -0.365796
      3          6           0       -3.391232    1.208059    2.662891
      4          6           0       -6.151916    4.628031    0.575014
      5          6           0       -7.973376    1.148226   -2.420594
      6          7           0       -4.278069   -0.191687    1.001757
      7          6           0       -4.337750   -1.616910    0.725729
      8          6           0       -3.272672   -2.362673    1.454453
      9          6           0       -2.972879   -1.413662    2.673694
     10          6           0       -3.563821   -0.044083    2.144507
     11          6           0       -3.537147   -1.737349    4.074896
     12          6           0       -1.963858   -2.737652    0.576108
     13          6           0       -0.977832   -3.645909    1.351294
     14          6           0        0.232145   -3.867293    0.588744
     15          8           0        0.598919   -3.482763   -0.523054
     16          8           0        1.102437   -4.574353    1.401097
     17          7           0       -4.895389    2.689470    1.386953
     18          6           0       -3.992419    2.392987    2.337033
     19          6           0       -3.743588    3.653180    3.099965
     20          6           0       -4.566095    4.681657    2.590097
     21          6           0       -5.340460    3.926122    1.536425
     22          6           0       -2.804273    3.835209    4.176897
     23          6           0       -4.752236    6.063830    2.995135
     24          8           0       -4.320333    6.557551    4.039054
     25          7           0       -6.933165    2.644457   -0.737461
     26          6           0       -6.962346    3.984136   -0.411785
     27          6           0       -8.052096    4.544602   -1.247256
     28          6           0       -8.528878    3.557417   -2.068168
     29          6           0       -7.807808    2.318899   -1.723130
     30          6           0       -8.411137    5.965528   -1.277889
     31          6           0       -9.484720    3.780506   -3.169288
     32          6           0       -8.793359    4.011640   -4.576606
     33          7           0       -6.372572   -0.125891   -1.169778
     34          6           0       -7.404941   -0.025412   -2.141541
     35          6           0       -7.663335   -1.356353   -2.647654
     36          6           0       -6.803282   -2.220291   -2.010572
     37          6           0       -6.033868   -1.435067   -1.145695
     38          6           0       -8.718662   -1.711927   -3.608376
     39          6           0       -6.347359   -3.616689   -1.849506
     40          8           0       -6.614053   -4.635794   -2.568702
     41          6           0       -5.106582   -3.549763   -0.837589
     42          6           0       -5.316537   -4.613818    0.197256
     43          8           0       -5.903243   -4.481374    1.295094
     44          8           0       -5.072330   -5.911908   -0.372702
     45          6           0       -5.403912   -6.986264    0.532450
     46          6           0        2.393973   -4.914723    0.824959
     47          6           0        3.428647   -3.914121    1.099952
     48          6           0        4.117083   -3.186496    0.211791
     49          6           0        3.867436   -3.085882   -1.284419
     50          6           0        5.205081   -2.192299    0.685532
     51          6           0        6.596471   -2.536893    0.021269
     52          6           0        7.741393   -1.662245    0.543787
     53          6           0        9.109102   -1.877172   -0.199109
     54          6           0        9.557330   -3.404731   -0.099284
     55          6           0       10.009357   -0.889396    0.316444
     56          6           0       11.394506   -0.773920   -0.380753
     57          6           0       12.265740    0.366325    0.241037
     58          6           0       13.601561    0.374404   -0.602849
     59          6           0       14.569523   -0.724837   -0.294918
     60          6           0       14.297934    1.782109   -0.191809
     61          6           0       15.552153    2.171490   -0.927366
     62          6           0       16.152983    3.428008   -0.598104
     63          6           0       17.480719    3.747281   -1.256413
     64          6           0       17.497534    3.816052   -2.813354
     65          6           0       17.968550    5.130984   -0.754001
     66          1           0       -2.803808    1.152837    3.547306
     67          1           0       -6.413177    5.651804    0.555171
     68          1           0       -8.750100    1.063529   -3.162945
     69          1           0       -3.604392   -3.208251    1.851563
     70          1           0       -1.877498   -1.485354    2.623007
     71          1           0       -3.184981   -2.766811    4.324886
     72          1           0       -3.318689   -1.022753    4.802670
     73          1           0       -4.505062   -2.084098    4.029316
     74          1           0       -2.526530   -3.138928   -0.278148
     75          1           0       -1.682024   -1.834328    0.078776
     76          1           0       -0.825684   -3.262317    2.407172
     77          1           0       -1.391783   -4.662264    1.705832
     78          1           0       -1.654998    3.525977    3.974017
     79          1           0       -2.625301    4.831661    4.552873
     80          1           0       -3.262278    3.202068    5.160658
     81          1           0       -5.482491    6.709811    2.383794
     82          1           0      -10.028688    2.952873   -3.182999
     83          1           0      -10.123444    4.654832   -2.918874
     84          1           0       -9.766691    3.845772   -5.245120
     85          1           0       -8.563003    5.249038   -4.626595
     86          1           0       -8.149358    3.371516   -4.919050
     87          1           0       -8.588191   -1.225030   -4.476180
     88          1           0       -8.609240   -2.760218   -3.930587
     89          1           0       -9.749801   -1.764774   -3.242607
     90          1           0       -4.273486   -4.075818   -1.440628
     91          1           0        2.386507   -6.053452    1.409828
     92          1           0        2.275900   -4.864738   -0.152300
     93          1           0        3.933472   -3.912754    2.034490
     94          1           0        2.748090   -3.395393   -1.591787
     95          1           0        4.089955   -2.146579   -1.545423
     96          1           0        4.658550   -3.872623   -1.591085
     97          1           0        4.799544   -1.217308    0.403261
     98          1           0        5.334852   -2.056384    1.875435
     99          1           0        7.001932   -3.696030    0.235298
    100          1           0        6.450443   -2.350006   -1.163263
    101          1           0        7.534992   -0.748318    0.552143
    102          1           0        8.066240   -1.951354    1.624042
    103          1           0        9.152390   -1.697942   -1.364896
    104          1           0        8.999656   -4.277223   -0.486594
    105          1           0       10.603040   -3.491981   -0.438883
    106          1           0        9.626720   -3.509122    1.047964
    107          1           0        9.678681    0.233094    0.209925
    108          1           0       10.206304   -0.816739    1.412250
    109          1           0       11.906965   -2.013999   -0.308685
    110          1           0       11.394549   -0.611504   -1.576817
    111          1           0       11.839924    1.261883   -0.073107
    112          1           0       12.503831    0.278172    1.220141
    113          1           0       13.309806    0.621762   -1.679308
    114          1           0       15.026915   -0.643198    0.777878
    115          1           0       14.216007   -1.695962   -0.460458
    116          1           0       15.422778   -0.653413   -0.942103
    117          1           0       13.560381    2.423968   -0.444527
    118          1           0       14.465164    1.654460    0.768948
    119          1           0       16.426901    1.474466   -0.554992
    120          1           0       15.542341    1.742157   -2.136176
    121          1           0       15.385257    4.320508   -0.900819
    122          1           0       16.324286    3.545152    0.505964
    123          1           0       18.226904    2.910706   -0.958817
    124          1           0       16.859483    4.566919   -2.956448
    125          1           0       18.645091    4.011012   -2.879625
    126          1           0       17.060434    2.935404   -3.193958
    127          1           0       18.279406    5.226427    0.352138
    128          1           0       18.861354    5.542501   -1.230877
    129          1           0       17.172194    5.890659   -1.347312
    130          1           0       -4.894063   -7.876037    0.072598
    131          1           0       -6.536904   -6.936169    0.526471
    132          1           0       -4.897727   -6.742993    1.432803
    133          8           0       -7.904606    6.873276   -0.576461
    134          1           0       -9.218630    6.242272   -1.923312
 ---------------------------------------------------------------------

 SCF Done:  E(RCAM-B3LYP) =  -3043.39373461     A.U. after   16 cycles

 Excitation energies and oscillator strengths:

 Excited State   1:      Singlet-A      2.0314 eV  610.35 nm  f=0.2085  <S**2>=0.000
     243 -> 246        0.23444
     244 -> 245        0.65317
 This state for optimization and/or second-order correction.
 Total Energy, E(TD-HF/TD-KS) =  -3043.31908369
 Copying the excited state density for this state as the 1-particle RhoCI density.

 The electronic state is 1-A.
 Alpha  occ. eigenvalues --  -46.82260 -19.21630 -19.20720 -19.18095 -19.17802
 Alpha  occ. eigenvalues --  -19.17565 -19.16888 -19.16812 -14.39567 -14.37611
 Alpha  occ. eigenvalues --  -14.36878 -14.36813 -10.35777 -10.35303 -10.32729
 Alpha  occ. eigenvalues --  -10.30538 -10.30031 -10.28408 -10.27902 -10.27408
 Alpha  occ. eigenvalues --  -10.27344 -10.27059 -10.27007 -10.26626 -10.26321
 Alpha  occ. eigenvalues --  -10.26220 -10.26112 -10.26058 -10.25836 -10.25275
 Alpha  occ. eigenvalues --  -10.25120 -10.25099 -10.24793 -10.24225 -10.24214
 Alpha  occ. eigenvalues --  -10.24114 -10.24111 -10.23965 -10.23936 -10.23699
 Alpha  occ. eigenvalues --  -10.23638 -10.23612 -10.23564 -10.23397 -10.23326
 Alpha  occ. eigenvalues --  -10.23006 -10.22767 -10.22731 -10.22576 -10.22385
 Alpha  occ. eigenvalues --  -10.22185 -10.22047 -10.22023 -10.21995 -10.21963
 Alpha  occ. eigenvalues --  -10.21584 -10.21565 -10.21537 -10.21369 -10.21332
 Alpha  occ. eigenvalues --  -10.20423 -10.20136 -10.19938 -10.19858 -10.19358
 Alpha  occ. eigenvalues --  -10.18539  -3.10717  -1.85667  -1.85164  -1.85140
 Alpha  occ. eigenvalues --   -1.11995  -1.10631  -1.05588  -1.04659  -1.04128
 Alpha  occ. eigenvalues --   -1.03614  -1.03263  -1.01416  -1.00186  -0.98989
 Alpha  occ. eigenvalues --   -0.98467  -0.89368  -0.86553  -0.86061  -0.85723
 Alpha  occ. eigenvalues --   -0.85619  -0.84976  -0.84732  -0.84281  -0.84141
 Alpha  occ. eigenvalues --   -0.83490  -0.83353  -0.82563  -0.80664  -0.79785
 Alpha  occ. eigenvalues --   -0.79207  -0.78437  -0.77878  -0.77440  -0.76754
 Alpha  occ. eigenvalues --   -0.75537  -0.75193  -0.74494  -0.72734  -0.72184
 Alpha  occ. eigenvalues --   -0.71626  -0.71289  -0.70938  -0.70431  -0.70044
 Alpha  occ. eigenvalues --   -0.69992  -0.69553  -0.67844  -0.67352  -0.66839
 Alpha  occ. eigenvalues --   -0.66399  -0.64846  -0.64174  -0.62804  -0.62295
 Alpha  occ. eigenvalues --   -0.61706  -0.61548  -0.59934  -0.59330  -0.58951
 Alpha  occ. eigenvalues --   -0.58252  -0.57672  -0.57607  -0.57476  -0.56901
 Alpha  occ. eigenvalues --   -0.56844  -0.56147  -0.55629  -0.55594  -0.54717
 Alpha  occ. eigenvalues --   -0.54446  -0.53598  -0.53226  -0.52589  -0.52088
 Alpha  occ. eigenvalues --   -0.51986  -0.51779  -0.51302  -0.50720  -0.50584
 Alpha  occ. eigenvalues --   -0.50422  -0.50271  -0.49774  -0.49592  -0.49368
 Alpha  occ. eigenvalues --   -0.49151  -0.49039  -0.48736  -0.48622  -0.47886
 Alpha  occ. eigenvalues --   -0.47869  -0.47795  -0.47660  -0.47459  -0.47268
 Alpha  occ. eigenvalues --   -0.46951  -0.46766  -0.46251  -0.46195  -0.46129
 Alpha  occ. eigenvalues --   -0.46086  -0.45677  -0.45426  -0.45328  -0.44850
 Alpha  occ. eigenvalues --   -0.44752  -0.44482  -0.44211  -0.43960  -0.43750
 Alpha  occ. eigenvalues --   -0.43413  -0.43158  -0.42936  -0.42849  -0.42735
 Alpha  occ. eigenvalues --   -0.42522  -0.42462  -0.42280  -0.41943  -0.41887
 Alpha  occ. eigenvalues --   -0.41619  -0.41494  -0.41102  -0.41004  -0.40930
 Alpha  occ. eigenvalues --   -0.40724  -0.40512  -0.40289  -0.40249  -0.40165
 Alpha  occ. eigenvalues --   -0.40104  -0.39910  -0.39614  -0.39421  -0.39225
 Alpha  occ. eigenvalues --   -0.39056  -0.38812  -0.38737  -0.38464  -0.38356
 Alpha  occ. eigenvalues --   -0.38078  -0.37970  -0.37674  -0.37351  -0.37310
 Alpha  occ. eigenvalues --   -0.37129  -0.36800  -0.36602  -0.35999  -0.35596
 Alpha  occ. eigenvalues --   -0.35577  -0.35420  -0.34901  -0.34671  -0.34415
 Alpha  occ. eigenvalues --   -0.34298  -0.34124  -0.33565  -0.32987  -0.32634
 Alpha  occ. eigenvalues --   -0.32540  -0.31981  -0.31956  -0.31322  -0.31205
 Alpha  occ. eigenvalues --   -0.31054  -0.31036  -0.30798  -0.29972  -0.29732
 Alpha  occ. eigenvalues --   -0.28844  -0.28303  -0.28193  -0.27924  -0.27749
 Alpha  occ. eigenvalues --   -0.27482  -0.27124  -0.23507  -0.21747
 Alpha virt. eigenvalues --   -0.08819  -0.06605  -0.02728  -0.01319  -0.00435
 Alpha virt. eigenvalues --    0.01183   0.01820   0.02896   0.03610   0.03654
 Alpha virt. eigenvalues --    0.04219   0.05138   0.07730   0.08456   0.08940

 Mulliken charges:
               1
     1  Mg   0.825894
     2  C    0.101115
     3  C   -0.203223
     4  C   -0.136089
     5  C   -0.160045
     6  N   -0.634451
     7  C    0.268779
     8  C   -0.153197
     9  C   -0.144875
    10  C    0.360345
    11  C   -0.318693
    12  C   -0.181101
    13  C   -0.279288
    14  C    0.628974
    15  O   -0.485590
    16  O   -0.491693
    17  N   -0.678832
    18  C    0.374470
    19  C    0.044228
    20  C    0.009423
    21  C    0.256305
    22  C   -0.391583
    23  C    0.223480
    24  O   -0.419121
    25  N   -0.697196
    26  C    0.275831
    27  C   -0.034418
    28  C    0.017877
    29  C    0.321072
    30  C    0.245825
    31  C   -0.245609
    32  C   -0.284596
    33  N   -0.757026
    34  C    0.301157
    35  C   -0.020344
    36  C    0.085958
    37  C    0.277223
    38  C   -0.400870
    39  C    0.360374
    40  O   -0.467611
    41  C   -0.333884
    42  C    0.600396
    43  O   -0.482001
    44  O   -0.476414
    45  C   -0.069295
    46  C    0.030367
    47  C   -0.112068
    48  C    0.107799
    49  C   -0.359059
    50  C   -0.231099
    51  C   -0.163940
    52  C   -0.141802
    53  C   -0.048547
    54  C   -0.321386
    55  C   -0.162433
    56  C   -0.156526
    57  C   -0.159439
    58  C   -0.091247
    59  C   -0.302374
    60  C   -0.155928
    61  C   -0.161445
    62  C   -0.127877
    63  C   -0.079203
    64  C   -0.285671
    65  C   -0.299768
    66  H    0.082011
    67  H    0.129027
    68  H    0.092639
    69  H    0.110942
    70  H    0.108084
    71  H    0.099599
    72  H    0.129534
    73  H    0.140704
    74  H    0.118357
    75  H    0.137134
    76  H    0.156171
    77  H    0.149623
    78  H    0.101298
    79  H    0.162501
    80  H    0.097648
    81  H    0.085860
    82  H    0.118384
    83  H    0.113671
    84  H    0.091312
    85  H    0.097074
    86  H    0.131403
    87  H    0.133216
    88  H    0.145884
    89  H    0.135846
    90  H    0.172034
    91  H    0.089401
    92  H    0.115660
    93  H    0.071289
    94  H    0.141965
    95  H    0.120552
    96  H    0.122602
    97  H    0.114452
    98  H    0.080853
    99  H    0.080299
   100  H    0.084517
   101  H    0.097570
   102  H    0.078335
   103  H    0.071109
   104  H    0.114368
   105  H    0.103460
   106  H    0.084403
   107  H    0.079150
   108  H    0.089501
   109  H    0.032833
   110  H    0.074724
   111  H    0.104072
   112  H    0.101981
   113  H    0.077072
   114  H    0.083888
   115  H    0.108425
   116  H    0.110570
   117  H    0.090722
   118  H    0.096638
   119  H    0.068778
   120  H    0.052144
   121  H    0.047621
   122  H    0.094200
   123  H    0.068357
   124  H    0.109214
   125  H    0.102278
   126  H    0.105330
   127  H    0.097950
   128  H    0.099580
   129  H    0.073695
   130  H    0.123008
   131  H    0.138075
   132  H    0.127920
   133  O   -0.446063
   134  H    0.067513
 Sum of Mulliken charges =   0.00000

 Dipole moment (field-independent basis, Debye):
    X=              1.9832    Y=             -4.3360    Z=             -0.5372  Tot=              4.7982
 Quadrupole moment (field-independent basis, Debye-Ang):
   XX=           -370.2441   YY=           -451.6871   ZZ=           -397.3723
   XY=             12.6561   XZ=             30.7021   YZ=            -36.1132

 Normal termination of Gaussian 09 at Mon Oct  7 08:44:02 2019.
