 Gaussian 09, Revision D.01,
 Gaussian 09:  ES64L-G09RevD.01 24-Apr-2013

 ----------------------------------------------------------------------
 # td=(NStates=1) iop(3/107=0140000000,3/108=0140000000) iop(3/107=0140
 000000,3/108=0140000000) CAM-B3LYP/6-31G(d,p)
 ----------------------------------------------------------------------

 --
 TD
 --
 Symbolic Z-matrix:
 Charge =  0 Multiplicity = 1

                         Standard orientation:
 ---------------------------------------------------------------------
 Center     Atomic      Atomic             Coordinates (Angstroms)
 Number     Number       Type             X           Y           Z
 ---------------------------------------------------------------------
      1         12           0       -5.572015    1.269912    0.192451
      2          6           0       -4.996949   -2.101760   -0.401219
      3          6           0       -3.378985    1.134529    2.809403
      4          6           0       -6.131645    4.579741    0.736663
      5          6           0       -8.006007    1.230739   -2.288964
      6          7           0       -4.403326   -0.204078    1.027562
      7          6           0       -4.298347   -1.587015    0.608056
      8          6           0       -3.241284   -2.320450    1.417759
      9          6           0       -2.951921   -1.338174    2.515403
     10          6           0       -3.582821   -0.010829    2.093877
     11          6           0       -3.424082   -1.714907    3.944277
     12          6           0       -1.997948   -2.773863    0.559584
     13          6           0       -1.006473   -3.461787    1.460865
     14          6           0        0.189885   -3.913763    0.709952
     15          8           0        0.490432   -3.501002   -0.471215
     16          8           0        0.959962   -4.711676    1.350510
     17          7           0       -4.928113    2.545182    1.511517
     18          6           0       -3.938563    2.342689    2.490669
     19          6           0       -3.638553    3.621468    3.178883
     20          6           0       -4.476938    4.533659    2.664855
     21          6           0       -5.248384    3.936927    1.526835
     22          6           0       -2.650013    3.794334    4.291604
     23          6           0       -4.558637    5.996709    2.931480
     24          8           0       -4.130192    6.521974    3.886350
     25          7           0       -6.825511    2.670980   -0.610569
     26          6           0       -6.742536    3.946176   -0.335090
     27          6           0       -7.732991    4.680484   -1.294279
     28          6           0       -8.307174    3.658994   -2.162914
     29          6           0       -7.631387    2.484184   -1.743469
     30          6           0       -8.253993    6.054029   -1.175028
     31          6           0       -9.239054    3.915645   -3.222495
     32          6           0       -8.670358    3.954274   -4.601342
     33          7           0       -6.427639   -0.107386   -1.068734
     34          6           0       -7.355892    0.029414   -1.993708
     35          6           0       -7.746125   -1.345151   -2.574909
     36          6           0       -6.793752   -2.216330   -2.013082
     37          6           0       -6.001326   -1.385022   -1.131726
     38          6           0       -8.574997   -1.532484   -3.713548
     39          6           0       -6.294526   -3.536653   -2.040721
     40          8           0       -6.579165   -4.445144   -2.757739
     41          6           0       -5.132898   -3.502727   -0.984412
     42          6           0       -5.475441   -4.569928    0.029336
     43          8           0       -5.658924   -4.437175    1.269226
     44          8           0       -5.287182   -5.831902   -0.476351
     45          6           0       -5.506840   -6.903390    0.473142
     46          6           0        2.192708   -5.212446    0.672611
     47          6           0        3.470750   -4.251713    1.014812
     48          6           0        3.976752   -3.334103    0.156498
     49          6           0        3.666330   -3.154531   -1.261679
     50          6           0        5.140084   -2.531047    0.626446
     51          6           0        6.489364   -2.711260   -0.019079
     52          6           0        7.673639   -1.867785    0.603392
     53          6           0        9.046720   -2.011386   -0.085509
     54          6           0        9.616399   -3.385049    0.195583
     55          6           0       10.002298   -0.877317    0.586380
     56          6           0       11.373523   -0.882939   -0.134422
     57          6           0       12.138150    0.407276    0.194082
     58          6           0       13.503036    0.539770   -0.534393
     59          6           0       14.284687   -0.724858   -0.347917
     60          6           0       14.229733    1.824604   -0.080269
     61          6           0       15.489362    2.104538   -0.960581
     62          6           0       16.034338    3.509523   -0.674357
     63          6           0       17.289261    3.861475   -1.488569
     64          6           0       17.105401    3.954038   -2.970861
     65          6           0       18.014707    5.030368   -0.852864
     66          1           0       -2.481248    1.037563    3.438887
     67          1           0       -6.388437    5.472263    0.971631
     68          1           0       -8.592183    1.327755   -3.140770
     69          1           0       -3.923980   -3.164922    1.626383
     70          1           0       -1.790890   -1.238604    2.632369
     71          1           0       -2.773383   -2.405625    4.430340
     72          1           0       -3.403469   -0.755272    4.563920
     73          1           0       -4.427044   -2.231962    4.045807
     74          1           0       -2.155660   -3.399022   -0.270330
     75          1           0       -1.638089   -1.798332    0.189802
     76          1           0       -0.662909   -2.927815    2.200056
     77          1           0       -1.545840   -4.334516    1.698356
     78          1           0       -1.571302    3.453782    3.813496
     79          1           0       -2.463073    4.906267    4.477567
     80          1           0       -3.062106    3.308615    5.510925
     81          1           0       -5.251516    6.467913    2.124741
     82          1           0       -9.892601    3.143904   -3.148179
     83          1           0      -10.011510    4.764763   -3.208386
     84          1           0       -9.301241    3.618009   -5.362110
     85          1           0       -8.013282    4.877753   -4.692962
     86          1           0       -7.796164    3.240245   -4.761174
     87          1           0       -8.319410   -0.855921   -4.589787
     88          1           0       -8.618142   -2.617933   -3.999447
     89          1           0       -9.749228   -1.259701   -3.418032
     90          1           0       -4.221273   -3.794944   -1.575467
     91          1           0        2.444378   -6.388561    0.862430
     92          1           0        1.945173   -5.099075   -0.364083
     93          1           0        3.848861   -4.426614    2.031519
     94          1           0        2.473650   -3.420375   -1.376719
     95          1           0        3.781734   -2.181284   -1.431432
     96          1           0        4.271551   -4.003373   -1.801146
     97          1           0        4.789098   -1.464895    0.414878
     98          1           0        5.335874   -2.575036    1.681924
     99          1           0        6.959731   -3.809744    0.052538
    100          1           0        6.649526   -2.511425   -1.044367
    101          1           0        7.469838   -0.799076    0.565306
    102          1           0        7.878122   -2.065218    1.624479
    103          1           0        8.815147   -1.793259   -1.164547
    104          1           0        9.055694   -4.107276   -0.239579
    105          1           0       10.629697   -3.457684   -0.182662
    106          1           0        9.796243   -3.650101    1.270063
    107          1           0        9.443240   -0.006052    0.360721
    108          1           0        9.962234   -1.032358    1.552912
    109          1           0       11.926491   -1.841368   -0.046096
    110          1           0       11.236086   -0.594088   -1.274223
    111          1           0       11.663497    1.489441   -0.053459
    112          1           0       12.420706    0.465456    1.323302
    113          1           0       13.232193    0.372112   -1.638843
    114          1           0       14.680890   -0.944245    0.655137
    115          1           0       13.893510   -1.620180   -1.026338
    116          1           0       15.313589   -0.493537   -0.670144
    117          1           0       13.651147    2.800453   -0.319086
    118          1           0       14.388274    2.000711    1.111051
    119          1           0       16.196242    1.187036   -0.805672
    120          1           0       15.197729    2.008554   -1.995531
    121          1           0       15.356671    4.332651   -0.763501
    122          1           0       16.318056    3.554440    0.343220
    123          1           0       17.978761    2.976599   -1.225327
    124          1           0       16.386842    4.778480   -3.091695
    125          1           0       18.029825    4.269965   -3.507242
    126          1           0       16.937069    3.094088   -3.666431
    127          1           0       18.118540    5.035981    0.350332
    128          1           0       18.937647    5.168049   -1.332552
    129          1           0       17.430341    5.848765   -1.176048
    130          1           0       -5.419809   -7.757906   -0.221904
    131          1           0       -6.450691   -6.828824    0.892379
    132          1           0       -4.826495   -6.837970    1.308070
    133          8           0       -7.776633    6.874318   -0.335296
    134          1           0       -8.924716    6.363997   -2.021221
 ---------------------------------------------------------------------

 SCF Done:  E(RCAM-B3LYP) =  -3043.49310687     A.U. after   15 cycles

 Excitation energies and oscillator strengths:

 Excited State   1:      Singlet-A      2.0510 eV  604.51 nm  f=0.2160  <S**2>=0.000
     243 -> 246       -0.22774
     244 -> 245        0.66323
 This state for optimization and/or second-order correction.
 Total Energy, E(TD-HF/TD-KS) =  -3043.41773420
 Copying the excited state density for this state as the 1-particle RhoCI density.

 The electronic state is 1-A.
 Alpha  occ. eigenvalues --  -46.80136 -19.23479 -19.22550 -19.18052 -19.17745
 Alpha  occ. eigenvalues --  -19.17366 -19.15809 -19.15488 -14.38744 -14.37222
 Alpha  occ. eigenvalues --  -14.36953 -14.36937 -10.35982 -10.34720 -10.31165
 Alpha  occ. eigenvalues --  -10.30692 -10.29692 -10.29342 -10.27689 -10.27550
 Alpha  occ. eigenvalues --  -10.27089 -10.26619 -10.26589 -10.26542 -10.26136
 Alpha  occ. eigenvalues --  -10.26030 -10.26004 -10.25983 -10.25851 -10.25423
 Alpha  occ. eigenvalues --  -10.24951 -10.24739 -10.24384 -10.24192 -10.24117
 Alpha  occ. eigenvalues --  -10.23586 -10.23234 -10.22984 -10.22898 -10.22818
 Alpha  occ. eigenvalues --  -10.22812 -10.22695 -10.22503 -10.22418 -10.22376
 Alpha  occ. eigenvalues --  -10.22208 -10.22168 -10.22166 -10.22054 -10.22039
 Alpha  occ. eigenvalues --  -10.21881 -10.21818 -10.21812 -10.21596 -10.21558
 Alpha  occ. eigenvalues --  -10.21451 -10.21405 -10.21122 -10.20963 -10.20691
 Alpha  occ. eigenvalues --  -10.20475 -10.20081 -10.19903 -10.19752 -10.19610
 Alpha  occ. eigenvalues --  -10.19179  -3.09069  -1.83985  -1.83546  -1.83501
 Alpha  occ. eigenvalues --   -1.14599  -1.12541  -1.09986  -1.08719  -1.03052
 Alpha  occ. eigenvalues --   -1.02880  -1.01249  -1.00875  -0.99679  -0.98878
 Alpha  occ. eigenvalues --   -0.97333  -0.89540  -0.87027  -0.86682  -0.86090
 Alpha  occ. eigenvalues --   -0.85181  -0.85144  -0.84365  -0.84072  -0.83436
 Alpha  occ. eigenvalues --   -0.83278  -0.83031  -0.82312  -0.81054  -0.79419
 Alpha  occ. eigenvalues --   -0.78496  -0.78333  -0.77983  -0.77861  -0.76635
 Alpha  occ. eigenvalues --   -0.75410  -0.74781  -0.74009  -0.73444  -0.71734
 Alpha  occ. eigenvalues --   -0.71608  -0.71422  -0.70636  -0.70049  -0.69467
 Alpha  occ. eigenvalues --   -0.69309  -0.68632  -0.67758  -0.67199  -0.66519
 Alpha  occ. eigenvalues --   -0.65629  -0.64960  -0.64499  -0.62700  -0.62456
 Alpha  occ. eigenvalues --   -0.61491  -0.61444  -0.59724  -0.59265  -0.59078
 Alpha  occ. eigenvalues --   -0.58898  -0.58345  -0.57811  -0.57068  -0.56962
 Alpha  occ. eigenvalues --   -0.56191  -0.56120  -0.55537  -0.55101  -0.54644
 Alpha  occ. eigenvalues --   -0.54609  -0.53923  -0.53578  -0.52579  -0.51933
 Alpha  occ. eigenvalues --   -0.51806  -0.51093  -0.50879  -0.50811  -0.50669
 Alpha  occ. eigenvalues --   -0.50469  -0.50265  -0.50068  -0.49433  -0.49149
 Alpha  occ. eigenvalues --   -0.48998  -0.48707  -0.48504  -0.48132  -0.47810
 Alpha  occ. eigenvalues --   -0.47679  -0.47577  -0.47456  -0.47263  -0.47137
 Alpha  occ. eigenvalues --   -0.46946  -0.46728  -0.46500  -0.45994  -0.45957
 Alpha  occ. eigenvalues --   -0.45703  -0.45462  -0.45292  -0.45002  -0.44715
 Alpha  occ. eigenvalues --   -0.44514  -0.44298  -0.44198  -0.43932  -0.43549
 Alpha  occ. eigenvalues --   -0.43414  -0.43309  -0.43275  -0.42935  -0.42880
 Alpha  occ. eigenvalues --   -0.42802  -0.42565  -0.42407  -0.42365  -0.41779
 Alpha  occ. eigenvalues --   -0.41613  -0.41496  -0.41421  -0.41346  -0.41140
 Alpha  occ. eigenvalues --   -0.40997  -0.40915  -0.40471  -0.40254  -0.40159
 Alpha  occ. eigenvalues --   -0.39839  -0.39602  -0.39378  -0.39179  -0.38897
 Alpha  occ. eigenvalues --   -0.38766  -0.38620  -0.38417  -0.38295  -0.38179
 Alpha  occ. eigenvalues --   -0.37827  -0.37788  -0.37461  -0.36998  -0.36898
 Alpha  occ. eigenvalues --   -0.36593  -0.36399  -0.36314  -0.36302  -0.35829
 Alpha  occ. eigenvalues --   -0.35504  -0.35193  -0.35032  -0.34615  -0.34594
 Alpha  occ. eigenvalues --   -0.33924  -0.33876  -0.33232  -0.33059  -0.33044
 Alpha  occ. eigenvalues --   -0.32754  -0.32189  -0.32072  -0.31788  -0.31344
 Alpha  occ. eigenvalues --   -0.31334  -0.31144  -0.30363  -0.29169  -0.29063
 Alpha  occ. eigenvalues --   -0.28697  -0.28433  -0.28172  -0.27952  -0.27202
 Alpha  occ. eigenvalues --   -0.27014  -0.26695  -0.23695  -0.21253
 Alpha virt. eigenvalues --   -0.08151  -0.06672  -0.01952  -0.00469   0.00315
 Alpha virt. eigenvalues --    0.01758   0.03208   0.03527   0.04223   0.04674
 Alpha virt. eigenvalues --    0.05139   0.06140   0.07446   0.08173   0.08713

 Mulliken charges:
               1
     1  Mg   0.818800
     2  C    0.113449
     3  C   -0.190855
     4  C   -0.099560
     5  C   -0.137411
     6  N   -0.653552
     7  C    0.250171
     8  C   -0.151202
     9  C   -0.161522
    10  C    0.384473
    11  C   -0.314402
    12  C   -0.168123
    13  C   -0.230659
    14  C    0.576178
    15  O   -0.527493
    16  O   -0.426981
    17  N   -0.739039
    18  C    0.318282
    19  C    0.060979
    20  C   -0.023571
    21  C    0.296864
    22  C   -0.363792
    23  C    0.255003
    24  O   -0.382564
    25  N   -0.665407
    26  C    0.303884
    27  C   -0.087651
    28  C    0.079234
    29  C    0.249407
    30  C    0.225850
    31  C   -0.258585
    32  C   -0.317265
    33  N   -0.672347
    34  C    0.262610
    35  C    0.035897
    36  C    0.073412
    37  C    0.249595
    38  C   -0.398457
    39  C    0.331384
    40  O   -0.435450
    41  C   -0.352326
    42  C    0.618173
    43  O   -0.495028
    44  O   -0.445462
    45  C   -0.081934
    46  C   -0.017570
    47  C   -0.152458
    48  C    0.149848
    49  C   -0.364940
    50  C   -0.220758
    51  C   -0.173088
    52  C   -0.177572
    53  C   -0.082764
    54  C   -0.307893
    55  C   -0.161449
    56  C   -0.181483
    57  C   -0.152801
    58  C   -0.043264
    59  C   -0.309692
    60  C   -0.178773
    61  C   -0.174094
    62  C   -0.166779
    63  C   -0.055873
    64  C   -0.316020
    65  C   -0.306027
    66  H    0.098451
    67  H    0.103880
    68  H    0.086925
    69  H    0.144581
    70  H    0.091815
    71  H    0.115275
    72  H    0.106619
    73  H    0.126481
    74  H    0.119163
    75  H    0.115389
    76  H    0.139114
    77  H    0.143566
    78  H    0.101508
    79  H    0.154114
    80  H    0.095992
    81  H    0.073071
    82  H    0.120872
    83  H    0.116061
    84  H    0.122041
    85  H    0.116980
    86  H    0.098967
    87  H    0.135724
    88  H    0.147985
    89  H    0.098453
    90  H    0.175179
    91  H    0.108793
    92  H    0.141991
    93  H    0.086231
    94  H    0.144021
    95  H    0.115286
    96  H    0.121547
    97  H    0.091059
    98  H    0.102845
    99  H    0.073832
   100  H    0.101803
   101  H    0.078711
   102  H    0.086969
   103  H    0.076238
   104  H    0.109281
   105  H    0.095516
   106  H    0.093638
   107  H    0.096425
   108  H    0.103178
   109  H    0.109986
   110  H    0.078617
   111  H    0.070306
   112  H    0.066324
   113  H    0.075994
   114  H    0.097839
   115  H    0.093488
   116  H    0.087301
   117  H    0.083338
   118  H    0.077884
   119  H    0.081746
   120  H    0.104622
   121  H    0.086484
   122  H    0.094926
   123  H    0.068859
   124  H    0.098660
   125  H    0.095439
   126  H    0.110333
   127  H    0.086945
   128  H    0.107850
   129  H    0.099681
   130  H    0.128291
   131  H    0.140788
   132  H    0.128768
   133  O   -0.453098
   134  H    0.073508
 Sum of Mulliken charges =   0.00000

 Dipole moment (field-independent basis, Debye):
    X=              3.0896    Y=             -4.9060    Z=             -1.3872  Tot=              5.9614
 Quadrupole moment (field-independent basis, Debye-Ang):
   XX=           -375.9225   YY=           -437.0470   ZZ=           -392.1464
   XY=             19.2741   XZ=             23.2657   YZ=            -33.7953

 Normal termination of Gaussian 09 at Wed Oct  9 03:34:08 2019.
