 Gaussian 09, Revision D.01,
 Gaussian 09:  ES64L-G09RevD.01 24-Apr-2013

 ----------------------------------------------------------------------
 # td=(NStates=1) iop(3/107=0140000000,3/108=0140000000) iop(3/107=0140
 000000,3/108=0140000000) CAM-B3LYP/6-31G(d,p)
 ----------------------------------------------------------------------

 --
 TD
 --
 Symbolic Z-matrix:
 Charge =  0 Multiplicity = 1

                         Standard orientation:
 ---------------------------------------------------------------------
 Center     Atomic      Atomic             Coordinates (Angstroms)
 Number     Number       Type             X           Y           Z
 ---------------------------------------------------------------------
      1         12           0       -5.534899    1.198259    0.130704
      2          6           0       -5.033959   -2.082540   -0.383424
      3          6           0       -3.320413    1.183754    2.631329
      4          6           0       -6.157268    4.548809    0.652769
      5          6           0       -7.988162    1.203369   -2.409761
      6          7           0       -4.268382   -0.241688    0.903751
      7          6           0       -4.271085   -1.551383    0.593962
      8          6           0       -3.165714   -2.292987    1.413213
      9          6           0       -2.830263   -1.266741    2.594626
     10          6           0       -3.466006   -0.012443    2.066603
     11          6           0       -3.475071   -1.704541    3.924767
     12          6           0       -1.933504   -2.637687    0.608696
     13          6           0       -0.974518   -3.563429    1.356468
     14          6           0        0.199312   -3.895101    0.578559
     15          8           0        0.632830   -3.471349   -0.574857
     16          8           0        1.020495   -4.777646    1.221491
     17          7           0       -4.871989    2.655627    1.466943
     18          6           0       -3.883184    2.443596    2.430361
     19          6           0       -3.686008    3.718752    3.156362
     20          6           0       -4.424683    4.625048    2.541570
     21          6           0       -5.239482    3.939618    1.511719
     22          6           0       -2.671233    3.733528    4.266524
     23          6           0       -4.707306    5.978813    3.112678
     24          8           0       -4.194582    6.473572    4.095411
     25          7           0       -6.879663    2.588402   -0.673117
     26          6           0       -6.984145    3.965459   -0.278858
     27          6           0       -8.036937    4.570725   -1.176465
     28          6           0       -8.527934    3.730566   -2.017109
     29          6           0       -7.812641    2.408375   -1.715007
     30          6           0       -8.371312    6.000736   -1.144169
     31          6           0       -9.491432    3.787715   -3.170190
     32          6           0       -8.920813    4.025675   -4.559146
     33          7           0       -6.465806   -0.113606   -1.092323
     34          6           0       -7.461610   -0.078314   -2.123505
     35          6           0       -7.685140   -1.378148   -2.706561
     36          6           0       -6.785293   -2.140897   -2.118811
     37          6           0       -6.127926   -1.388494   -1.095231
     38          6           0       -8.577790   -1.615428   -3.735113
     39          6           0       -6.320684   -3.604746   -2.070987
     40          8           0       -6.614042   -4.570126   -2.664697
     41          6           0       -5.084510   -3.518085   -0.949065
     42          6           0       -5.332712   -4.586429    0.124542
     43          8           0       -5.801644   -4.373917    1.278137
     44          8           0       -5.222286   -5.869937   -0.410895
     45          6           0       -5.529497   -6.972337    0.361140
     46          6           0        2.402748   -5.145094    0.660387
     47          6           0        3.455188   -4.142136    1.034661
     48          6           0        4.097879   -3.178691    0.282713
     49          6           0        3.859598   -3.024072   -1.235466
     50          6           0        5.174286   -2.360241    0.858690
     51          6           0        6.551714   -2.743149    0.280420
     52          6           0        7.714576   -1.818957    0.831794
     53          6           0        9.057632   -2.029303    0.137636
     54          6           0        9.633490   -3.422107    0.414508
     55          6           0       10.021670   -0.855868    0.498252
     56          6           0       11.284330   -0.821346   -0.311569
     57          6           0       12.199783    0.331058    0.142651
     58          6           0       13.599716    0.468909   -0.596315
     59          6           0       14.510195   -0.748810   -0.389671
     60          6           0       14.382855    1.761718   -0.218427
     61          6           0       15.457616    2.231700   -1.245340
     62          6           0       16.088898    3.474025   -0.704773
     63          6           0       17.340464    3.849100   -1.431457
     64          6           0       17.176733    4.083515   -2.979860
     65          6           0       17.987119    5.191809   -0.943192
     66          1           0       -2.528433    1.263235    3.430132
     67          1           0       -6.435181    5.494095    1.233237
     68          1           0       -8.841290    1.159342   -3.092500
     69          1           0       -3.484598   -3.264890    1.689129
     70          1           0       -1.781522   -1.166065    2.708240
     71          1           0       -3.038824   -2.684353    4.299599
     72          1           0       -3.309184   -0.877434    4.584374
     73          1           0       -4.546443   -1.878706    3.951525
     74          1           0       -2.171808   -3.190485   -0.289185
     75          1           0       -1.477138   -1.804077    0.269958
     76          1           0       -0.706957   -2.968244    2.266020
     77          1           0       -1.452488   -4.441915    1.658291
     78          1           0       -1.673379    3.701775    3.831963
     79          1           0       -2.638799    4.675771    4.831789
     80          1           0       -2.959579    2.895841    4.968644
     81          1           0       -5.662930    6.500797    2.591222
     82          1           0      -10.014246    2.982269   -2.918177
     83          1           0      -10.150719    4.761711   -2.827201
     84          1           0       -9.693755    4.000694   -5.430626
     85          1           0       -8.436260    5.056356   -4.667626
     86          1           0       -8.295910    3.081041   -4.849230
     87          1           0       -8.450557   -1.147698   -4.655172
     88          1           0       -8.429025   -2.682053   -4.014454
     89          1           0       -9.744024   -1.401898   -3.287761
     90          1           0       -4.090277   -3.870192   -1.418154
     91          1           0        2.562963   -6.198336    1.035372
     92          1           0        2.012872   -5.139346   -0.288705
     93          1           0        4.120173   -4.420587    2.017647
     94          1           0        2.955944   -3.744778   -1.567137
     95          1           0        3.927465   -2.007911   -1.591698
     96          1           0        4.481574   -3.453393   -1.733543
     97          1           0        5.066929   -1.263706    0.766029
     98          1           0        5.211743   -2.435981    1.906765
     99          1           0        6.712188   -3.834406    0.386136
    100          1           0        6.426130   -2.647288   -0.761771
    101          1           0        7.031425   -0.729635    0.798730
    102          1           0        7.903993   -2.149693    1.903039
    103          1           0        8.836941   -2.137117   -0.952921
    104          1           0        8.892066   -4.101453    0.031531
    105          1           0       10.519548   -3.498764    0.016260
    106          1           0        9.545824   -3.712517    1.456261
    107          1           0        9.496079    0.138051    0.102707
    108          1           0       10.161583   -0.959746    1.493717
    109          1           0       11.849247   -1.774796   -0.225550
    110          1           0       11.104388   -0.789830   -1.404007
    111          1           0       11.603019    1.246009   -0.011511
    112          1           0       12.589074    0.241816    1.228543
    113          1           0       13.379033    0.369260   -1.627342
    114          1           0       14.781922   -0.732331    0.610862
    115          1           0       14.108561   -1.768839   -0.443166
    116          1           0       15.338809   -0.748402   -1.121820
    117          1           0       13.550632    2.510804   -0.225119
    118          1           0       14.670584    1.553465    0.840458
    119          1           0       16.117985    1.474912   -1.105991
    120          1           0       15.265582    2.189323   -2.319652
    121          1           0       15.536801    4.317703   -0.793378
    122          1           0       16.487982    3.030294    0.434721
    123          1           0       18.107157    2.970935   -1.499492
    124          1           0       16.420073    4.876494   -3.263828
    125          1           0       18.277038    4.394724   -3.158900
    126          1           0       16.964675    3.124524   -3.650676
    127          1           0       18.398395    5.161197    0.142319
    128          1           0       18.749340    5.452518   -1.558293
    129          1           0       17.183767    6.125684   -0.901460
    130          1           0       -5.466619   -7.772049   -0.280110
    131          1           0       -6.738483   -6.799591    0.800432
    132          1           0       -5.117983   -7.190764    1.302801
    133          8           0       -7.732997    6.798829   -0.433414
    134          1           0       -9.401006    6.301762   -1.695674
 ---------------------------------------------------------------------

 SCF Done:  E(RCAM-B3LYP) =  -3043.44663290     A.U. after   16 cycles

 Excitation energies and oscillator strengths:

 Excited State   1:      Singlet-A      1.9676 eV  630.12 nm  f=0.2568  <S**2>=0.000
     243 -> 246       -0.21036
     244 -> 245        0.67008
 This state for optimization and/or second-order correction.
 Total Energy, E(TD-HF/TD-KS) =  -3043.37432377
 Copying the excited state density for this state as the 1-particle RhoCI density.

 The electronic state is 1-A.
 Alpha  occ. eigenvalues --  -46.81547 -19.22942 -19.20126 -19.19441 -19.17582
 Alpha  occ. eigenvalues --  -19.17539 -19.17510 -19.15608 -14.38719 -14.37688
 Alpha  occ. eigenvalues --  -14.36747 -14.36655 -10.35780 -10.34724 -10.33343
 Alpha  occ. eigenvalues --  -10.31470 -10.31181 -10.27539 -10.27241 -10.27222
 Alpha  occ. eigenvalues --  -10.27070 -10.26964 -10.26752 -10.26443 -10.26165
 Alpha  occ. eigenvalues --  -10.26155 -10.26070 -10.25991 -10.24588 -10.24414
 Alpha  occ. eigenvalues --  -10.24377 -10.24376 -10.24348 -10.24274 -10.24144
 Alpha  occ. eigenvalues --  -10.24060 -10.23845 -10.23725 -10.23407 -10.23397
 Alpha  occ. eigenvalues --  -10.23386 -10.23303 -10.23052 -10.23018 -10.22738
 Alpha  occ. eigenvalues --  -10.22690 -10.22682 -10.22423 -10.22249 -10.22029
 Alpha  occ. eigenvalues --  -10.21941 -10.21915 -10.21424 -10.21387 -10.21302
 Alpha  occ. eigenvalues --  -10.21263 -10.21130 -10.21049 -10.21035 -10.20842
 Alpha  occ. eigenvalues --  -10.20817 -10.20625 -10.19784 -10.19776 -10.19112
 Alpha  occ. eigenvalues --  -10.19016  -3.10081  -1.85025  -1.84551  -1.84490
 Alpha  occ. eigenvalues --   -1.12455  -1.11066  -1.09323  -1.06971  -1.05608
 Alpha  occ. eigenvalues --   -1.03268  -1.00602  -0.99730  -0.98902  -0.98578
 Alpha  occ. eigenvalues --   -0.96935  -0.87152  -0.86707  -0.86391  -0.86152
 Alpha  occ. eigenvalues --   -0.85982  -0.85309  -0.84683  -0.84489  -0.83919
 Alpha  occ. eigenvalues --   -0.83141  -0.82814  -0.82010  -0.80287  -0.79691
 Alpha  occ. eigenvalues --   -0.79115  -0.78596  -0.77700  -0.77216  -0.76890
 Alpha  occ. eigenvalues --   -0.76181  -0.75407  -0.74613  -0.72667  -0.72314
 Alpha  occ. eigenvalues --   -0.72239  -0.70880  -0.70253  -0.69793  -0.69470
 Alpha  occ. eigenvalues --   -0.69064  -0.68807  -0.67725  -0.66687  -0.66174
 Alpha  occ. eigenvalues --   -0.65440  -0.65145  -0.63848  -0.63246  -0.62835
 Alpha  occ. eigenvalues --   -0.62165  -0.60688  -0.60640  -0.59135  -0.58753
 Alpha  occ. eigenvalues --   -0.58744  -0.58257  -0.57325  -0.57287  -0.56766
 Alpha  occ. eigenvalues --   -0.56138  -0.55846  -0.55394  -0.55071  -0.54171
 Alpha  occ. eigenvalues --   -0.53972  -0.53002  -0.52670  -0.52593  -0.52361
 Alpha  occ. eigenvalues --   -0.51287  -0.51215  -0.50959  -0.50789  -0.50341
 Alpha  occ. eigenvalues --   -0.50123  -0.50078  -0.50015  -0.49647  -0.49113
 Alpha  occ. eigenvalues --   -0.48955  -0.48621  -0.48317  -0.48089  -0.47868
 Alpha  occ. eigenvalues --   -0.47549  -0.47240  -0.47170  -0.47123  -0.46902
 Alpha  occ. eigenvalues --   -0.46607  -0.46435  -0.46271  -0.46251  -0.46020
 Alpha  occ. eigenvalues --   -0.45920  -0.45805  -0.45379  -0.45034  -0.44832
 Alpha  occ. eigenvalues --   -0.44517  -0.44251  -0.44239  -0.44123  -0.43756
 Alpha  occ. eigenvalues --   -0.43529  -0.43454  -0.43346  -0.42853  -0.42752
 Alpha  occ. eigenvalues --   -0.42666  -0.42308  -0.42290  -0.42094  -0.41706
 Alpha  occ. eigenvalues --   -0.41700  -0.41474  -0.41365  -0.41222  -0.41017
 Alpha  occ. eigenvalues --   -0.40717  -0.40599  -0.40259  -0.40232  -0.40030
 Alpha  occ. eigenvalues --   -0.39790  -0.39610  -0.39399  -0.39361  -0.39258
 Alpha  occ. eigenvalues --   -0.38991  -0.38782  -0.38567  -0.38539  -0.38392
 Alpha  occ. eigenvalues --   -0.38134  -0.37969  -0.37416  -0.37098  -0.36797
 Alpha  occ. eigenvalues --   -0.36522  -0.36378  -0.35768  -0.35653  -0.35496
 Alpha  occ. eigenvalues --   -0.35196  -0.35190  -0.34935  -0.34718  -0.34495
 Alpha  occ. eigenvalues --   -0.34084  -0.33882  -0.33590  -0.33493  -0.33261
 Alpha  occ. eigenvalues --   -0.32880  -0.32260  -0.32063  -0.31676  -0.31582
 Alpha  occ. eigenvalues --   -0.30919  -0.30656  -0.30511  -0.30332  -0.29731
 Alpha  occ. eigenvalues --   -0.28849  -0.28771  -0.28684  -0.28513  -0.27928
 Alpha  occ. eigenvalues --   -0.27529  -0.26714  -0.23052  -0.21213
 Alpha virt. eigenvalues --   -0.08731  -0.05585  -0.01078  -0.00713   0.00151
 Alpha virt. eigenvalues --    0.01339   0.01991   0.02625   0.03332   0.04370
 Alpha virt. eigenvalues --    0.04832   0.05861   0.07626   0.08452   0.09009

 Mulliken charges:
               1
     1  Mg   0.819552
     2  C    0.071798
     3  C   -0.212221
     4  C   -0.136584
     5  C   -0.199213
     6  N   -0.663241
     7  C    0.338880
     8  C   -0.143100
     9  C   -0.148759
    10  C    0.351929
    11  C   -0.306657
    12  C   -0.180258
    13  C   -0.255823
    14  C    0.602603
    15  O   -0.526923
    16  O   -0.506280
    17  N   -0.688807
    18  C    0.293467
    19  C    0.086272
    20  C   -0.070926
    21  C    0.289780
    22  C   -0.383149
    23  C    0.251643
    24  O   -0.408168
    25  N   -0.657091
    26  C    0.288052
    27  C   -0.015350
    28  C    0.052570
    29  C    0.273335
    30  C    0.225962
    31  C   -0.208332
    32  C   -0.300713
    33  N   -0.694152
    34  C    0.226229
    35  C    0.107021
    36  C   -0.024398
    37  C    0.300513
    38  C   -0.407664
    39  C    0.411244
    40  O   -0.395003
    41  C   -0.338804
    42  C    0.596154
    43  O   -0.480928
    44  O   -0.428482
    45  C   -0.069418
    46  C    0.019753
    47  C   -0.135401
    48  C    0.142041
    49  C   -0.353234
    50  C   -0.241995
    51  C   -0.191818
    52  C   -0.145884
    53  C   -0.080921
    54  C   -0.314311
    55  C   -0.133508
    56  C   -0.190936
    57  C   -0.162209
    58  C   -0.083906
    59  C   -0.318878
    60  C   -0.173594
    61  C   -0.180140
    62  C   -0.115744
    63  C   -0.065883
    64  C   -0.300482
    65  C   -0.296674
    66  H    0.080443
    67  H    0.114870
    68  H    0.078899
    69  H    0.107700
    70  H    0.112103
    71  H    0.104903
    72  H    0.109925
    73  H    0.135950
    74  H    0.111016
    75  H    0.126869
    76  H    0.143672
    77  H    0.147139
    78  H    0.136066
    79  H    0.151802
    80  H    0.119011
    81  H    0.059785
    82  H    0.130309
    83  H    0.079083
    84  H    0.107313
    85  H    0.123559
    86  H    0.108387
    87  H    0.144744
    88  H    0.139005
    89  H    0.102597
    90  H    0.148471
    91  H    0.121249
    92  H    0.136828
    93  H    0.065281
    94  H    0.118661
    95  H    0.109875
    96  H    0.139045
    97  H    0.101283
    98  H    0.106184
    99  H    0.093316
   100  H    0.103872
   101  H    0.056727
   102  H    0.086105
   103  H    0.078005
   104  H    0.105235
   105  H    0.115929
   106  H    0.095609
   107  H    0.076743
   108  H    0.100496
   109  H    0.085011
   110  H    0.092476
   111  H    0.087370
   112  H    0.071311
   113  H    0.081223
   114  H    0.099612
   115  H    0.092749
   116  H    0.099883
   117  H    0.084479
   118  H    0.090258
   119  H    0.111482
   120  H    0.097499
   121  H    0.096224
   122  H    0.057107
   123  H    0.075280
   124  H    0.097696
   125  H    0.093217
   126  H    0.082187
   127  H    0.090239
   128  H    0.113229
   129  H    0.074221
   130  H    0.129506
   131  H    0.071731
   132  H    0.133661
   133  O   -0.418011
   134  H    0.063454
 Sum of Mulliken charges =   0.00000

 Dipole moment (field-independent basis, Debye):
    X=              2.2409    Y=             -4.5773    Z=             -2.2666  Tot=              5.5777
 Quadrupole moment (field-independent basis, Debye-Ang):
   XX=           -361.0296   YY=           -436.4685   ZZ=           -393.2621
   XY=              0.0553   XZ=             25.9547   YZ=            -30.8383

 Normal termination of Gaussian 09 at Tue Oct  8 08:08:57 2019.
