 Gaussian 09, Revision D.01,
 Gaussian 09:  ES64L-G09RevD.01 24-Apr-2013

 ----------------------------------------------------------------------
 # td=(NStates=1) iop(3/107=0140000000,3/108=0140000000) iop(3/107=0140
 000000,3/108=0140000000) CAM-B3LYP/6-31G(d,p)
 ----------------------------------------------------------------------

 --
 TD
 --
 Symbolic Z-matrix:
 Charge =  0 Multiplicity = 1

                         Standard orientation:
 ---------------------------------------------------------------------
 Center     Atomic      Atomic             Coordinates (Angstroms)
 Number     Number       Type             X           Y           Z
 ---------------------------------------------------------------------
      1         12           0       -5.618078    1.267429    0.167369
      2          6           0       -5.061251   -2.106302   -0.344546
      3          6           0       -3.553343    1.217531    2.812276
      4          6           0       -6.268811    4.514147    0.724711
      5          6           0       -8.021203    1.181157   -2.419059
      6          7           0       -4.477673   -0.241654    1.107874
      7          6           0       -4.290665   -1.636204    0.704010
      8          6           0       -3.220499   -2.399658    1.532419
      9          6           0       -2.969547   -1.349435    2.683966
     10          6           0       -3.658629   -0.043760    2.154989
     11          6           0       -3.607231   -1.891209    3.949747
     12          6           0       -1.984962   -2.563515    0.727957
     13          6           0       -1.077689   -3.500886    1.437415
     14          6           0        0.221898   -3.877711    0.641064
     15          8           0        0.494903   -3.661111   -0.486221
     16          8           0        1.063612   -4.657429    1.540209
     17          7           0       -4.917329    2.603913    1.551191
     18          6           0       -4.073540    2.429385    2.499067
     19          6           0       -3.772767    3.623660    3.239195
     20          6           0       -4.662571    4.572881    2.701660
     21          6           0       -5.334876    3.891900    1.562855
     22          6           0       -2.846429    3.642699    4.281415
     23          6           0       -4.619883    6.064278    2.901861
     24          8           0       -3.968813    6.529849    3.916522
     25          7           0       -6.817410    2.666944   -0.695054
     26          6           0       -6.963785    4.025581   -0.386224
     27          6           0       -7.851068    4.727101   -1.300024
     28          6           0       -8.479763    3.764244   -2.119233
     29          6           0       -7.771734    2.464776   -1.791792
     30          6           0       -8.309443    6.026574   -1.185036
     31          6           0       -9.291618    3.748533   -3.235826
     32          6           0       -8.586157    3.982460   -4.545512
     33          7           0       -6.357860   -0.099587   -1.169912
     34          6           0       -7.442158   -0.011521   -2.123240
     35          6           0       -7.567312   -1.330690   -2.765485
     36          6           0       -6.680464   -2.180851   -2.085492
     37          6           0       -5.967934   -1.400241   -1.177186
     38          6           0       -8.366892   -1.688393   -3.971771
     39          6           0       -6.145253   -3.516181   -2.006536
     40          8           0       -6.437593   -4.514044   -2.667721
     41          6           0       -5.134715   -3.556735   -0.889870
     42          6           0       -5.228268   -4.666944    0.103961
     43          8           0       -5.667415   -4.425298    1.200310
     44          8           0       -5.118055   -5.912022   -0.472998
     45          6           0       -5.231675   -6.926999    0.560516
     46          6           0        2.333868   -5.082941    0.926862
     47          6           0        3.399118   -3.988219    1.131224
     48          6           0        4.063018   -3.253517    0.218007
     49          6           0        3.683741   -3.218742   -1.237064
     50          6           0        5.260575   -2.363377    0.660221
     51          6           0        6.505089   -2.635660   -0.077313
     52          6           0        7.627278   -1.734355    0.362278
     53          6           0        8.966186   -1.921256   -0.209711
     54          6           0        9.485105   -3.363708   -0.064251
     55          6           0        9.934768   -0.938809    0.403527
     56          6           0       11.267965   -0.741652   -0.414155
     57          6           0       12.263401    0.390547    0.125559
     58          6           0       13.591615    0.452708   -0.632691
     59          6           0       14.462775   -0.778415   -0.440444
     60          6           0       14.291334    1.688250   -0.160635
     61          6           0       15.517433    2.159540   -1.036524
     62          6           0       16.032231    3.461040   -0.608291
     63          6           0       17.498834    3.887433   -1.292629
     64          6           0       17.150661    4.104282   -2.868556
     65          6           0       18.055640    5.103222   -0.483093
     66          1           0       -3.121990    1.070681    3.764410
     67          1           0       -6.562473    5.564401    0.836357
     68          1           0       -8.567600    1.384947   -3.240475
     69          1           0       -3.809177   -3.315788    1.841115
     70          1           0       -2.025614   -1.333329    2.954882
     71          1           0       -2.854220   -2.787045    4.192231
     72          1           0       -3.505361   -1.223365    4.779111
     73          1           0       -4.632763   -2.270284    3.721861
     74          1           0       -2.225883   -3.010201   -0.286360
     75          1           0       -1.464312   -1.704134    0.382850
     76          1           0       -0.910909   -3.018777    2.452618
     77          1           0       -1.557941   -4.451877    1.853416
     78          1           0       -1.723233    3.641799    4.044480
     79          1           0       -2.908961    4.507414    4.998366
     80          1           0       -2.951044    2.775439    4.912505
     81          1           0       -5.347203    6.670594    2.246290
     82          1           0       -9.854023    2.739836   -3.343883
     83          1           0      -10.152024    4.477987   -2.999378
     84          1           0       -9.289156    4.083051   -5.389091
     85          1           0       -8.019656    4.967475   -4.729541
     86          1           0       -7.822500    3.152406   -4.764750
     87          1           0       -8.101920   -1.034197   -4.685953
     88          1           0       -8.260861   -2.764773   -4.217943
     89          1           0       -9.508236   -1.658917   -3.826435
     90          1           0       -4.188116   -3.757452   -1.577672
     91          1           0        2.635302   -5.983646    1.390167
     92          1           0        2.181447   -5.261972   -0.151899
     93          1           0        3.850759   -3.761139    2.248797
     94          1           0        2.855254   -4.063237   -1.689496
     95          1           0        3.472373   -2.218387   -1.711066
     96          1           0        4.524130   -3.612336   -1.835698
     97          1           0        4.577805   -1.455811    0.739982
     98          1           0        5.367162   -2.714604    1.766732
     99          1           0        6.633939   -3.789789   -0.057807
    100          1           0        6.259906   -2.677433   -1.147846
    101          1           0        7.437239   -0.629230    0.029588
    102          1           0        7.885051   -1.689911    1.574706
    103          1           0        8.959102   -1.747682   -1.212463
    104          1           0        8.990037   -4.027215   -0.517497
    105          1           0       10.472513   -3.495549   -0.442687
    106          1           0        9.538524   -3.769688    1.059822
    107          1           0        9.656657    0.114870    0.530093
    108          1           0       10.073581   -1.228945    1.456254
    109          1           0       11.683278   -1.637791   -0.376229
    110          1           0       10.925315   -0.401090   -1.384490
    111          1           0       11.425095    1.257039    0.178380
    112          1           0       12.338957   -0.074438    1.151515
    113          1           0       13.338187    0.596079   -1.687444
    114          1           0       14.736889   -0.735186    0.587884
    115          1           0       13.992463   -1.750938   -0.801041
    116          1           0       15.370641   -0.686497   -0.929519
    117          1           0       13.460432    2.266453   -0.051979
    118          1           0       14.737568    1.750826    0.947861
    119          1           0       16.295624    1.351924   -1.005530
    120          1           0       15.166716    2.201874   -2.029305
    121          1           0       15.409489    4.231057   -0.889391
    122          1           0       16.132439    3.468290    0.576281
    123          1           0       18.133942    2.905852   -1.304586
    124          1           0       16.448932    4.955568   -2.910885
    125          1           0       18.091381    4.637131   -3.172182
    126          1           0       16.962237    3.202623   -3.396297
    127          1           0       18.176019    4.930932    0.583673
    128          1           0       18.962037    5.565390   -1.002176
    129          1           0       17.148696    6.014413   -0.314570
    130          1           0       -4.870819   -7.856578    0.135766
    131          1           0       -6.300064   -7.185648    0.844988
    132          1           0       -4.685681   -6.807489    1.419418
    133          8           0       -7.862886    6.951817   -0.518106
    134          1           0       -9.128952    6.159216   -1.829344
 ---------------------------------------------------------------------

 SCF Done:  E(RCAM-B3LYP) =  -3043.48110744     A.U. after   16 cycles

 Excitation energies and oscillator strengths:

 Excited State   1:      Singlet-A      2.0237 eV  612.67 nm  f=0.1542  <S**2>=0.000
     243 -> 246        0.26567
     244 -> 245        0.63778
 This state for optimization and/or second-order correction.
 Total Energy, E(TD-HF/TD-KS) =  -3043.40673924
 Copying the excited state density for this state as the 1-particle RhoCI density.

 The electronic state is 1-A.
 Alpha  occ. eigenvalues --  -46.81442 -19.24010 -19.20756 -19.19394 -19.18614
 Alpha  occ. eigenvalues --  -19.17079 -19.16264 -19.16237 -14.39408 -14.37384
 Alpha  occ. eigenvalues --  -14.36721 -14.36531 -10.36196 -10.36018 -10.31338
 Alpha  occ. eigenvalues --  -10.31008 -10.28576 -10.28322 -10.27975 -10.27168
 Alpha  occ. eigenvalues --  -10.27162 -10.26917 -10.26866 -10.26655 -10.26601
 Alpha  occ. eigenvalues --  -10.25824 -10.25737 -10.25659 -10.25590 -10.25506
 Alpha  occ. eigenvalues --  -10.25246 -10.24996 -10.24775 -10.24349 -10.24321
 Alpha  occ. eigenvalues --  -10.24196 -10.23936 -10.23736 -10.23734 -10.23554
 Alpha  occ. eigenvalues --  -10.23307 -10.23213 -10.23161 -10.23062 -10.23006
 Alpha  occ. eigenvalues --  -10.23002 -10.22803 -10.22643 -10.22539 -10.22495
 Alpha  occ. eigenvalues --  -10.22341 -10.22112 -10.22013 -10.21948 -10.21778
 Alpha  occ. eigenvalues --  -10.21731 -10.21583 -10.20717 -10.20446 -10.20341
 Alpha  occ. eigenvalues --  -10.20231 -10.20154 -10.20015 -10.19531 -10.19313
 Alpha  occ. eigenvalues --  -10.19103  -3.10019  -1.84959  -1.84497  -1.84423
 Alpha  occ. eigenvalues --   -1.14099  -1.12600  -1.06385  -1.05824  -1.05762
 Alpha  occ. eigenvalues --   -1.04045  -1.02816  -1.02118  -0.99103  -0.98119
 Alpha  occ. eigenvalues --   -0.96615  -0.88866  -0.87564  -0.87355  -0.86700
 Alpha  occ. eigenvalues --   -0.85478  -0.85082  -0.84542  -0.84037  -0.83492
 Alpha  occ. eigenvalues --   -0.83303  -0.82319  -0.81845  -0.80190  -0.80041
 Alpha  occ. eigenvalues --   -0.79693  -0.78165  -0.77730  -0.77572  -0.76195
 Alpha  occ. eigenvalues --   -0.75456  -0.75307  -0.73884  -0.73474  -0.72636
 Alpha  occ. eigenvalues --   -0.71906  -0.71121  -0.70583  -0.70438  -0.70078
 Alpha  occ. eigenvalues --   -0.69675  -0.68331  -0.67319  -0.67140  -0.66740
 Alpha  occ. eigenvalues --   -0.66327  -0.65005  -0.64271  -0.63008  -0.62347
 Alpha  occ. eigenvalues --   -0.62157  -0.61211  -0.60241  -0.59658  -0.59555
 Alpha  occ. eigenvalues --   -0.59104  -0.58511  -0.57925  -0.57554  -0.57288
 Alpha  occ. eigenvalues --   -0.56809  -0.56372  -0.55330  -0.54672  -0.54515
 Alpha  occ. eigenvalues --   -0.53895  -0.53501  -0.53346  -0.52855  -0.52398
 Alpha  occ. eigenvalues --   -0.52094  -0.51884  -0.51576  -0.51078  -0.50707
 Alpha  occ. eigenvalues --   -0.50228  -0.50024  -0.49464  -0.49378  -0.49128
 Alpha  occ. eigenvalues --   -0.49048  -0.48679  -0.48645  -0.48402  -0.48160
 Alpha  occ. eigenvalues --   -0.47928  -0.47764  -0.47571  -0.47352  -0.47265
 Alpha  occ. eigenvalues --   -0.46985  -0.46762  -0.46413  -0.46176  -0.46014
 Alpha  occ. eigenvalues --   -0.45730  -0.45588  -0.45413  -0.45140  -0.44749
 Alpha  occ. eigenvalues --   -0.44621  -0.44541  -0.44265  -0.43903  -0.43672
 Alpha  occ. eigenvalues --   -0.43587  -0.43453  -0.43229  -0.43131  -0.42969
 Alpha  occ. eigenvalues --   -0.42667  -0.42374  -0.41980  -0.41945  -0.41812
 Alpha  occ. eigenvalues --   -0.41565  -0.41334  -0.41166  -0.40924  -0.40893
 Alpha  occ. eigenvalues --   -0.40735  -0.40595  -0.40400  -0.40137  -0.39993
 Alpha  occ. eigenvalues --   -0.39944  -0.39641  -0.39511  -0.39396  -0.39229
 Alpha  occ. eigenvalues --   -0.39102  -0.38908  -0.38795  -0.38446  -0.38283
 Alpha  occ. eigenvalues --   -0.38165  -0.38139  -0.37807  -0.37465  -0.37308
 Alpha  occ. eigenvalues --   -0.36986  -0.36527  -0.36201  -0.35838  -0.35759
 Alpha  occ. eigenvalues --   -0.35498  -0.35305  -0.35123  -0.34871  -0.34679
 Alpha  occ. eigenvalues --   -0.34475  -0.34382  -0.34225  -0.33205  -0.33120
 Alpha  occ. eigenvalues --   -0.32903  -0.32668  -0.32517  -0.32257  -0.31922
 Alpha  occ. eigenvalues --   -0.31666  -0.31393  -0.31329  -0.29671  -0.29496
 Alpha  occ. eigenvalues --   -0.28614  -0.27782  -0.27760  -0.27719  -0.27588
 Alpha  occ. eigenvalues --   -0.27499  -0.26573  -0.23223  -0.21608
 Alpha virt. eigenvalues --   -0.08563  -0.07062  -0.02058  -0.01345   0.00250
 Alpha virt. eigenvalues --    0.01574   0.02642   0.03313   0.03834   0.04589
 Alpha virt. eigenvalues --    0.04799   0.05470   0.07199   0.08007   0.09294

 Mulliken charges:
               1
     1  Mg   0.815033
     2  C    0.084397
     3  C   -0.231697
     4  C   -0.195731
     5  C   -0.143414
     6  N   -0.612551
     7  C    0.231404
     8  C   -0.158585
     9  C   -0.127488
    10  C    0.363343
    11  C   -0.302495
    12  C   -0.162694
    13  C   -0.265055
    14  C    0.602040
    15  O   -0.416917
    16  O   -0.506598
    17  N   -0.704230
    18  C    0.382458
    19  C    0.117969
    20  C   -0.058950
    21  C    0.325062
    22  C   -0.431756
    23  C    0.234324
    24  O   -0.438303
    25  N   -0.676089
    26  C    0.300118
    27  C    0.020257
    28  C    0.085617
    29  C    0.219523
    30  C    0.236953
    31  C   -0.294782
    32  C   -0.303298
    33  N   -0.726601
    34  C    0.271481
    35  C    0.012356
    36  C    0.066282
    37  C    0.290716
    38  C   -0.384072
    39  C    0.342821
    40  O   -0.474118
    41  C   -0.312948
    42  C    0.635663
    43  O   -0.454035
    44  O   -0.438234
    45  C   -0.101537
    46  C    0.006528
    47  C   -0.128625
    48  C    0.104453
    49  C   -0.361406
    50  C   -0.196442
    51  C   -0.186098
    52  C   -0.135889
    53  C   -0.052023
    54  C   -0.305726
    55  C   -0.190799
    56  C   -0.200935
    57  C   -0.191026
    58  C   -0.054023
    59  C   -0.311454
    60  C   -0.162640
    61  C   -0.178902
    62  C   -0.153840
    63  C   -0.060027
    64  C   -0.320954
    65  C   -0.299745
    66  H    0.068566
    67  H    0.117939
    68  H    0.076313
    69  H    0.141162
    70  H    0.107316
    71  H    0.085355
    72  H    0.116563
    73  H    0.133850
    74  H    0.107363
    75  H    0.132592
    76  H    0.126103
    77  H    0.135548
    78  H    0.129106
    79  H    0.156608
    80  H    0.124826
    81  H    0.109474
    82  H    0.117278
    83  H    0.109276
    84  H    0.117161
    85  H    0.115113
    86  H    0.111422
    87  H    0.138611
    88  H    0.152944
    89  H    0.117879
    90  H    0.154571
    91  H    0.122440
    92  H    0.119001
    93  H    0.056328
    94  H    0.098902
    95  H    0.120864
    96  H    0.109480
    97  H    0.117271
    98  H    0.088723
    99  H    0.097774
   100  H    0.102117
   101  H    0.087171
   102  H    0.065496
   103  H    0.091258
   104  H    0.109776
   105  H    0.101322
   106  H    0.071751
   107  H    0.077389
   108  H    0.083416
   109  H    0.107328
   110  H    0.088123
   111  H    0.077159
   112  H    0.093510
   113  H    0.086295
   114  H    0.109876
   115  H    0.092785
   116  H    0.110672
   117  H    0.098870
   118  H    0.062634
   119  H    0.086846
   120  H    0.095818
   121  H    0.102714
   122  H    0.058161
   123  H    0.075383
   124  H    0.107378
   125  H    0.094951
   126  H    0.120383
   127  H    0.124040
   128  H    0.099596
   129  H    0.057037
   130  H    0.124871
   131  H    0.127120
   132  H    0.137204
   133  O   -0.451733
   134  H    0.053499
 Sum of Mulliken charges =   0.00000

 Dipole moment (field-independent basis, Debye):
    X=              2.0443    Y=             -5.3189    Z=             -2.1488  Tot=              6.0899
 Quadrupole moment (field-independent basis, Debye-Ang):
   XX=           -377.7548   YY=           -446.2310   ZZ=           -392.1918
   XY=             10.2279   XZ=             15.7265   YZ=            -36.9223

 Normal termination of Gaussian 09 at Sat Oct  5 10:23:02 2019.
