 Gaussian 09, Revision D.01,
 Gaussian 09:  ES64L-G09RevD.01 24-Apr-2013

 ----------------------------------------------------------------------
 # td=(NStates=1) iop(3/107=0140000000,3/108=0140000000) iop(3/107=0140
 000000,3/108=0140000000) CAM-B3LYP/6-31G(d,p)
 ----------------------------------------------------------------------

 --
 TD
 --
 Symbolic Z-matrix:
 Charge =  0 Multiplicity = 1

                         Standard orientation:
 ---------------------------------------------------------------------
 Center     Atomic      Atomic             Coordinates (Angstroms)
 Number     Number       Type             X           Y           Z
 ---------------------------------------------------------------------
      1         12           0       -5.564231    1.232431    0.218154
      2          6           0       -5.032837   -2.118169   -0.312173
      3          6           0       -3.420136    1.200216    2.788779
      4          6           0       -6.218829    4.487986    0.727665
      5          6           0       -7.999553    1.174186   -2.387199
      6          7           0       -4.371447   -0.308361    1.064517
      7          6           0       -4.286274   -1.615333    0.665112
      8          6           0       -3.120790   -2.350762    1.444101
      9          6           0       -2.921092   -1.274062    2.609970
     10          6           0       -3.586879   -0.062675    2.257583
     11          6           0       -3.447283   -1.937807    3.895385
     12          6           0       -1.821767   -2.697525    0.599235
     13          6           0       -0.957811   -3.507141    1.466017
     14          6           0        0.230991   -3.947731    0.765071
     15          8           0        0.494953   -3.454642   -0.351313
     16          8           0        1.075165   -4.814221    1.280277
     17          7           0       -4.908743    2.625323    1.411547
     18          6           0       -3.920368    2.410132    2.438896
     19          6           0       -3.679871    3.653141    3.157500
     20          6           0       -4.553043    4.590204    2.561871
     21          6           0       -5.299529    3.917343    1.523274
     22          6           0       -2.615294    3.819255    4.330456
     23          6           0       -4.660968    6.045084    2.830651
     24          8           0       -4.140895    6.559417    3.819834
     25          7           0       -6.826588    2.617054   -0.729469
     26          6           0       -6.902594    3.907352   -0.364962
     27          6           0       -7.852440    4.636133   -1.192863
     28          6           0       -8.357754    3.717849   -2.074415
     29          6           0       -7.745240    2.465320   -1.753195
     30          6           0       -8.286609    5.996451   -1.183048
     31          6           0       -9.515966    3.804718   -3.111693
     32          6           0       -8.906196    3.799189   -4.539461
     33          7           0       -6.313465   -0.050492   -1.127220
     34          6           0       -7.379352   -0.042211   -2.079995
     35          6           0       -7.522769   -1.347642   -2.699082
     36          6           0       -6.543085   -2.203918   -2.132236
     37          6           0       -5.956623   -1.351851   -1.070941
     38          6           0       -8.457958   -1.718038   -3.789106
     39          6           0       -6.131005   -3.489790   -1.959375
     40          8           0       -6.475154   -4.497180   -2.691758
     41          6           0       -5.009484   -3.561249   -0.883254
     42          6           0       -5.247952   -4.547503    0.125530
     43          8           0       -5.781927   -4.405434    1.272458
     44          8           0       -4.947129   -5.774859   -0.309862
     45          6           0       -5.343042   -6.892766    0.529533
     46          6           0        2.285489   -5.121876    0.524595
     47          6           0        3.302906   -4.217584    1.038420
     48          6           0        3.935646   -3.315971    0.176101
     49          6           0        3.805418   -3.251161   -1.338693
     50          6           0        5.058798   -2.404809    0.647403
     51          6           0        6.399963   -2.626323    0.037860
     52          6           0        7.507591   -1.708674    0.461177
     53          6           0        8.902360   -1.988055   -0.125468
     54          6           0        9.449783   -3.336640    0.154173
     55          6           0        9.945841   -0.873140    0.492075
     56          6           0       11.294119   -0.810638   -0.303138
     57          6           0       12.240043    0.242667    0.184925
     58          6           0       13.486460    0.450969   -0.671028
     59          6           0       14.492547   -0.633520   -0.397256
     60          6           0       14.112248    1.817317   -0.254312
     61          6           0       15.373227    2.182022   -1.091122
     62          6           0       15.948097    3.497179   -0.642278
     63          6           0       17.371209    3.846683   -1.256433
     64          6           0       17.232129    4.020434   -2.786847
     65          6           0       17.899946    5.135471   -0.631384
     66          1           0       -2.830450    1.181109    3.756088
     67          1           0       -6.459146    5.539179    0.901143
     68          1           0       -9.063258    1.205443   -2.950888
     69          1           0       -3.660957   -3.330579    1.815613
     70          1           0       -1.839154   -1.107632    2.541611
     71          1           0       -3.143035   -2.904616    4.233080
     72          1           0       -3.442190   -1.098228    4.947559
     73          1           0       -4.574352   -2.069123    3.626649
     74          1           0       -2.123613   -3.091306   -0.288339
     75          1           0       -1.230194   -1.822939    0.402726
     76          1           0       -0.546000   -3.070474    2.495704
     77          1           0       -1.366111   -4.474712    1.720447
     78          1           0       -1.481076    3.754600    3.808838
     79          1           0       -2.887181    4.912218    4.653364
     80          1           0       -2.901417    3.440921    5.335674
     81          1           0       -5.336387    6.646864    2.032685
     82          1           0      -10.291423    2.902189   -3.119429
     83          1           0      -10.158680    4.683434   -3.061111
     84          1           0       -9.386048    3.851709   -5.586448
     85          1           0       -8.138233    4.544907   -4.591093
     86          1           0       -8.285019    2.929003   -4.758949
     87          1           0       -8.370705   -1.175499   -4.662262
     88          1           0       -8.504225   -2.742762   -3.865146
     89          1           0       -9.568038   -1.365441   -3.467166
     90          1           0       -3.974187   -3.853739   -1.431066
     91          1           0        2.442072   -6.140351    0.781126
     92          1           0        1.987966   -4.986026   -0.385509
     93          1           0        3.502332   -4.298679    2.271504
     94          1           0        2.792025   -3.510328   -1.764235
     95          1           0        3.848718   -2.291821   -1.819880
     96          1           0        4.322542   -4.010295   -1.658847
     97          1           0        4.894046   -1.225963    0.451041
     98          1           0        5.131145   -2.311523    1.812162
     99          1           0        6.773136   -3.505008    0.194606
    100          1           0        6.223796   -2.507820   -1.000822
    101          1           0        7.308082   -0.610560    0.357803
    102          1           0        7.734965   -1.867746    1.676100
    103          1           0        8.906897   -1.782882   -1.194059
    104          1           0        8.904283   -4.177078   -0.378130
    105          1           0       10.486885   -3.386490   -0.266470
    106          1           0        9.496739   -3.535162    1.331855
    107          1           0        9.419169    0.027411    0.654038
    108          1           0       10.159337   -1.113951    1.489589
    109          1           0       11.904632   -1.799926   -0.435467
    110          1           0       11.022062   -0.515963   -1.288867
    111          1           0       11.706700    1.267780    0.083855
    112          1           0       12.463470    0.238984    1.391293
    113          1           0       13.482374    0.297837   -1.857011
    114          1           0       14.670451   -0.872552    0.632440
    115          1           0       13.911352   -1.666120   -0.582793
    116          1           0       15.258798   -0.901084   -1.070127
    117          1           0       13.420632    2.634929   -0.561119
    118          1           0       14.301658    1.853128    0.860306
    119          1           0       16.201743    1.370136   -0.761352
    120          1           0       15.254422    2.037715   -2.144192
    121          1           0       15.327377    4.408202   -0.822631
    122          1           0       15.914404    3.542330    0.571024
    123          1           0       18.031363    2.902794   -1.151355
    124          1           0       16.652313    4.868440   -3.112537
    125          1           0       18.281108    4.287517   -3.472053
    126          1           0       16.796200    3.073199   -3.281947
    127          1           0       18.146228    5.162310    0.462414
    128          1           0       18.883272    5.670092   -1.203303
    129          1           0       17.088652    6.019270   -0.786499
    130          1           0       -5.313323   -7.662593   -0.073282
    131          1           0       -6.394536   -6.726396    0.901117
    132          1           0       -4.576393   -7.008950    1.502175
    133          8           0       -7.711623    6.982836   -0.557298
    134          1           0       -9.049158    6.351084   -1.907824
 ---------------------------------------------------------------------

 SCF Done:  E(RCAM-B3LYP) =  -3043.44099816     A.U. after   16 cycles

 Excitation energies and oscillator strengths:

 Excited State   1:      Singlet-A      2.0219 eV  613.19 nm  f=0.1473  <S**2>=0.000
     243 -> 246        0.28933
     244 -> 245        0.63541
 This state for optimization and/or second-order correction.
 Total Energy, E(TD-HF/TD-KS) =  -3043.36669319
 Copying the excited state density for this state as the 1-particle RhoCI density.

 The electronic state is 1-A.
 Alpha  occ. eigenvalues --  -46.80908 -19.23083 -19.21713 -19.17893 -19.16675
 Alpha  occ. eigenvalues --  -19.16469 -19.16176 -19.14924 -14.38823 -14.37643
 Alpha  occ. eigenvalues --  -14.37480 -14.36993 -10.35231 -10.33866 -10.31604
 Alpha  occ. eigenvalues --  -10.31134 -10.30403 -10.28162 -10.27942 -10.27456
 Alpha  occ. eigenvalues --  -10.27266 -10.27125 -10.26997 -10.26816 -10.26781
 Alpha  occ. eigenvalues --  -10.26674 -10.26673 -10.26533 -10.25970 -10.25882
 Alpha  occ. eigenvalues --  -10.25845 -10.25743 -10.25302 -10.25265 -10.24955
 Alpha  occ. eigenvalues --  -10.24725 -10.24630 -10.24629 -10.24464 -10.23955
 Alpha  occ. eigenvalues --  -10.23620 -10.23564 -10.23439 -10.23434 -10.23248
 Alpha  occ. eigenvalues --  -10.23247 -10.22875 -10.22858 -10.22832 -10.22826
 Alpha  occ. eigenvalues --  -10.22802 -10.22602 -10.22438 -10.22191 -10.22110
 Alpha  occ. eigenvalues --  -10.22076 -10.21858 -10.21841 -10.21497 -10.21424
 Alpha  occ. eigenvalues --  -10.21364 -10.21285 -10.20433 -10.20363 -10.19907
 Alpha  occ. eigenvalues --  -10.19284  -3.09685  -1.84607  -1.84163  -1.84113
 Alpha  occ. eigenvalues --   -1.13771  -1.13419  -1.06563  -1.02927  -1.02268
 Alpha  occ. eigenvalues --   -1.02100  -1.02089  -1.00672  -0.99548  -0.99054
 Alpha  occ. eigenvalues --   -0.97936  -0.89305  -0.86730  -0.86127  -0.86070
 Alpha  occ. eigenvalues --   -0.85338  -0.85044  -0.84422  -0.84112  -0.83694
 Alpha  occ. eigenvalues --   -0.82912  -0.82472  -0.82289  -0.81238  -0.80484
 Alpha  occ. eigenvalues --   -0.79575  -0.78834  -0.78212  -0.78040  -0.77348
 Alpha  occ. eigenvalues --   -0.75728  -0.75237  -0.74033  -0.73499  -0.72509
 Alpha  occ. eigenvalues --   -0.71528  -0.70540  -0.70307  -0.70196  -0.69448
 Alpha  occ. eigenvalues --   -0.69201  -0.68750  -0.68060  -0.67147  -0.66894
 Alpha  occ. eigenvalues --   -0.66234  -0.64841  -0.64438  -0.62828  -0.62565
 Alpha  occ. eigenvalues --   -0.61962  -0.60644  -0.59988  -0.59135  -0.58934
 Alpha  occ. eigenvalues --   -0.58733  -0.58191  -0.58095  -0.57525  -0.57198
 Alpha  occ. eigenvalues --   -0.56619  -0.56397  -0.56051  -0.55247  -0.54574
 Alpha  occ. eigenvalues --   -0.54159  -0.53538  -0.53024  -0.52721  -0.52704
 Alpha  occ. eigenvalues --   -0.52087  -0.51623  -0.51354  -0.51095  -0.50518
 Alpha  occ. eigenvalues --   -0.50449  -0.49603  -0.49441  -0.49347  -0.48871
 Alpha  occ. eigenvalues --   -0.48633  -0.48531  -0.48365  -0.48181  -0.47721
 Alpha  occ. eigenvalues --   -0.47664  -0.47466  -0.47361  -0.46849  -0.46743
 Alpha  occ. eigenvalues --   -0.46507  -0.46498  -0.46388  -0.46056  -0.45959
 Alpha  occ. eigenvalues --   -0.45730  -0.45603  -0.45269  -0.44884  -0.44747
 Alpha  occ. eigenvalues --   -0.44503  -0.44358  -0.43749  -0.43631  -0.43576
 Alpha  occ. eigenvalues --   -0.43499  -0.43181  -0.42982  -0.42818  -0.42679
 Alpha  occ. eigenvalues --   -0.42498  -0.42278  -0.42015  -0.41632  -0.41533
 Alpha  occ. eigenvalues --   -0.41230  -0.41129  -0.40722  -0.40638  -0.40561
 Alpha  occ. eigenvalues --   -0.40549  -0.40168  -0.39996  -0.39723  -0.39565
 Alpha  occ. eigenvalues --   -0.39256  -0.39008  -0.38911  -0.38771  -0.38687
 Alpha  occ. eigenvalues --   -0.38570  -0.38331  -0.38129  -0.38102  -0.37885
 Alpha  occ. eigenvalues --   -0.37839  -0.37754  -0.37442  -0.37239  -0.36808
 Alpha  occ. eigenvalues --   -0.36500  -0.36357  -0.36063  -0.35847  -0.35800
 Alpha  occ. eigenvalues --   -0.35759  -0.35316  -0.35065  -0.34629  -0.34563
 Alpha  occ. eigenvalues --   -0.34114  -0.34071  -0.33649  -0.33587  -0.33181
 Alpha  occ. eigenvalues --   -0.32958  -0.32643  -0.32481  -0.32464  -0.31926
 Alpha  occ. eigenvalues --   -0.31634  -0.30480  -0.30238  -0.30205  -0.29176
 Alpha  occ. eigenvalues --   -0.29009  -0.28537  -0.28404  -0.27994  -0.27636
 Alpha  occ. eigenvalues --   -0.27457  -0.26996  -0.23474  -0.22332
 Alpha virt. eigenvalues --   -0.09148  -0.07603  -0.02573  -0.01475  -0.00736
 Alpha virt. eigenvalues --    0.01524   0.02476   0.03805   0.04024   0.04116
 Alpha virt. eigenvalues --    0.04509   0.05225   0.07438   0.08065   0.08888

 Mulliken charges:
               1
     1  Mg   0.817840
     2  C    0.069160
     3  C   -0.207446
     4  C   -0.177515
     5  C   -0.175991
     6  N   -0.653974
     7  C    0.310439
     8  C   -0.172674
     9  C   -0.164983
    10  C    0.368070
    11  C   -0.288697
    12  C   -0.148447
    13  C   -0.257320
    14  C    0.592713
    15  O   -0.515350
    16  O   -0.473268
    17  N   -0.752649
    18  C    0.308151
    19  C    0.039611
    20  C   -0.028577
    21  C    0.381120
    22  C   -0.394096
    23  C    0.240195
    24  O   -0.412315
    25  N   -0.673034
    26  C    0.315948
    27  C    0.016295
    28  C    0.041589
    29  C    0.251632
    30  C    0.190582
    31  C   -0.241583
    32  C   -0.337274
    33  N   -0.713523
    34  C    0.284968
    35  C    0.023553
    36  C    0.083242
    37  C    0.305613
    38  C   -0.372517
    39  C    0.330060
    40  O   -0.507218
    41  C   -0.301835
    42  C    0.635216
    43  O   -0.516957
    44  O   -0.438954
    45  C   -0.066809
    46  C    0.038579
    47  C   -0.138818
    48  C    0.130232
    49  C   -0.390084
    50  C   -0.225801
    51  C   -0.145558
    52  C   -0.169475
    53  C   -0.055002
    54  C   -0.294993
    55  C   -0.188637
    56  C   -0.174198
    57  C   -0.167103
    58  C   -0.047144
    59  C   -0.310566
    60  C   -0.163064
    61  C   -0.176733
    62  C   -0.153589
    63  C   -0.038156
    64  C   -0.294475
    65  C   -0.292162
    66  H    0.098491
    67  H    0.125519
    68  H    0.097980
    69  H    0.122423
    70  H    0.111669
    71  H    0.131657
    72  H    0.053653
    73  H    0.124455
    74  H    0.124402
    75  H    0.133749
    76  H    0.135207
    77  H    0.135067
    78  H    0.121509
    79  H    0.156130
    80  H    0.140384
    81  H    0.090370
    82  H    0.104550
    83  H    0.122965
    84  H    0.104007
    85  H    0.120944
    86  H    0.112810
    87  H    0.148018
    88  H    0.158487
    89  H    0.098492
    90  H    0.162650
    91  H    0.116733
    92  H    0.129189
    93  H    0.085529
    94  H    0.131966
    95  H    0.125791
    96  H    0.144391
    97  H    0.075458
    98  H    0.078366
    99  H    0.107973
   100  H    0.103574
   101  H    0.082474
   102  H    0.048048
   103  H    0.084375
   104  H    0.093412
   105  H    0.101944
   106  H    0.085103
   107  H    0.091978
   108  H    0.095986
   109  H    0.088031
   110  H    0.105042
   111  H    0.080205
   112  H    0.071321
   113  H    0.074207
   114  H    0.106968
   115  H    0.056090
   116  H    0.115274
   117  H    0.089074
   118  H    0.091401
   119  H    0.075310
   120  H    0.100823
   121  H    0.086957
   122  H    0.066842
   123  H    0.086081
   124  H    0.110984
   125  H    0.060850
   126  H    0.093111
   127  H    0.107129
   128  H    0.071271
   129  H    0.081061
   130  H    0.138889
   131  H    0.142190
   132  H    0.097886
   133  O   -0.458574
   134  H    0.087457
 Sum of Mulliken charges =   0.00000

 Dipole moment (field-independent basis, Debye):
    X=              1.9265    Y=             -5.3548    Z=             -1.0201  Tot=              5.7816
 Quadrupole moment (field-independent basis, Debye-Ang):
   XX=           -395.9562   YY=           -443.5037   ZZ=           -393.9194
   XY=              4.5769   XZ=             17.5982   YZ=            -28.2768

 Normal termination of Gaussian 09 at Mon Oct  7 11:00:56 2019.
