 Gaussian 09, Revision D.01,
 Gaussian 09:  ES64L-G09RevD.01 24-Apr-2013

 ----------------------------------------------------------------------
 # td=(NStates=1) iop(3/107=0140000000,3/108=0140000000) iop(3/107=0140
 000000,3/108=0140000000) CAM-B3LYP/6-31G(d,p)
 ----------------------------------------------------------------------

 --
 TD
 --
 Symbolic Z-matrix:
 Charge =  0 Multiplicity = 1

                         Standard orientation:
 ---------------------------------------------------------------------
 Center     Atomic      Atomic             Coordinates (Angstroms)
 Number     Number       Type             X           Y           Z
 ---------------------------------------------------------------------
      1         12           0       -5.722272    1.284008    0.140895
      2          6           0       -5.039340   -2.073701   -0.357509
      3          6           0       -3.447729    1.093754    2.860798
      4          6           0       -6.167337    4.478390    0.639615
      5          6           0       -8.143812    1.160671   -2.379670
      6          7           0       -4.377041   -0.228006    1.032097
      7          6           0       -4.262580   -1.603172    0.663598
      8          6           0       -3.246605   -2.363621    1.499755
      9          6           0       -2.826663   -1.355862    2.489913
     10          6           0       -3.517242   -0.085656    2.148368
     11          6           0       -3.422687   -1.872540    3.859732
     12          6           0       -1.956292   -2.776809    0.623711
     13          6           0       -1.029865   -3.666442    1.456989
     14          6           0        0.170421   -4.049356    0.578781
     15          8           0        0.413141   -3.484088   -0.524029
     16          8           0        1.157692   -4.782970    1.211325
     17          7           0       -4.975831    2.511308    1.527485
     18          6           0       -4.071129    2.384879    2.493623
     19          6           0       -3.704396    3.581793    3.151894
     20          6           0       -4.464879    4.601837    2.542566
     21          6           0       -5.250305    3.916571    1.474750
     22          6           0       -2.692541    3.737374    4.214234
     23          6           0       -4.584332    6.021282    2.931713
     24          8           0       -3.947319    6.550045    3.914517
     25          7           0       -6.970201    2.629105   -0.842161
     26          6           0       -7.055690    3.855187   -0.352031
     27          6           0       -7.980993    4.599352   -1.187876
     28          6           0       -8.607121    3.731432   -2.048957
     29          6           0       -7.878340    2.442913   -1.805179
     30          6           0       -8.353465    6.106553   -1.039477
     31          6           0       -9.607483    3.821145   -3.149439
     32          6           0       -8.795331    4.116291   -4.454173
     33          7           0       -6.421919   -0.077668   -1.153841
     34          6           0       -7.342486    0.037438   -2.117046
     35          6           0       -7.630937   -1.261021   -2.688860
     36          6           0       -6.662178   -2.133547   -2.073393
     37          6           0       -5.955245   -1.336291   -1.114540
     38          6           0       -8.598748   -1.662721   -3.711868
     39          6           0       -6.173311   -3.500201   -2.032732
     40          8           0       -6.558402   -4.586450   -2.532188
     41          6           0       -5.027949   -3.487636   -0.905140
     42          6           0       -5.367552   -4.606780    0.124861
     43          8           0       -5.896005   -4.486577    1.265277
     44          8           0       -4.995482   -5.778054   -0.308334
     45          6           0       -5.316746   -6.924478    0.374364
     46          6           0        2.447278   -4.957958    0.631665
     47          6           0        3.366391   -3.956680    1.065580
     48          6           0        4.031258   -3.192507    0.188180
     49          6           0        3.810336   -3.123062   -1.204609
     50          6           0        5.196040   -2.267181    0.740598
     51          6           0        6.514371   -2.653032    0.080874
     52          6           0        7.720258   -1.811198    0.530657
     53          6           0        9.138501   -2.122225   -0.152340
     54          6           0        9.629397   -3.436961    0.050077
     55          6           0       10.098387   -1.015244    0.415799
     56          6           0       11.460038   -0.952158   -0.290727
     57          6           0       12.268708    0.161130    0.200789
     58          6           0       13.666042    0.272095   -0.551084
     59          6           0       14.754228   -0.809763   -0.387746
     60          6           0       14.347688    1.658486   -0.209297
     61          6           0       15.538114    2.211426   -0.996098
     62          6           0       16.008894    3.638193   -0.648271
     63          6           0       17.201073    4.112337   -1.305743
     64          6           0       16.924603    4.163966   -2.810956
     65          6           0       17.886424    5.495982   -0.847030
     66          1           0       -2.722029    1.084199    3.743797
     67          1           0       -6.580347    5.487235    0.839193
     68          1           0       -8.859505    1.112915   -3.199685
     69          1           0       -3.542107   -3.238969    2.017289
     70          1           0       -1.832500   -1.095401    2.403845
     71          1           0       -2.860280   -2.650343    4.212227
     72          1           0       -3.012049   -1.069824    4.417196
     73          1           0       -4.573376   -2.048076    3.919665
     74          1           0       -2.188537   -3.331277   -0.118214
     75          1           0       -1.313088   -1.820026    0.334853
     76          1           0       -0.611104   -2.995158    2.290315
     77          1           0       -1.356025   -4.619611    2.018084
     78          1           0       -1.657108    2.998107    4.023394
     79          1           0       -2.558924    4.829625    4.469466
     80          1           0       -3.206284    3.497240    5.150710
     81          1           0       -5.181512    6.758563    2.601598
     82          1           0      -10.111459    2.915593   -3.286280
     83          1           0      -10.419354    4.703661   -2.803969
     84          1           0       -9.682861    4.070492   -5.245292
     85          1           0       -8.126612    4.923364   -4.408403
     86          1           0       -8.211021    3.239523   -4.894636
     87          1           0       -8.529334   -1.076775   -4.648468
     88          1           0       -8.668060   -2.866793   -3.971463
     89          1           0       -9.538744   -1.355124   -3.212645
     90          1           0       -4.161239   -3.787026   -1.453663
     91          1           0        2.733394   -6.020083    0.913924
     92          1           0        2.229629   -4.967810   -0.506869
     93          1           0        3.609028   -4.063622    2.140778
     94          1           0        2.640331   -3.471536   -1.475106
     95          1           0        3.648582   -2.015336   -1.540315
     96          1           0        4.374898   -3.781497   -1.916648
     97          1           0        4.828205   -1.196501    0.721045
     98          1           0        5.358714   -2.354968    1.741841
     99          1           0        6.741923   -3.824681    0.044955
    100          1           0        6.489847   -2.470313   -0.932788
    101          1           0        7.343316   -0.725874    0.582774
    102          1           0        7.834085   -2.100902    1.703804
    103          1           0        9.088130   -1.887745   -1.236611
    104          1           0        8.848306   -4.257248   -0.526538
    105          1           0       10.560221   -3.508799   -0.291872
    106          1           0        9.666861   -3.538674    1.091332
    107          1           0        9.509333    0.005889    0.313961
    108          1           0       10.165854   -1.268439    1.511314
    109          1           0       11.966794   -1.998226   -0.206423
    110          1           0       11.493582   -0.940334   -1.518975
    111          1           0       11.809663    1.163844    0.140404
    112          1           0       12.529476    0.173427    1.344860
    113          1           0       13.307655    0.264791   -1.679899
    114          1           0       15.159170   -0.887025    0.635139
    115          1           0       14.235504   -1.786193   -0.755990
    116          1           0       15.617915   -0.495748   -0.743040
    117          1           0       13.686050    2.360109   -0.244062
    118          1           0       14.718872    1.676550    0.818296
    119          1           0       16.303610    1.567045   -0.804116
    120          1           0       15.326433    1.997853   -2.053844
    121          1           0       15.411910    4.553358   -0.869694
    122          1           0       16.241195    3.572912    0.473560
    123          1           0       17.996299    3.347379   -1.068497
    124          1           0       16.054237    4.765201   -3.211028
    125          1           0       17.907361    4.524874   -3.365397
    126          1           0       16.781572    3.133517   -3.320625
    127          1           0       17.900604    5.441965    0.320951
    128          1           0       18.754509    5.719145   -1.360104
    129          1           0       17.174234    6.248495   -1.086492
    130          1           0       -5.129934   -7.735367   -0.166131
    131          1           0       -6.606048   -7.117480    0.534192
    132          1           0       -4.891480   -7.066895    1.324359
    133          8           0       -7.797981    6.766268   -0.233660
    134          1           0       -9.022154    6.406127   -1.924575
 ---------------------------------------------------------------------

 SCF Done:  E(RCAM-B3LYP) =  -3043.43291083     A.U. after   16 cycles

 Excitation energies and oscillator strengths:

 Excited State   1:      Singlet-A      2.0207 eV  613.57 nm  f=0.1899  <S**2>=0.000
     243 -> 245        0.13605
     243 -> 246        0.25779
     244 -> 245        0.63194
 This state for optimization and/or second-order correction.
 Total Energy, E(TD-HF/TD-KS) =  -3043.35865185
 Copying the excited state density for this state as the 1-particle RhoCI density.

 The electronic state is 1-A.
 Alpha  occ. eigenvalues --  -46.81745 -19.23442 -19.21350 -19.19121 -19.16992
 Alpha  occ. eigenvalues --  -19.16462 -19.16427 -19.15915 -14.38325 -14.37579
 Alpha  occ. eigenvalues --  -14.36923 -14.36414 -10.35567 -10.35129 -10.32209
 Alpha  occ. eigenvalues --  -10.31229 -10.29769 -10.27162 -10.27127 -10.27103
 Alpha  occ. eigenvalues --  -10.26978 -10.26967 -10.26783 -10.26452 -10.26158
 Alpha  occ. eigenvalues --  -10.26045 -10.25754 -10.25487 -10.25417 -10.25333
 Alpha  occ. eigenvalues --  -10.25050 -10.24770 -10.24604 -10.24513 -10.24363
 Alpha  occ. eigenvalues --  -10.23988 -10.23890 -10.23727 -10.23358 -10.23246
 Alpha  occ. eigenvalues --  -10.23115 -10.23099 -10.23013 -10.22936 -10.22923
 Alpha  occ. eigenvalues --  -10.22878 -10.22841 -10.22738 -10.22601 -10.22243
 Alpha  occ. eigenvalues --  -10.22169 -10.22150 -10.21828 -10.21644 -10.21598
 Alpha  occ. eigenvalues --  -10.21590 -10.21376 -10.21345 -10.21132 -10.20977
 Alpha  occ. eigenvalues --  -10.20899 -10.20457 -10.20020 -10.19974 -10.19931
 Alpha  occ. eigenvalues --  -10.18748  -3.10302  -1.85239  -1.84833  -1.84658
 Alpha  occ. eigenvalues --   -1.15569  -1.11367  -1.10576  -1.04204  -1.03181
 Alpha  occ. eigenvalues --   -1.02603  -1.02124  -1.01474  -1.00509  -0.99733
 Alpha  occ. eigenvalues --   -0.97436  -0.88405  -0.86425  -0.86087  -0.85618
 Alpha  occ. eigenvalues --   -0.85285  -0.85183  -0.84098  -0.83653  -0.83244
 Alpha  occ. eigenvalues --   -0.83156  -0.83109  -0.81780  -0.80597  -0.80021
 Alpha  occ. eigenvalues --   -0.79212  -0.78808  -0.78010  -0.76887  -0.76440
 Alpha  occ. eigenvalues --   -0.75914  -0.74576  -0.73794  -0.73201  -0.71963
 Alpha  occ. eigenvalues --   -0.71478  -0.71205  -0.70546  -0.69722  -0.69439
 Alpha  occ. eigenvalues --   -0.69285  -0.68915  -0.67578  -0.67148  -0.66166
 Alpha  occ. eigenvalues --   -0.66008  -0.65165  -0.64284  -0.62912  -0.62581
 Alpha  occ. eigenvalues --   -0.62171  -0.61150  -0.59994  -0.59858  -0.58871
 Alpha  occ. eigenvalues --   -0.58449  -0.58079  -0.57865  -0.57707  -0.57271
 Alpha  occ. eigenvalues --   -0.56371  -0.55932  -0.55345  -0.55232  -0.54664
 Alpha  occ. eigenvalues --   -0.53909  -0.53606  -0.53067  -0.52413  -0.52051
 Alpha  occ. eigenvalues --   -0.51666  -0.51412  -0.51001  -0.50901  -0.50752
 Alpha  occ. eigenvalues --   -0.50530  -0.49640  -0.49459  -0.49131  -0.48972
 Alpha  occ. eigenvalues --   -0.48912  -0.48721  -0.48542  -0.48410  -0.47912
 Alpha  occ. eigenvalues --   -0.47564  -0.47375  -0.47075  -0.46801  -0.46706
 Alpha  occ. eigenvalues --   -0.46503  -0.46200  -0.46052  -0.45959  -0.45911
 Alpha  occ. eigenvalues --   -0.45818  -0.45288  -0.45092  -0.44876  -0.44855
 Alpha  occ. eigenvalues --   -0.44505  -0.44349  -0.43988  -0.43841  -0.43565
 Alpha  occ. eigenvalues --   -0.43514  -0.43369  -0.43139  -0.42914  -0.42803
 Alpha  occ. eigenvalues --   -0.42759  -0.42622  -0.42361  -0.42109  -0.41898
 Alpha  occ. eigenvalues --   -0.41735  -0.41617  -0.41577  -0.41231  -0.41105
 Alpha  occ. eigenvalues --   -0.40730  -0.40685  -0.40470  -0.40243  -0.40138
 Alpha  occ. eigenvalues --   -0.39902  -0.39848  -0.39546  -0.39479  -0.39429
 Alpha  occ. eigenvalues --   -0.39100  -0.38583  -0.38275  -0.38037  -0.37933
 Alpha  occ. eigenvalues --   -0.37710  -0.37144  -0.36943  -0.36785  -0.36663
 Alpha  occ. eigenvalues --   -0.36630  -0.36476  -0.35811  -0.35370  -0.35317
 Alpha  occ. eigenvalues --   -0.35094  -0.34675  -0.34275  -0.34233  -0.34182
 Alpha  occ. eigenvalues --   -0.34059  -0.33910  -0.33660  -0.33098  -0.32939
 Alpha  occ. eigenvalues --   -0.32398  -0.32135  -0.31772  -0.31657  -0.31570
 Alpha  occ. eigenvalues --   -0.31164  -0.30368  -0.29886  -0.29727  -0.29303
 Alpha  occ. eigenvalues --   -0.28757  -0.28677  -0.28004  -0.27628  -0.27566
 Alpha  occ. eigenvalues --   -0.27174  -0.27098  -0.22755  -0.21588
 Alpha virt. eigenvalues --   -0.08591  -0.06398  -0.01558  -0.01323   0.00601
 Alpha virt. eigenvalues --    0.01432   0.03063   0.03811   0.03842   0.04110
 Alpha virt. eigenvalues --    0.04788   0.05432   0.07895   0.08703   0.09246

 Mulliken charges:
               1
     1  Mg   0.832654
     2  C    0.076547
     3  C   -0.214847
     4  C   -0.183916
     5  C   -0.152425
     6  N   -0.621885
     7  C    0.317993
     8  C   -0.134922
     9  C   -0.162290
    10  C    0.345997
    11  C   -0.312378
    12  C   -0.158434
    13  C   -0.274390
    14  C    0.588036
    15  O   -0.478175
    16  O   -0.470395
    17  N   -0.698588
    18  C    0.326263
    19  C    0.078693
    20  C   -0.016909
    21  C    0.287017
    22  C   -0.395183
    23  C    0.230267
    24  O   -0.447459
    25  N   -0.661850
    26  C    0.280502
    27  C   -0.084024
    28  C    0.030853
    29  C    0.267358
    30  C    0.270948
    31  C   -0.236470
    32  C   -0.309048
    33  N   -0.749992
    34  C    0.293654
    35  C    0.029024
    36  C    0.028845
    37  C    0.316768
    38  C   -0.392194
    39  C    0.333230
    40  O   -0.484372
    41  C   -0.330805
    42  C    0.611309
    43  O   -0.510963
    44  O   -0.380186
    45  C   -0.071038
    46  C   -0.006209
    47  C   -0.099702
    48  C    0.154252
    49  C   -0.404024
    50  C   -0.222475
    51  C   -0.175867
    52  C   -0.169652
    53  C   -0.065251
    54  C   -0.267723
    55  C   -0.167780
    56  C   -0.168789
    57  C   -0.156556
    58  C   -0.059238
    59  C   -0.299135
    60  C   -0.183406
    61  C   -0.189439
    62  C   -0.143786
    63  C   -0.055844
    64  C   -0.309028
    65  C   -0.312317
    66  H    0.078177
    67  H    0.140642
    68  H    0.089906
    69  H    0.134260
    70  H    0.116482
    71  H    0.118373
    72  H    0.108137
    73  H    0.139737
    74  H    0.121612
    75  H    0.117315
    76  H    0.137392
    77  H    0.128928
    78  H    0.095201
    79  H    0.163044
    80  H    0.139755
    81  H    0.105691
    82  H    0.121899
    83  H    0.089163
    84  H    0.095689
    85  H    0.132914
    86  H    0.114443
    87  H    0.130353
    88  H    0.141755
    89  H    0.130688
    90  H    0.160650
    91  H    0.108459
    92  H    0.107760
    93  H    0.087926
    94  H    0.126232
    95  H    0.111901
    96  H    0.128623
    97  H    0.094721
    98  H    0.105511
    99  H    0.077451
   100  H    0.112668
   101  H    0.086715
   102  H    0.052901
   103  H    0.081401
   104  H    0.067301
   105  H    0.113175
   106  H    0.104568
   107  H    0.080551
   108  H    0.092017
   109  H    0.086953
   110  H    0.069800
   111  H    0.099706
   112  H    0.078614
   113  H    0.060340
   114  H    0.092446
   115  H    0.088803
   116  H    0.116867
   117  H    0.096155
   118  H    0.079448
   119  H    0.099746
   120  H    0.091093
   121  H    0.081653
   122  H    0.070215
   123  H    0.073209
   124  H    0.100416
   125  H    0.075800
   126  H    0.095981
   127  H    0.088008
   128  H    0.119371
   129  H    0.105941
   130  H    0.133021
   131  H    0.077221
   132  H    0.127498
   133  O   -0.384139
   134  H    0.072895
 Sum of Mulliken charges =   0.00000

 Dipole moment (field-independent basis, Debye):
    X=              1.3107    Y=             -2.3837    Z=             -1.8471  Tot=              3.2881
 Quadrupole moment (field-independent basis, Debye-Ang):
   XX=           -367.3336   YY=           -431.0405   ZZ=           -396.1736
   XY=            -13.3911   XZ=             29.3686   YZ=            -35.1968

 Normal termination of Gaussian 09 at Fri Oct  4 16:44:17 2019.
