 Gaussian 09, Revision D.01,
 Gaussian 09:  ES64L-G09RevD.01 24-Apr-2013

 ----------------------------------------------------------------------
 # td=(NStates=1) iop(3/107=0140000000,3/108=0140000000) iop(3/107=0140
 000000,3/108=0140000000) CAM-B3LYP/6-31G(d,p)
 ----------------------------------------------------------------------

 --
 TD
 --
 Symbolic Z-matrix:
 Charge =  0 Multiplicity = 1

                         Standard orientation:
 ---------------------------------------------------------------------
 Center     Atomic      Atomic             Coordinates (Angstroms)
 Number     Number       Type             X           Y           Z
 ---------------------------------------------------------------------
      1         12           0       -5.566808    1.113955    0.265653
      2          6           0       -4.855909   -2.083070   -0.356088
      3          6           0       -3.346830    1.186161    2.832270
      4          6           0       -6.246293    4.514600    0.639064
      5          6           0       -7.859602    1.120651   -2.451396
      6          7           0       -4.349051   -0.267947    1.068824
      7          6           0       -4.172010   -1.604307    0.713153
      8          6           0       -3.117865   -2.426086    1.506564
      9          6           0       -2.854825   -1.437035    2.694796
     10          6           0       -3.553982   -0.047867    2.162655
     11          6           0       -3.518626   -1.683731    4.094672
     12          6           0       -1.858911   -2.695527    0.805279
     13          6           0       -0.944237   -3.602540    1.639404
     14          6           0        0.303113   -3.854998    0.780710
     15          8           0        0.511210   -3.475138   -0.317347
     16          8           0        1.107871   -4.710292    1.416204
     17          7           0       -4.861191    2.564053    1.397506
     18          6           0       -3.918641    2.375616    2.445634
     19          6           0       -3.768253    3.691519    3.132283
     20          6           0       -4.609621    4.615083    2.587775
     21          6           0       -5.225294    3.894059    1.430914
     22          6           0       -2.918031    3.892725    4.391297
     23          6           0       -4.741075    6.083152    2.978197
     24          8           0       -4.197586    6.573662    3.931754
     25          7           0       -6.808695    2.576778   -0.720566
     26          6           0       -6.946354    3.898827   -0.451029
     27          6           0       -7.909735    4.541576   -1.282982
     28          6           0       -8.331205    3.556812   -2.095102
     29          6           0       -7.669545    2.401931   -1.810937
     30          6           0       -8.373547    5.974533   -1.262740
     31          6           0       -9.391607    3.739658   -3.194249
     32          6           0       -8.772653    3.966100   -4.689953
     33          7           0       -6.370402   -0.141409   -0.982282
     34          6           0       -7.229872   -0.067302   -2.114608
     35          6           0       -7.408333   -1.348177   -2.760205
     36          6           0       -6.485150   -2.161175   -2.074651
     37          6           0       -5.900800   -1.416813   -1.100753
     38          6           0       -8.365219   -1.732454   -3.887061
     39          6           0       -5.951788   -3.540385   -2.123666
     40          8           0       -6.324730   -4.493167   -2.799161
     41          6           0       -4.913779   -3.483555   -0.894100
     42          6           0       -5.215664   -4.633977    0.082475
     43          8           0       -5.622291   -4.485448    1.241346
     44          8           0       -4.968930   -5.815762   -0.428410
     45          6           0       -5.325709   -6.882107    0.568120
     46          6           0        2.401258   -5.111599    0.763052
     47          6           0        3.430554   -4.077025    1.046395
     48          6           0        3.962564   -3.183722    0.086200
     49          6           0        3.482963   -3.125388   -1.302078
     50          6           0        5.104318   -2.214582    0.581091
     51          6           0        6.542692   -2.630260    0.105635
     52          6           0        7.635374   -1.747721    0.572631
     53          6           0        8.911585   -1.919839   -0.177014
     54          6           0        9.441171   -3.338094    0.015201
     55          6           0        9.886200   -0.855541    0.423097
     56          6           0       11.219704   -0.769764   -0.419751
     57          6           0       12.050990    0.380238    0.162267
     58          6           0       13.338792    0.465030   -0.642750
     59          6           0       14.371803   -0.793338   -0.466326
     60          6           0       14.147119    1.766727   -0.243379
     61          6           0       15.286471    2.155205   -0.948777
     62          6           0       15.835609    3.590714   -0.631400
     63          6           0       17.254301    3.907142   -1.270081
     64          6           0       17.132097    3.953987   -2.764595
     65          6           0       17.801463    5.234602   -0.772441
     66          1           0       -2.650483    1.333446    3.871642
     67          1           0       -6.620467    5.404623    0.729316
     68          1           0       -8.535605    1.065465   -3.361861
     69          1           0       -3.562786   -3.200848    2.006481
     70          1           0       -1.537448   -1.261360    2.658865
     71          1           0       -3.239810   -2.730519    4.425991
     72          1           0       -3.331459   -0.944171    4.769226
     73          1           0       -4.707418   -1.890233    3.938241
     74          1           0       -2.038138   -3.240518   -0.170718
     75          1           0       -1.238300   -1.961313    0.360637
     76          1           0       -0.527064   -3.351463    2.645777
     77          1           0       -1.581791   -4.521644    1.707106
     78          1           0       -1.921295    3.452016    4.115166
     79          1           0       -2.704968    4.978710    4.736329
     80          1           0       -3.356456    3.358270    5.399175
     81          1           0       -5.534626    6.512905    2.109709
     82          1           0      -10.033644    2.751131   -3.136641
     83          1           0      -10.209986    4.689910   -2.956693
     84          1           0       -9.575493    3.930699   -5.466463
     85          1           0       -8.266089    4.923099   -4.569503
     86          1           0       -8.134140    3.166524   -4.960004
     87          1           0       -7.965389   -1.213169   -4.649522
     88          1           0       -8.434843   -2.752604   -4.295125
     89          1           0       -9.427632   -1.588733   -3.696483
     90          1           0       -3.894340   -3.972092   -1.347803
     91          1           0        2.727316   -6.068627    1.458060
     92          1           0        2.207712   -5.337878   -0.187687
     93          1           0        3.790354   -3.877626    2.092968
     94          1           0        2.298542   -3.264470   -1.321949
     95          1           0        3.766859   -2.023259   -1.757348
     96          1           0        4.021125   -3.847598   -1.869553
     97          1           0        4.918224   -1.113291    0.376109
     98          1           0        5.250728   -2.210191    1.718163
     99          1           0        6.637990   -3.749136    0.533873
    100          1           0        6.417197   -2.772197   -1.004792
    101          1           0        7.389400   -0.560127    0.391267
    102          1           0        7.843514   -1.715654    1.618376
    103          1           0        8.929795   -1.806483   -1.273993
    104          1           0        8.730594   -4.004295   -0.565026
    105          1           0       10.463527   -3.366016   -0.441708
    106          1           0        9.336625   -3.713400    1.048864
    107          1           0        9.367483    0.165556    0.406790
    108          1           0        9.951199   -1.108304    1.388618
    109          1           0       11.571169   -1.825704   -0.390574
    110          1           0       11.120351   -0.542682   -1.558844
    111          1           0       11.441468    1.272388    0.188323
    112          1           0       12.374770    0.284795    1.167821
    113          1           0       13.186484    0.611797   -1.724812
    114          1           0       14.653659   -0.770926    0.605190
    115          1           0       13.959578   -1.875299   -0.836806
    116          1           0       15.182923   -0.558853   -1.205270
    117          1           0       13.329655    2.579938   -0.100211
    118          1           0       14.493644    1.546902    0.747430
    119          1           0       16.084049    1.402067   -0.767545
    120          1           0       15.124494    2.160617   -2.033759
    121          1           0       15.072045    4.353376   -0.992396
    122          1           0       16.013302    3.629394    0.523681
    123          1           0       17.975560    3.109451   -0.861665
    124          1           0       16.259723    4.696751   -2.888117
    125          1           0       18.028185    4.442877   -3.178594
    126          1           0       16.985239    2.926556   -3.169467
    127          1           0       17.850722    5.144817    0.437244
    128          1           0       18.713968    5.521894   -1.171801
    129          1           0       17.196024    5.945290   -1.160275
    130          1           0       -5.319155   -7.799368   -0.128132
    131          1           0       -6.290932   -6.767935    0.649982
    132          1           0       -4.540985   -6.756327    1.342479
    133          8           0       -8.001446    6.812886   -0.522271
    134          1           0       -9.025210    6.329317   -1.993204
 ---------------------------------------------------------------------

 SCF Done:  E(RCAM-B3LYP) =  -3043.49538280     A.U. after   16 cycles

 Excitation energies and oscillator strengths:

 Excited State   1:      Singlet-A      2.1165 eV  585.80 nm  f=0.1556  <S**2>=0.000
     243 -> 246       -0.26397
     244 -> 245        0.64347
 This state for optimization and/or second-order correction.
 Total Energy, E(TD-HF/TD-KS) =  -3043.41760298
 Copying the excited state density for this state as the 1-particle RhoCI density.

 The electronic state is 1-A.
 Alpha  occ. eigenvalues --  -46.79979 -19.22717 -19.21452 -19.18889 -19.17644
 Alpha  occ. eigenvalues --  -19.17479 -19.16990 -19.16140 -14.39430 -14.37168
 Alpha  occ. eigenvalues --  -14.36452 -14.35919 -10.34710 -10.34701 -10.32446
 Alpha  occ. eigenvalues --  -10.31801 -10.29643 -10.28877 -10.28527 -10.27634
 Alpha  occ. eigenvalues --  -10.27452 -10.27381 -10.27151 -10.26863 -10.26037
 Alpha  occ. eigenvalues --  -10.25844 -10.25822 -10.25556 -10.25476 -10.25342
 Alpha  occ. eigenvalues --  -10.25193 -10.24942 -10.24606 -10.24519 -10.24308
 Alpha  occ. eigenvalues --  -10.24111 -10.23751 -10.23619 -10.23614 -10.23471
 Alpha  occ. eigenvalues --  -10.23070 -10.22891 -10.22700 -10.22693 -10.22528
 Alpha  occ. eigenvalues --  -10.22298 -10.22131 -10.22111 -10.22095 -10.22093
 Alpha  occ. eigenvalues --  -10.21959 -10.21849 -10.21724 -10.21654 -10.21625
 Alpha  occ. eigenvalues --  -10.21590 -10.21563 -10.21507 -10.20816 -10.20657
 Alpha  occ. eigenvalues --  -10.20543 -10.20161 -10.19981 -10.19964 -10.19710
 Alpha  occ. eigenvalues --  -10.19391  -3.08943  -1.83842  -1.83424  -1.83395
 Alpha  occ. eigenvalues --   -1.14092  -1.14008  -1.09103  -1.08601  -1.06402
 Alpha  occ. eigenvalues --   -1.05402  -1.03076  -1.00126  -0.99361  -0.98853
 Alpha  occ. eigenvalues --   -0.97671  -0.88218  -0.86767  -0.86048  -0.85173
 Alpha  occ. eigenvalues --   -0.84504  -0.84122  -0.83541  -0.83146  -0.82947
 Alpha  occ. eigenvalues --   -0.82594  -0.82418  -0.81052  -0.80303  -0.79517
 Alpha  occ. eigenvalues --   -0.78681  -0.78110  -0.77433  -0.76715  -0.76513
 Alpha  occ. eigenvalues --   -0.74834  -0.74373  -0.73769  -0.72759  -0.72005
 Alpha  occ. eigenvalues --   -0.70890  -0.70786  -0.70084  -0.69312  -0.69059
 Alpha  occ. eigenvalues --   -0.68661  -0.68511  -0.66448  -0.66222  -0.65708
 Alpha  occ. eigenvalues --   -0.65206  -0.64418  -0.63665  -0.61794  -0.61513
 Alpha  occ. eigenvalues --   -0.61071  -0.60368  -0.60335  -0.58970  -0.58831
 Alpha  occ. eigenvalues --   -0.58148  -0.58110  -0.57443  -0.57430  -0.57242
 Alpha  occ. eigenvalues --   -0.55816  -0.55331  -0.55209  -0.54589  -0.54362
 Alpha  occ. eigenvalues --   -0.54073  -0.53853  -0.53077  -0.52146  -0.51908
 Alpha  occ. eigenvalues --   -0.51282  -0.51042  -0.50751  -0.50693  -0.50264
 Alpha  occ. eigenvalues --   -0.49666  -0.49644  -0.49265  -0.49059  -0.48948
 Alpha  occ. eigenvalues --   -0.48809  -0.48462  -0.48063  -0.47711  -0.47669
 Alpha  occ. eigenvalues --   -0.47372  -0.47160  -0.47057  -0.46867  -0.46575
 Alpha  occ. eigenvalues --   -0.46506  -0.46277  -0.46182  -0.46017  -0.45696
 Alpha  occ. eigenvalues --   -0.45527  -0.45205  -0.44918  -0.44815  -0.44605
 Alpha  occ. eigenvalues --   -0.44429  -0.44174  -0.44140  -0.43966  -0.43946
 Alpha  occ. eigenvalues --   -0.43711  -0.43577  -0.43172  -0.42883  -0.42655
 Alpha  occ. eigenvalues --   -0.42522  -0.42397  -0.42257  -0.42227  -0.41848
 Alpha  occ. eigenvalues --   -0.41620  -0.41585  -0.41247  -0.41044  -0.41027
 Alpha  occ. eigenvalues --   -0.40769  -0.40487  -0.40405  -0.40038  -0.39894
 Alpha  occ. eigenvalues --   -0.39594  -0.39466  -0.39336  -0.39042  -0.38911
 Alpha  occ. eigenvalues --   -0.38730  -0.38644  -0.38492  -0.38348  -0.38070
 Alpha  occ. eigenvalues --   -0.38031  -0.37659  -0.37531  -0.37322  -0.36899
 Alpha  occ. eigenvalues --   -0.36800  -0.35954  -0.35878  -0.35624  -0.35355
 Alpha  occ. eigenvalues --   -0.35229  -0.34991  -0.34924  -0.34751  -0.34723
 Alpha  occ. eigenvalues --   -0.34548  -0.34150  -0.34044  -0.33506  -0.33144
 Alpha  occ. eigenvalues --   -0.32792  -0.32490  -0.32427  -0.32378  -0.31755
 Alpha  occ. eigenvalues --   -0.31517  -0.31062  -0.30285  -0.29606  -0.29469
 Alpha  occ. eigenvalues --   -0.28742  -0.28275  -0.28134  -0.27988  -0.27681
 Alpha  occ. eigenvalues --   -0.27533  -0.26139  -0.23193  -0.21455
 Alpha virt. eigenvalues --   -0.07926  -0.06326  -0.01547  -0.00324   0.00878
 Alpha virt. eigenvalues --    0.02040   0.03645   0.04233   0.04280   0.04601
 Alpha virt. eigenvalues --    0.05058   0.05995   0.07970   0.08256   0.09055

 Mulliken charges:
               1
     1  Mg   0.823272
     2  C    0.077400
     3  C   -0.215655
     4  C   -0.117512
     5  C   -0.177180
     6  N   -0.637841
     7  C    0.288508
     8  C   -0.099650
     9  C   -0.134126
    10  C    0.333920
    11  C   -0.312309
    12  C   -0.189241
    13  C   -0.265122
    14  C    0.600722
    15  O   -0.453547
    16  O   -0.476299
    17  N   -0.706398
    18  C    0.343704
    19  C    0.023413
    20  C   -0.017169
    21  C    0.284278
    22  C   -0.380021
    23  C    0.281717
    24  O   -0.399030
    25  N   -0.660170
    26  C    0.252006
    27  C   -0.027404
    28  C    0.051348
    29  C    0.273836
    30  C    0.266614
    31  C   -0.251722
    32  C   -0.308337
    33  N   -0.726035
    34  C    0.248277
    35  C    0.027361
    36  C    0.010403
    37  C    0.313081
    38  C   -0.380253
    39  C    0.381289
    40  O   -0.455244
    41  C   -0.361580
    42  C    0.617725
    43  O   -0.509624
    44  O   -0.442533
    45  C   -0.071381
    46  C    0.008927
    47  C   -0.131296
    48  C    0.133573
    49  C   -0.395188
    50  C   -0.232053
    51  C   -0.168968
    52  C   -0.148246
    53  C   -0.058637
    54  C   -0.311014
    55  C   -0.172283
    56  C   -0.179393
    57  C   -0.156448
    58  C   -0.075454
    59  C   -0.310993
    60  C   -0.161726
    61  C   -0.172879
    62  C   -0.159892
    63  C   -0.061127
    64  C   -0.296116
    65  C   -0.290946
    66  H    0.094878
    67  H    0.079564
    68  H    0.097013
    69  H    0.131846
    70  H    0.068083
    71  H    0.108905
    72  H    0.135461
    73  H    0.114233
    74  H    0.112494
    75  H    0.137051
    76  H    0.139184
    77  H    0.136359
    78  H    0.111976
    79  H    0.153589
    80  H    0.107944
    81  H    0.070885
    82  H    0.093337
    83  H    0.080158
    84  H    0.111401
    85  H    0.122766
    86  H    0.119783
    87  H    0.142296
    88  H    0.148271
    89  H    0.131125
    90  H    0.139460
    91  H    0.105939
    92  H    0.130521
    93  H    0.087009
    94  H    0.163603
    95  H    0.087658
    96  H    0.130432
    97  H    0.094810
    98  H    0.083978
    99  H    0.080576
   100  H    0.095382
   101  H    0.060504
   102  H    0.100682
   103  H    0.084615
   104  H    0.098474
   105  H    0.096085
   106  H    0.097096
   107  H    0.071431
   108  H    0.100104
   109  H    0.094737
   110  H    0.082710
   111  H    0.097353
   112  H    0.094053
   113  H    0.077062
   114  H    0.105567
   115  H    0.081509
   116  H    0.108699
   117  H    0.068000
   118  H    0.084938
   119  H    0.089818
   120  H    0.083958
   121  H    0.081601
   122  H    0.070564
   123  H    0.071371
   124  H    0.089721
   125  H    0.097323
   126  H    0.107533
   127  H    0.076440
   128  H    0.104501
   129  H    0.104420
   130  H    0.118255
   131  H    0.157178
   132  H    0.144053
   133  O   -0.394156
   134  H    0.062498
 Sum of Mulliken charges =   0.00000

 Dipole moment (field-independent basis, Debye):
    X=              2.2334    Y=             -5.1608    Z=             -0.6624  Tot=              5.6623
 Quadrupole moment (field-independent basis, Debye-Ang):
   XX=           -381.7358   YY=           -430.8342   ZZ=           -390.1963
   XY=             15.4213   XZ=             20.6557   YZ=            -31.8262

 Normal termination of Gaussian 09 at Tue Oct  8 03:28:26 2019.
