 Gaussian 09, Revision D.01,
 Gaussian 09:  ES64L-G09RevD.01 24-Apr-2013

 ----------------------------------------------------------------------
 # td=(NStates=1) iop(3/107=0140000000,3/108=0140000000) iop(3/107=0140
 000000,3/108=0140000000) CAM-B3LYP/6-31G(d,p)
 ----------------------------------------------------------------------

 --
 TD
 --
 Symbolic Z-matrix:
 Charge =  0 Multiplicity = 1

                         Standard orientation:
 ---------------------------------------------------------------------
 Center     Atomic      Atomic             Coordinates (Angstroms)
 Number     Number       Type             X           Y           Z
 ---------------------------------------------------------------------
      1         12           0       -5.623602    1.194421    0.151483
      2          6           0       -5.018065   -2.136094   -0.373704
      3          6           0       -3.614575    1.160327    2.865780
      4          6           0       -6.217372    4.575504    0.736027
      5          6           0       -7.965208    1.108521   -2.336610
      6          7           0       -4.315838   -0.242007    0.913628
      7          6           0       -4.232166   -1.526427    0.614262
      8          6           0       -3.214441   -2.328689    1.429270
      9          6           0       -2.945876   -1.367788    2.571442
     10          6           0       -3.648226   -0.014667    2.066573
     11          6           0       -3.457369   -1.810378    3.833812
     12          6           0       -1.961800   -2.646475    0.610574
     13          6           0       -0.969043   -3.480680    1.337891
     14          6           0        0.268100   -3.895536    0.571386
     15          8           0        0.443418   -3.522166   -0.629423
     16          8           0        1.077532   -4.652097    1.276383
     17          7           0       -5.004637    2.591781    1.536562
     18          6           0       -4.070843    2.435908    2.518407
     19          6           0       -3.798411    3.617244    3.158552
     20          6           0       -4.642693    4.590226    2.636753
     21          6           0       -5.305273    3.914182    1.526711
     22          6           0       -2.843176    3.820296    4.261550
     23          6           0       -4.723090    5.985601    3.001366
     24          8           0       -4.025445    6.582222    3.824596
     25          7           0       -6.918334    2.607383   -0.703065
     26          6           0       -6.939218    3.917408   -0.411261
     27          6           0       -7.978837    4.651870   -1.277783
     28          6           0       -8.443819    3.653959   -2.004880
     29          6           0       -7.749654    2.405171   -1.702969
     30          6           0       -8.352968    6.058780   -1.274160
     31          6           0       -9.624879    3.797032   -2.981605
     32          6           0       -9.155198    4.077371   -4.329841
     33          7           0       -6.423885   -0.175469   -1.070385
     34          6           0       -7.437700   -0.079042   -2.083855
     35          6           0       -7.572723   -1.370634   -2.780431
     36          6           0       -6.654935   -2.167952   -2.052305
     37          6           0       -5.964187   -1.388141   -1.184480
     38          6           0       -8.572200   -1.647694   -3.808985
     39          6           0       -6.041821   -3.530137   -1.998278
     40          8           0       -6.407214   -4.627151   -2.522349
     41          6           0       -4.928850   -3.532814   -0.904993
     42          6           0       -5.288894   -4.626961    0.066320
     43          8           0       -5.566832   -4.501776    1.289068
     44          8           0       -5.049396   -5.849204   -0.466183
     45          6           0       -5.366294   -7.000125    0.463992
     46          6           0        2.271280   -5.118573    0.676232
     47          6           0        3.337014   -4.143964    0.993336
     48          6           0        4.135569   -3.432285    0.246048
     49          6           0        3.777817   -3.204601   -1.283381
     50          6           0        5.227521   -2.489070    0.789059
     51          6           0        6.589396   -2.746543    0.130168
     52          6           0        7.713113   -1.841454    0.617891
     53          6           0        9.110942   -2.130383   -0.036743
     54          6           0        9.745231   -3.501019    0.237382
     55          6           0       10.042328   -0.920892    0.475784
     56          6           0       11.491354   -0.876202   -0.158949
     57          6           0       12.262073    0.381877    0.144466
     58          6           0       13.653452    0.565575   -0.653809
     59          6           0       14.512035   -0.665655   -0.281439
     60          6           0       14.253991    1.839911   -0.208042
     61          6           0       15.521472    2.201791   -1.001287
     62          6           0       16.054114    3.569305   -0.641712
     63          6           0       17.329338    4.025017   -1.487037
     64          6           0       17.142453    4.183982   -2.950216
     65          6           0       17.733367    5.353853   -0.909562
     66          1           0       -2.774969    1.159490    3.587477
     67          1           0       -6.384173    5.549735    0.956074
     68          1           0       -8.762476    1.106184   -2.976060
     69          1           0       -3.756092   -3.178078    1.958937
     70          1           0       -1.792395   -1.196524    2.497485
     71          1           0       -3.039928   -2.522868    4.471094
     72          1           0       -3.623149   -0.965483    4.481733
     73          1           0       -4.517503   -2.051797    3.597580
     74          1           0       -2.149245   -3.082068   -0.394979
     75          1           0       -1.586099   -1.695293    0.324712
     76          1           0       -0.871038   -2.974975    2.370823
     77          1           0       -1.541745   -4.396847    1.671661
     78          1           0       -1.820267    3.932619    3.816286
     79          1           0       -3.068915    4.891687    4.671600
     80          1           0       -2.945017    3.030249    5.022129
     81          1           0       -5.370405    6.426913    2.309882
     82          1           0      -10.315527    2.828817   -3.131620
     83          1           0      -10.577034    4.610622   -2.641231
     84          1           0       -9.892545    4.345454   -5.271847
     85          1           0       -8.253385    4.933532   -4.371113
     86          1           0       -8.670865    3.058125   -4.504918
     87          1           0       -8.268850   -1.218843   -4.802827
     88          1           0       -8.617569   -2.869496   -3.945163
     89          1           0       -9.638920   -1.520045   -3.511452
     90          1           0       -3.963495   -3.623676   -1.338791
     91          1           0        2.671222   -5.989909    1.251918
     92          1           0        2.339673   -5.047246   -0.450736
     93          1           0        3.678746   -4.075474    1.992521
     94          1           0        2.766138   -3.701062   -1.730232
     95          1           0        3.834284   -2.049928   -1.547965
     96          1           0        4.641734   -3.684724   -1.804431
     97          1           0        5.061577   -1.383976    0.827042
     98          1           0        5.347249   -2.511513    1.854909
     99          1           0        6.819811   -3.705928    0.173244
    100          1           0        6.564723   -2.617356   -0.960856
    101          1           0        7.340525   -0.895810    0.428716
    102          1           0        7.715587   -1.875147    1.656459
    103          1           0        9.114323   -1.797281   -1.127393
    104          1           0        9.064829   -4.235642   -0.115907
    105          1           0       10.721121   -3.536619   -0.159788
    106          1           0        9.725498   -3.807242    1.431011
    107          1           0        9.533595   -0.010651    0.364914
    108          1           0       10.391407   -1.100409    1.490902
    109          1           0       12.153836   -1.673825    0.158801
    110          1           0       11.385097   -0.988774   -1.385583
    111          1           0       11.594256    1.319508    0.206103
    112          1           0       12.535188    0.126230    1.249612
    113          1           0       13.473132    0.496968   -1.779727
    114          1           0       14.919687   -0.632973    0.871126
    115          1           0       14.073779   -1.610555   -0.612095
    116          1           0       15.388619   -0.554036   -0.781847
    117          1           0       13.490882    2.522575   -0.223417
    118          1           0       14.489561    1.643805    0.908559
    119          1           0       16.189303    1.449633   -0.959642
    120          1           0       15.281738    2.367824   -2.044603
    121          1           0       15.225524    4.480286   -0.531478
    122          1           0       16.568006    3.450409    0.418668
    123          1           0       18.165625    3.278183   -1.190341
    124          1           0       16.061400    4.730181   -2.939081
    125          1           0       18.109579    4.580541   -3.348789
    126          1           0       16.997391    3.206950   -3.338699
    127          1           0       18.096838    5.281142    0.224713
    128          1           0       18.535784    5.685075   -1.445229
    129          1           0       16.870133    6.034724   -0.929790
    130          1           0       -4.984666   -7.879384   -0.252856
    131          1           0       -6.255766   -7.050867    0.775079
    132          1           0       -4.687782   -7.057760    1.310139
    133          8           0       -7.767691    6.868673   -0.555193
    134          1           0       -9.153395    6.430735   -1.847871
 ---------------------------------------------------------------------

 SCF Done:  E(RCAM-B3LYP) =  -3043.48213369     A.U. after   16 cycles

 Excitation energies and oscillator strengths:

 Excited State   1:      Singlet-A      2.0588 eV  602.21 nm  f=0.1382  <S**2>=0.000
     243 -> 246        0.30056
     244 -> 245        0.62255
 This state for optimization and/or second-order correction.
 Total Energy, E(TD-HF/TD-KS) =  -3043.40647325
 Copying the excited state density for this state as the 1-particle RhoCI density.

 The electronic state is 1-A.
 Alpha  occ. eigenvalues --  -46.82111 -19.24380 -19.22696 -19.17316 -19.17118
 Alpha  occ. eigenvalues --  -19.17070 -19.17066 -19.16973 -14.39241 -14.38008
 Alpha  occ. eigenvalues --  -14.36690 -14.36504 -10.36073 -10.35511 -10.32021
 Alpha  occ. eigenvalues --  -10.30335 -10.29675 -10.28646 -10.28319 -10.27699
 Alpha  occ. eigenvalues --  -10.27180 -10.27176 -10.26623 -10.26475 -10.26072
 Alpha  occ. eigenvalues --  -10.26035 -10.25880 -10.25794 -10.25445 -10.25021
 Alpha  occ. eigenvalues --  -10.24736 -10.24458 -10.24456 -10.24371 -10.24135
 Alpha  occ. eigenvalues --  -10.23963 -10.23687 -10.23392 -10.23240 -10.23217
 Alpha  occ. eigenvalues --  -10.23190 -10.23095 -10.23025 -10.22827 -10.22806
 Alpha  occ. eigenvalues --  -10.22774 -10.22468 -10.22362 -10.22357 -10.22016
 Alpha  occ. eigenvalues --  -10.21969 -10.21639 -10.21473 -10.21465 -10.21427
 Alpha  occ. eigenvalues --  -10.21291 -10.21038 -10.20742 -10.20423 -10.20338
 Alpha  occ. eigenvalues --  -10.20222 -10.19950 -10.19730 -10.19698 -10.19553
 Alpha  occ. eigenvalues --  -10.19457  -3.10694  -1.85634  -1.85172  -1.85098
 Alpha  occ. eigenvalues --   -1.15367  -1.11758  -1.06369  -1.05967  -1.04270
 Alpha  occ. eigenvalues --   -1.03145  -1.02284  -1.02055  -1.01622  -1.00754
 Alpha  occ. eigenvalues --   -1.00246  -0.88956  -0.87135  -0.86090  -0.85895
 Alpha  occ. eigenvalues --   -0.85510  -0.85031  -0.84373  -0.84259  -0.83914
 Alpha  occ. eigenvalues --   -0.83641  -0.83521  -0.82488  -0.81074  -0.80112
 Alpha  occ. eigenvalues --   -0.79539  -0.78889  -0.78007  -0.77372  -0.76976
 Alpha  occ. eigenvalues --   -0.75548  -0.75244  -0.74355  -0.73611  -0.72472
 Alpha  occ. eigenvalues --   -0.71169  -0.70920  -0.70717  -0.70143  -0.69754
 Alpha  occ. eigenvalues --   -0.69427  -0.69251  -0.67740  -0.67587  -0.66504
 Alpha  occ. eigenvalues --   -0.64659  -0.64337  -0.63483  -0.63357  -0.62380
 Alpha  occ. eigenvalues --   -0.62002  -0.60978  -0.60794  -0.60258  -0.59677
 Alpha  occ. eigenvalues --   -0.58274  -0.58136  -0.57712  -0.57587  -0.56993
 Alpha  occ. eigenvalues --   -0.56526  -0.56287  -0.55899  -0.55533  -0.55179
 Alpha  occ. eigenvalues --   -0.54846  -0.54230  -0.53328  -0.52761  -0.52671
 Alpha  occ. eigenvalues --   -0.51969  -0.51846  -0.51285  -0.50933  -0.50689
 Alpha  occ. eigenvalues --   -0.50462  -0.50026  -0.49826  -0.49624  -0.49525
 Alpha  occ. eigenvalues --   -0.49125  -0.49064  -0.48639  -0.48216  -0.47979
 Alpha  occ. eigenvalues --   -0.47721  -0.47619  -0.47299  -0.47153  -0.46938
 Alpha  occ. eigenvalues --   -0.46824  -0.46703  -0.46350  -0.46159  -0.45897
 Alpha  occ. eigenvalues --   -0.45678  -0.45315  -0.45175  -0.44999  -0.44754
 Alpha  occ. eigenvalues --   -0.44490  -0.44415  -0.44365  -0.44041  -0.43770
 Alpha  occ. eigenvalues --   -0.43465  -0.43357  -0.43097  -0.42992  -0.42738
 Alpha  occ. eigenvalues --   -0.42572  -0.42482  -0.42234  -0.41947  -0.41857
 Alpha  occ. eigenvalues --   -0.41616  -0.41475  -0.41219  -0.41106  -0.40842
 Alpha  occ. eigenvalues --   -0.40754  -0.40681  -0.40497  -0.39927  -0.39660
 Alpha  occ. eigenvalues --   -0.39551  -0.39344  -0.39176  -0.39132  -0.38882
 Alpha  occ. eigenvalues --   -0.38785  -0.38708  -0.38546  -0.38509  -0.38317
 Alpha  occ. eigenvalues --   -0.38216  -0.37548  -0.37351  -0.37083  -0.36784
 Alpha  occ. eigenvalues --   -0.36326  -0.36186  -0.35825  -0.35743  -0.35513
 Alpha  occ. eigenvalues --   -0.35435  -0.35002  -0.34998  -0.34744  -0.34489
 Alpha  occ. eigenvalues --   -0.33949  -0.33855  -0.33783  -0.33409  -0.33126
 Alpha  occ. eigenvalues --   -0.33028  -0.32653  -0.32409  -0.32366  -0.32176
 Alpha  occ. eigenvalues --   -0.31403  -0.30489  -0.30424  -0.30070  -0.29944
 Alpha  occ. eigenvalues --   -0.29433  -0.28663  -0.28416  -0.28327  -0.28077
 Alpha  occ. eigenvalues --   -0.27632  -0.27426  -0.22924  -0.21992
 Alpha virt. eigenvalues --   -0.08624  -0.06963  -0.01696  -0.01383   0.00081
 Alpha virt. eigenvalues --    0.02223   0.02364   0.03155   0.04039   0.04476
 Alpha virt. eigenvalues --    0.04919   0.05419   0.07583   0.08237   0.09297

 Mulliken charges:
               1
     1  Mg   0.832700
     2  C    0.045487
     3  C   -0.202990
     4  C   -0.137453
     5  C   -0.162185
     6  N   -0.611127
     7  C    0.297320
     8  C   -0.155675
     9  C   -0.138069
    10  C    0.288621
    11  C   -0.320064
    12  C   -0.169302
    13  C   -0.273011
    14  C    0.620985
    15  O   -0.501433
    16  O   -0.416881
    17  N   -0.704154
    18  C    0.331780
    19  C    0.042539
    20  C   -0.029979
    21  C    0.313765
    22  C   -0.404241
    23  C    0.272980
    24  O   -0.437645
    25  N   -0.650658
    26  C    0.225266
    27  C    0.015488
    28  C    0.015523
    29  C    0.300857
    30  C    0.241617
    31  C   -0.238592
    32  C   -0.265381
    33  N   -0.731131
    34  C    0.268597
    35  C    0.055929
    36  C    0.031419
    37  C    0.343280
    38  C   -0.411925
    39  C    0.341193
    40  O   -0.472089
    41  C   -0.311684
    42  C    0.634642
    43  O   -0.498524
    44  O   -0.440809
    45  C   -0.079646
    46  C   -0.005269
    47  C   -0.144587
    48  C    0.146441
    49  C   -0.372219
    50  C   -0.242097
    51  C   -0.182015
    52  C   -0.179720
    53  C   -0.057191
    54  C   -0.308453
    55  C   -0.172931
    56  C   -0.188797
    57  C   -0.166446
    58  C   -0.055411
    59  C   -0.311476
    60  C   -0.146639
    61  C   -0.169514
    62  C   -0.162339
    63  C   -0.072896
    64  C   -0.284088
    65  C   -0.277594
    66  H    0.089941
    67  H    0.113523
    68  H    0.076239
    69  H    0.140572
    70  H    0.090329
    71  H    0.123348
    72  H    0.114682
    73  H    0.122645
    74  H    0.112863
    75  H    0.120850
    76  H    0.124584
    77  H    0.133456
    78  H    0.128154
    79  H    0.157631
    80  H    0.118069
    81  H    0.080662
    82  H    0.098649
    83  H    0.069432
    84  H    0.096852
    85  H    0.085345
    86  H    0.101058
    87  H    0.140232
    88  H    0.131061
    89  H    0.142650
    90  H    0.177004
    91  H    0.129534
    92  H    0.131493
    93  H    0.072819
    94  H    0.129204
    95  H    0.108126
    96  H    0.110729
    97  H    0.099274
    98  H    0.097123
    99  H    0.102063
   100  H    0.089782
   101  H    0.096217
   102  H    0.094728
   103  H    0.084737
   104  H    0.113115
   105  H    0.121130
   106  H    0.074455
   107  H    0.094702
   108  H    0.091578
   109  H    0.103284
   110  H    0.038070
   111  H    0.072892
   112  H    0.073748
   113  H    0.078331
   114  H    0.075056
   115  H    0.107839
   116  H    0.108556
   117  H    0.096206
   118  H    0.077411
   119  H    0.103389
   120  H    0.091746
   121  H    0.063325
   122  H    0.071693
   123  H    0.070093
   124  H    0.087156
   125  H    0.104074
   126  H    0.109819
   127  H    0.074690
   128  H    0.097614
   129  H    0.096490
   130  H    0.115607
   131  H    0.151815
   132  H    0.130691
   133  O   -0.420219
   134  H    0.087883
 Sum of Mulliken charges =   0.00000

 Dipole moment (field-independent basis, Debye):
    X=              1.7472    Y=             -5.1500    Z=             -1.0215  Tot=              5.5334
 Quadrupole moment (field-independent basis, Debye-Ang):
   XX=           -357.8605   YY=           -440.0373   ZZ=           -398.6090
   XY=              1.3014   XZ=             19.7496   YZ=            -36.6483

 Normal termination of Gaussian 09 at Tue Oct  8 22:24:30 2019.
