 Gaussian 09, Revision D.01,
 Gaussian 09:  ES64L-G09RevD.01 24-Apr-2013

 ----------------------------------------------------------------------
 # td=(NStates=1) iop(3/107=0140000000,3/108=0140000000) iop(3/107=0140
 000000,3/108=0140000000) CAM-B3LYP/6-31G(d,p)
 ----------------------------------------------------------------------

 --
 TD
 --
 Symbolic Z-matrix:
 Charge =  0 Multiplicity = 1

                         Standard orientation:
 ---------------------------------------------------------------------
 Center     Atomic      Atomic             Coordinates (Angstroms)
 Number     Number       Type             X           Y           Z
 ---------------------------------------------------------------------
      1         12           0       -5.598976    1.208862    0.206133
      2          6           0       -5.163926   -2.077629   -0.375633
      3          6           0       -3.286324    1.126821    2.703584
      4          6           0       -6.181506    4.543525    0.736358
      5          6           0       -7.999753    1.268387   -2.415735
      6          7           0       -4.333391   -0.283086    0.977978
      7          6           0       -4.269641   -1.639846    0.638995
      8          6           0       -3.267893   -2.369281    1.466906
      9          6           0       -2.899715   -1.335572    2.656494
     10          6           0       -3.476958   -0.076798    2.051863
     11          6           0       -3.665421   -1.787530    3.952654
     12          6           0       -2.027499   -2.702346    0.668595
     13          6           0       -1.067631   -3.654298    1.302179
     14          6           0        0.187390   -3.845304    0.485322
     15          8           0        0.330276   -3.462602   -0.593517
     16          8           0        1.046462   -4.641067    1.194938
     17          7           0       -4.856010    2.620968    1.471238
     18          6           0       -3.927619    2.324419    2.416589
     19          6           0       -3.653702    3.577706    3.090910
     20          6           0       -4.571753    4.574179    2.622975
     21          6           0       -5.214328    3.984545    1.565374
     22          6           0       -2.663025    3.699066    4.164449
     23          6           0       -4.525206    5.964473    3.018526
     24          8           0       -3.801718    6.497145    3.829489
     25          7           0       -6.772343    2.610613   -0.693837
     26          6           0       -6.908510    3.891785   -0.322185
     27          6           0       -7.764600    4.674835   -1.212564
     28          6           0       -8.300089    3.818172   -2.093796
     29          6           0       -7.739324    2.478471   -1.749299
     30          6           0       -8.098985    6.085082   -1.010753
     31          6           0       -9.348792    3.905920   -3.162258
     32          6           0       -8.706193    4.061184   -4.535881
     33          7           0       -6.462492   -0.161378   -1.142623
     34          6           0       -7.415487    0.018906   -2.064642
     35          6           0       -7.756645   -1.218825   -2.757865
     36          6           0       -6.815162   -2.127730   -2.040558
     37          6           0       -6.039172   -1.456388   -1.107455
     38          6           0       -8.782562   -1.626592   -3.761466
     39          6           0       -6.434229   -3.590782   -2.029113
     40          8           0       -6.805165   -4.490721   -2.741498
     41          6           0       -5.183487   -3.594872   -0.961327
     42          6           0       -5.430596   -4.622442    0.085090
     43          8           0       -5.797259   -4.401049    1.260784
     44          8           0       -5.171588   -5.806361   -0.341487
     45          6           0       -5.430320   -6.789843    0.626054
     46          6           0        2.343265   -4.955619    0.630807
     47          6           0        3.436272   -4.085323    1.081842
     48          6           0        3.993367   -3.237153    0.214749
     49          6           0        3.726732   -3.046151   -1.218001
     50          6           0        5.225301   -2.455201    0.762504
     51          6           0        6.532394   -2.625860    0.043278
     52          6           0        7.717536   -1.721553    0.516059
     53          6           0        9.029290   -1.916610   -0.117928
     54          6           0        9.515442   -3.411121    0.241033
     55          6           0       10.028912   -0.961624    0.421297
     56          6           0       11.461798   -1.049606   -0.139669
     57          6           0       12.252736    0.291858    0.282934
     58          6           0       13.573536    0.415101   -0.586127
     59          6           0       14.551502   -0.679303   -0.446662
     60          6           0       14.301536    1.717000   -0.152061
     61          6           0       15.460272    2.097331   -1.126398
     62          6           0       16.010983    3.562756   -0.715625
     63          6           0       17.363698    3.787342   -1.370430
     64          6           0       17.306429    3.890836   -2.873800
     65          6           0       17.778623    5.172663   -0.773604
     66          1           0       -2.353627    1.090731    3.730043
     67          1           0       -6.220005    5.617077    0.776464
     68          1           0       -8.776220    1.084894   -3.033419
     69          1           0       -3.810138   -3.243509    1.922635
     70          1           0       -1.821326   -1.304770    2.929039
     71          1           0       -3.239478   -2.778798    4.265385
     72          1           0       -3.534514   -0.945716    4.693884
     73          1           0       -4.637037   -1.969807    3.641125
     74          1           0       -2.329208   -3.146198   -0.152510
     75          1           0       -1.810155   -1.693069    0.327825
     76          1           0       -0.672578   -3.325094    2.295155
     77          1           0       -1.263369   -4.707692    1.530919
     78          1           0       -1.517637    3.424647    3.901716
     79          1           0       -2.750809    4.701304    4.410359
     80          1           0       -2.936466    3.172368    5.106488
     81          1           0       -5.219401    6.620734    2.371664
     82          1           0      -10.095350    3.125761   -2.958343
     83          1           0       -9.836147    4.946126   -2.982098
     84          1           0       -9.362571    4.572364   -5.217331
     85          1           0       -8.006679    5.050148   -4.230796
     86          1           0       -8.009579    3.371600   -5.087226
     87          1           0       -8.692672   -1.135488   -4.679087
     88          1           0       -8.707895   -2.770858   -4.250325
     89          1           0       -9.831774   -1.502534   -3.365023
     90          1           0       -4.356958   -3.928848   -1.638101
     91          1           0        2.614788   -5.988175    1.100393
     92          1           0        2.071994   -5.221509   -0.396924
     93          1           0        3.708040   -4.214417    2.084027
     94          1           0        2.628920   -3.225955   -1.519467
     95          1           0        4.121419   -1.992432   -1.530761
     96          1           0        4.388422   -3.750249   -1.744965
     97          1           0        5.162603   -1.252693    0.882066
     98          1           0        5.370959   -2.907239    1.872969
     99          1           0        6.858460   -3.843574    0.040274
    100          1           0        6.292388   -2.472936   -1.193635
    101          1           0        7.378509   -0.625379    0.599086
    102          1           0        7.663602   -1.922814    1.636368
    103          1           0        9.109354   -1.883278   -1.172213
    104          1           0        8.696965   -4.213831    0.000923
    105          1           0       10.466087   -3.713192   -0.227809
    106          1           0        9.646838   -3.415951    1.310226
    107          1           0        9.647183    0.167096    0.299447
    108          1           0       10.229269   -0.996531    1.378793
    109          1           0       12.079561   -2.074500    0.211766
    110          1           0       11.366695   -0.995887   -1.276061
    111          1           0       11.683348    1.056470   -0.047176
    112          1           0       12.424211    0.178181    1.279563
    113          1           0       13.285620    0.588175   -1.670770
    114          1           0       14.708116   -0.867603    0.672406
    115          1           0       13.865253   -1.680314   -0.811495
    116          1           0       15.591362   -0.508320   -0.974352
    117          1           0       13.563869    2.433170   -0.534722
    118          1           0       14.581897    1.735558    0.947269
    119          1           0       16.189000    1.156982   -1.047939
    120          1           0       15.345989    2.011564   -2.203401
    121          1           0       15.328760    4.368637   -0.796472
    122          1           0       16.233551    3.695939    0.309188
    123          1           0       18.003717    2.991742   -1.136109
    124          1           0       16.482177    4.515540   -3.188440
    125          1           0       18.309100    4.180418   -3.343927
    126          1           0       17.034899    2.844297   -3.144497
    127          1           0       17.811223    4.861599    0.300477
    128          1           0       18.835356    5.407476   -1.017267
    129          1           0       16.933883    6.092821   -1.051519
    130          1           0       -5.231066   -7.547534   -0.097139
    131          1           0       -6.472601   -7.079609    1.049330
    132          1           0       -4.689482   -6.897281    1.484815
    133          8           0       -7.691863    6.881909   -0.207828
    134          1           0       -8.930229    6.418974   -1.570219
 ---------------------------------------------------------------------

 SCF Done:  E(RCAM-B3LYP) =  -3043.44117545     A.U. after   16 cycles

 Excitation energies and oscillator strengths:

 Excited State   1:      Singlet-A      1.9851 eV  624.57 nm  f=0.2068  <S**2>=0.000
     243 -> 246        0.24450
     244 -> 245        0.65836
 This state for optimization and/or second-order correction.
 Total Energy, E(TD-HF/TD-KS) =  -3043.36822421
 Copying the excited state density for this state as the 1-particle RhoCI density.

 The electronic state is 1-A.
 Alpha  occ. eigenvalues --  -46.81357 -19.24394 -19.20877 -19.17685 -19.17657
 Alpha  occ. eigenvalues --  -19.17562 -19.17064 -19.16198 -14.39699 -14.37655
 Alpha  occ. eigenvalues --  -14.36512 -14.35487 -10.34613 -10.34171 -10.31761
 Alpha  occ. eigenvalues --  -10.30264 -10.30253 -10.28196 -10.27747 -10.27608
 Alpha  occ. eigenvalues --  -10.27556 -10.26891 -10.26823 -10.26154 -10.26103
 Alpha  occ. eigenvalues --  -10.25975 -10.25674 -10.25466 -10.25189 -10.25182
 Alpha  occ. eigenvalues --  -10.25077 -10.24412 -10.24409 -10.24351 -10.24278
 Alpha  occ. eigenvalues --  -10.24229 -10.23994 -10.23934 -10.23854 -10.23833
 Alpha  occ. eigenvalues --  -10.23763 -10.23669 -10.23576 -10.23208 -10.23109
 Alpha  occ. eigenvalues --  -10.22667 -10.22464 -10.22358 -10.22352 -10.22224
 Alpha  occ. eigenvalues --  -10.22120 -10.22114 -10.21822 -10.21773 -10.21634
 Alpha  occ. eigenvalues --  -10.21623 -10.21405 -10.21214 -10.21142 -10.20789
 Alpha  occ. eigenvalues --  -10.20715 -10.20370 -10.20221 -10.20001 -10.19961
 Alpha  occ. eigenvalues --  -10.19810  -3.09887  -1.84835  -1.84380  -1.84268
 Alpha  occ. eigenvalues --   -1.17175  -1.14201  -1.08323  -1.07576  -1.07042
 Alpha  occ. eigenvalues --   -1.06333  -1.03273  -1.00356  -0.99486  -0.99253
 Alpha  occ. eigenvalues --   -0.98382  -0.88373  -0.86614  -0.86217  -0.86169
 Alpha  occ. eigenvalues --   -0.85578  -0.84778  -0.84570  -0.83520  -0.83353
 Alpha  occ. eigenvalues --   -0.82860  -0.82442  -0.81465  -0.80700  -0.80159
 Alpha  occ. eigenvalues --   -0.79640  -0.78788  -0.77892  -0.77146  -0.76209
 Alpha  occ. eigenvalues --   -0.74939  -0.74757  -0.74229  -0.73129  -0.71950
 Alpha  occ. eigenvalues --   -0.71074  -0.70852  -0.70191  -0.70121  -0.69548
 Alpha  occ. eigenvalues --   -0.68622  -0.68479  -0.67415  -0.66981  -0.66693
 Alpha  occ. eigenvalues --   -0.66219  -0.64204  -0.63631  -0.62205  -0.62112
 Alpha  occ. eigenvalues --   -0.61849  -0.60771  -0.59907  -0.59494  -0.59421
 Alpha  occ. eigenvalues --   -0.58841  -0.58081  -0.57619  -0.57319  -0.56904
 Alpha  occ. eigenvalues --   -0.56297  -0.55762  -0.55481  -0.55244  -0.54905
 Alpha  occ. eigenvalues --   -0.54080  -0.53575  -0.52916  -0.52591  -0.52421
 Alpha  occ. eigenvalues --   -0.52300  -0.51739  -0.51441  -0.51376  -0.50828
 Alpha  occ. eigenvalues --   -0.50356  -0.49610  -0.49304  -0.49160  -0.48816
 Alpha  occ. eigenvalues --   -0.48800  -0.48560  -0.48062  -0.47987  -0.47776
 Alpha  occ. eigenvalues --   -0.47379  -0.47228  -0.47052  -0.46805  -0.46616
 Alpha  occ. eigenvalues --   -0.46502  -0.46321  -0.46295  -0.45997  -0.45721
 Alpha  occ. eigenvalues --   -0.45563  -0.45495  -0.45367  -0.45135  -0.45007
 Alpha  occ. eigenvalues --   -0.44751  -0.44500  -0.43951  -0.43821  -0.43709
 Alpha  occ. eigenvalues --   -0.43634  -0.43531  -0.43340  -0.43103  -0.43002
 Alpha  occ. eigenvalues --   -0.42818  -0.42556  -0.42490  -0.42044  -0.41860
 Alpha  occ. eigenvalues --   -0.41791  -0.41386  -0.41085  -0.41002  -0.40872
 Alpha  occ. eigenvalues --   -0.40775  -0.40533  -0.40324  -0.40087  -0.39946
 Alpha  occ. eigenvalues --   -0.39782  -0.39606  -0.39422  -0.39317  -0.38871
 Alpha  occ. eigenvalues --   -0.38789  -0.38675  -0.38439  -0.38389  -0.38283
 Alpha  occ. eigenvalues --   -0.38212  -0.37853  -0.37538  -0.37381  -0.37315
 Alpha  occ. eigenvalues --   -0.36539  -0.36363  -0.36122  -0.35860  -0.35779
 Alpha  occ. eigenvalues --   -0.35616  -0.35585  -0.35363  -0.34730  -0.34644
 Alpha  occ. eigenvalues --   -0.34103  -0.33844  -0.33603  -0.33261  -0.33206
 Alpha  occ. eigenvalues --   -0.32556  -0.32276  -0.32136  -0.31692  -0.31572
 Alpha  occ. eigenvalues --   -0.30830  -0.30766  -0.30342  -0.30174  -0.29697
 Alpha  occ. eigenvalues --   -0.28905  -0.28254  -0.27864  -0.27644  -0.27324
 Alpha  occ. eigenvalues --   -0.27199  -0.26709  -0.23177  -0.21447
 Alpha virt. eigenvalues --   -0.08764  -0.06417  -0.02021  -0.00661   0.00675
 Alpha virt. eigenvalues --    0.02807   0.03155   0.03783   0.04076   0.04534
 Alpha virt. eigenvalues --    0.05906   0.05954   0.06317   0.08046   0.08898

 Mulliken charges:
               1
     1  Mg   0.813330
     2  C    0.075274
     3  C   -0.183735
     4  C   -0.180938
     5  C   -0.130044
     6  N   -0.631009
     7  C    0.300084
     8  C   -0.195736
     9  C   -0.151049
    10  C    0.357149
    11  C   -0.299433
    12  C   -0.133199
    13  C   -0.283218
    14  C    0.597123
    15  O   -0.427610
    16  O   -0.493081
    17  N   -0.749319
    18  C    0.376253
    19  C    0.012975
    20  C   -0.006894
    21  C    0.309191
    22  C   -0.400870
    23  C    0.243491
    24  O   -0.413028
    25  N   -0.665072
    26  C    0.325399
    27  C   -0.021285
    28  C    0.044459
    29  C    0.246394
    30  C    0.259185
    31  C   -0.244393
    32  C   -0.302064
    33  N   -0.746776
    34  C    0.265107
    35  C    0.048107
    36  C   -0.048373
    37  C    0.337954
    38  C   -0.402975
    39  C    0.361556
    40  O   -0.436704
    41  C   -0.351371
    42  C    0.630331
    43  O   -0.514112
    44  O   -0.386801
    45  C   -0.104374
    46  C   -0.003559
    47  C   -0.129538
    48  C    0.178978
    49  C   -0.388291
    50  C   -0.223531
    51  C   -0.141220
    52  C   -0.162754
    53  C   -0.040347
    54  C   -0.323191
    55  C   -0.152953
    56  C   -0.204719
    57  C   -0.155538
    58  C   -0.066922
    59  C   -0.280940
    60  C   -0.160804
    61  C   -0.200969
    62  C   -0.159537
    63  C   -0.060203
    64  C   -0.291314
    65  C   -0.297092
    66  H    0.075924
    67  H    0.132983
    68  H    0.080942
    69  H    0.129308
    70  H    0.106392
    71  H    0.109819
    72  H    0.105401
    73  H    0.140488
    74  H    0.121065
    75  H    0.119915
    76  H    0.127330
    77  H    0.147119
    78  H    0.105300
    79  H    0.158416
    80  H    0.124268
    81  H    0.066383
    82  H    0.122025
    83  H    0.107176
    84  H    0.123845
    85  H    0.077087
    86  H    0.129498
    87  H    0.137826
    88  H    0.132487
    89  H    0.131660
    90  H    0.161985
    91  H    0.094113
    92  H    0.119273
    93  H    0.098185
    94  H    0.143726
    95  H    0.109798
    96  H    0.133887
    97  H    0.083081
    98  H    0.074216
    99  H    0.064812
   100  H    0.050538
   101  H    0.081362
   102  H    0.091035
   103  H    0.097306
   104  H    0.087079
   105  H    0.103609
   106  H    0.105420
   107  H    0.060943
   108  H    0.103975
   109  H    0.075638
   110  H    0.081407
   111  H    0.104765
   112  H    0.101327
   113  H    0.075697
   114  H    0.090630
   115  H    0.064215
   116  H    0.096718
   117  H    0.090758
   118  H    0.090158
   119  H    0.058835
   120  H    0.104098
   121  H    0.096168
   122  H    0.090664
   123  H    0.097618
   124  H    0.100981
   125  H    0.090582
   126  H    0.086934
   127  H    0.094501
   128  H    0.093015
   129  H    0.075396
   130  H    0.124228
   131  H    0.132220
   132  H    0.120973
   133  O   -0.410606
   134  H    0.060624
 Sum of Mulliken charges =   0.00000

 Dipole moment (field-independent basis, Debye):
    X=              1.2320    Y=             -4.2315    Z=             -1.3646  Tot=              4.6136
 Quadrupole moment (field-independent basis, Debye-Ang):
   XX=           -375.6323   YY=           -437.3435   ZZ=           -395.5597
   XY=             -1.0433   XZ=             32.0731   YZ=            -37.1710

 Normal termination of Gaussian 09 at Fri Oct  4 19:27:43 2019.
