 Gaussian 09, Revision D.01,
 Gaussian 09:  ES64L-G09RevD.01 24-Apr-2013

 ----------------------------------------------------------------------
 # td=(NStates=1) iop(3/107=0140000000,3/108=0140000000) iop(3/107=0140
 000000,3/108=0140000000) CAM-B3LYP/6-31G(d,p)
 ----------------------------------------------------------------------

 --
 TD
 --
 Symbolic Z-matrix:
 Charge =  0 Multiplicity = 1

                         Standard orientation:
 ---------------------------------------------------------------------
 Center     Atomic      Atomic             Coordinates (Angstroms)
 Number     Number       Type             X           Y           Z
 ---------------------------------------------------------------------
      1         12           0       -5.646782    1.220181    0.172676
      2          6           0       -5.019944   -2.164661   -0.370047
      3          6           0       -3.519794    1.181891    2.787823
      4          6           0       -6.275178    4.519992    0.654606
      5          6           0       -7.946317    1.154969   -2.395375
      6          7           0       -4.431809   -0.257505    0.976947
      7          6           0       -4.222950   -1.625915    0.654700
      8          6           0       -3.161394   -2.302854    1.390208
      9          6           0       -2.913148   -1.380917    2.624335
     10          6           0       -3.674330   -0.078886    2.114286
     11          6           0       -3.450666   -1.872177    3.975615
     12          6           0       -2.005230   -2.691439    0.564454
     13          6           0       -0.988181   -3.444265    1.385667
     14          6           0        0.224010   -3.913502    0.632330
     15          8           0        0.569857   -3.522017   -0.504480
     16          8           0        0.989800   -4.767714    1.342927
     17          7           0       -4.905045    2.648596    1.465721
     18          6           0       -3.998705    2.409586    2.537845
     19          6           0       -3.882570    3.636787    3.312904
     20          6           0       -4.574948    4.570850    2.635905
     21          6           0       -5.277844    3.943748    1.535279
     22          6           0       -2.940672    3.829300    4.496923
     23          6           0       -4.708032    5.968649    2.983086
     24          8           0       -4.147444    6.595882    3.961561
     25          7           0       -6.770281    2.544854   -0.795752
     26          6           0       -6.952861    3.909831   -0.398814
     27          6           0       -7.849049    4.557625   -1.269116
     28          6           0       -8.418957    3.680232   -2.045498
     29          6           0       -7.651341    2.440681   -1.803435
     30          6           0       -8.174777    6.043895   -1.143996
     31          6           0       -9.484958    3.890187   -3.176406
     32          6           0       -8.735015    4.009307   -4.549785
     33          7           0       -6.298459   -0.110197   -1.151876
     34          6           0       -7.272672   -0.015711   -2.201287
     35          6           0       -7.520739   -1.290450   -2.804385
     36          6           0       -6.640089   -2.085246   -2.097528
     37          6           0       -5.946099   -1.313413   -1.101935
     38          6           0       -8.496420   -1.646454   -3.878771
     39          6           0       -6.216882   -3.450065   -2.071918
     40          8           0       -6.510678   -4.408143   -2.737674
     41          6           0       -5.008429   -3.582993   -0.906582
     42          6           0       -5.210753   -4.617628    0.031679
     43          8           0       -5.693560   -4.466056    1.119591
     44          8           0       -4.775919   -5.928325   -0.410588
     45          6           0       -5.234344   -6.981040    0.357357
     46          6           0        2.259339   -5.165628    0.723083
     47          6           0        3.348955   -4.203258    1.149952
     48          6           0        4.007091   -3.403527    0.368626
     49          6           0        3.720731   -3.212697   -1.126906
     50          6           0        5.263408   -2.502541    0.848457
     51          6           0        6.563896   -2.781541    0.116950
     52          6           0        7.627033   -1.868475    0.687123
     53          6           0        8.932890   -2.028545   -0.042418
     54          6           0        9.559930   -3.412953    0.204494
     55          6           0        9.902642   -0.810465    0.454299
     56          6           0       11.227086   -0.822338   -0.380729
     57          6           0       12.151019    0.425724    0.050223
     58          6           0       13.516505    0.527894   -0.628641
     59          6           0       14.405201   -0.682827   -0.354964
     60          6           0       14.184174    1.911045   -0.223391
     61          6           0       15.518041    2.208878   -0.969565
     62          6           0       16.092488    3.602836   -0.624248
     63          6           0       17.378235    3.997120   -1.338388
     64          6           0       17.160945    3.950984   -2.979360
     65          6           0       17.891516    5.251926   -0.831979
     66          1           0       -3.008154    1.142295    3.718752
     67          1           0       -6.501049    5.640474    0.918235
     68          1           0       -8.866423    1.247758   -3.107208
     69          1           0       -3.638100   -3.115134    1.810268
     70          1           0       -1.919565   -1.148470    2.516139
     71          1           0       -2.789520   -2.809362    4.396347
     72          1           0       -3.316568   -1.000262    4.883234
     73          1           0       -4.629648   -2.094926    4.112738
     74          1           0       -2.445751   -3.369452   -0.230258
     75          1           0       -1.513815   -1.801890    0.056114
     76          1           0       -0.591943   -2.928683    2.280912
     77          1           0       -1.541027   -4.332313    1.686843
     78          1           0       -1.931315    3.652067    4.320522
     79          1           0       -3.188332    4.750884    4.985678
     80          1           0       -3.281345    2.988774    5.176127
     81          1           0       -5.374753    6.590146    2.288652
     82          1           0      -10.082584    2.976037   -3.247347
     83          1           0      -10.021020    4.791685   -3.064274
     84          1           0       -9.520160    4.353109   -5.167331
     85          1           0       -7.938619    4.827504   -4.494056
     86          1           0       -8.264700    3.118136   -4.766059
     87          1           0       -8.378253   -1.050192   -4.766091
     88          1           0       -8.558397   -2.789651   -4.017367
     89          1           0       -9.642931   -1.497753   -3.510177
     90          1           0       -4.202902   -3.748357   -1.502826
     91          1           0        2.500670   -6.212471    0.934003
     92          1           0        2.354573   -5.026911   -0.416784
     93          1           0        3.759502   -4.164216    2.300081
     94          1           0        2.699384   -3.432243   -1.125893
     95          1           0        3.773139   -2.067668   -1.165783
     96          1           0        4.248347   -3.930940   -1.741881
     97          1           0        5.217817   -1.280307    0.845257
     98          1           0        5.500105   -2.750166    1.947464
     99          1           0        6.914895   -3.855156    0.412068
    100          1           0        6.581866   -2.621832   -1.098176
    101          1           0        7.271371   -0.885671    0.677667
    102          1           0        7.774145   -2.117903    1.847575
    103          1           0        8.775963   -1.829374   -1.107715
    104          1           0        8.910315   -4.085953   -0.123771
    105          1           0       10.301862   -3.544901   -0.388103
    106          1           0       10.074460   -3.694926    1.258749
    107          1           0        9.424659    0.161722    0.366478
    108          1           0       10.184533   -1.097730    1.538264
    109          1           0       11.801856   -1.741967   -0.364390
    110          1           0       10.893384   -0.753341   -1.404187
    111          1           0       11.454137    1.436728   -0.200566
    112          1           0       12.174458    0.422315    1.297121
    113          1           0       13.510781    0.461743   -1.621848
    114          1           0       14.246021   -0.907945    0.622593
    115          1           0       13.957800   -1.633311   -0.799323
    116          1           0       15.542614   -0.647452   -0.609123
    117          1           0       13.483603    2.782475   -0.349402
    118          1           0       14.390884    1.745543    0.950323
    119          1           0       16.314701    1.373895   -0.980195
    120          1           0       15.383857    2.256346   -2.048410
    121          1           0       15.283933    4.458558   -0.914500
    122          1           0       16.061680    3.744462    0.338259
    123          1           0       17.981606    3.077687   -1.139601
    124          1           0       16.416759    4.797016   -3.203936
    125          1           0       18.047747    4.210171   -3.591137
    126          1           0       16.863678    3.022554   -3.329496
    127          1           0       17.950549    5.330763    0.174817
    128          1           0       18.807664    5.504246   -1.230295
    129          1           0       17.222104    6.088955   -1.239205
    130          1           0       -5.073138   -8.204554   -0.121044
    131          1           0       -6.249818   -6.844193    0.442356
    132          1           0       -4.598477   -7.065086    1.270139
    133          8           0       -7.778416    6.855814   -0.418231
    134          1           0       -8.988812    6.201514   -1.924712
 ---------------------------------------------------------------------

 SCF Done:  E(RCAM-B3LYP) =  -3043.48407107     A.U. after   16 cycles

 Excitation energies and oscillator strengths:

 Excited State   1:      Singlet-A      1.9028 eV  651.59 nm  f=0.2361  <S**2>=0.000
     243 -> 246        0.18976
     244 -> 245        0.67816
 This state for optimization and/or second-order correction.
 Total Energy, E(TD-HF/TD-KS) =  -3043.41414421
 Copying the excited state density for this state as the 1-particle RhoCI density.

 The electronic state is 1-A.
 Alpha  occ. eigenvalues --  -46.80943 -19.23290 -19.20989 -19.19377 -19.17909
 Alpha  occ. eigenvalues --  -19.17861 -19.17088 -19.16594 -14.39872 -14.37236
 Alpha  occ. eigenvalues --  -14.37073 -14.36591 -10.35661 -10.35120 -10.32009
 Alpha  occ. eigenvalues --  -10.31700 -10.30407 -10.28737 -10.28608 -10.27605
 Alpha  occ. eigenvalues --  -10.27447 -10.26815 -10.26677 -10.26556 -10.26536
 Alpha  occ. eigenvalues --  -10.26205 -10.26200 -10.26122 -10.25670 -10.25322
 Alpha  occ. eigenvalues --  -10.25163 -10.24768 -10.24673 -10.24600 -10.24565
 Alpha  occ. eigenvalues --  -10.24497 -10.24328 -10.24236 -10.24228 -10.24092
 Alpha  occ. eigenvalues --  -10.23718 -10.23450 -10.23143 -10.22936 -10.22792
 Alpha  occ. eigenvalues --  -10.22626 -10.22475 -10.22427 -10.22358 -10.22132
 Alpha  occ. eigenvalues --  -10.21895 -10.21888 -10.21800 -10.21694 -10.21493
 Alpha  occ. eigenvalues --  -10.21366 -10.20943 -10.20744 -10.20671 -10.20481
 Alpha  occ. eigenvalues --  -10.20473 -10.20057 -10.19999 -10.19755 -10.18842
 Alpha  occ. eigenvalues --  -10.18609  -3.09776  -1.84693  -1.84274  -1.84188
 Alpha  occ. eigenvalues --   -1.13085  -1.12454  -1.11824  -1.08300  -1.05261
 Alpha  occ. eigenvalues --   -1.03229  -1.02406  -1.02342  -1.00017  -0.99528
 Alpha  occ. eigenvalues --   -0.98643  -0.88590  -0.87767  -0.85650  -0.85617
 Alpha  occ. eigenvalues --   -0.85500  -0.84581  -0.84379  -0.84243  -0.83597
 Alpha  occ. eigenvalues --   -0.83301  -0.83087  -0.82130  -0.80324  -0.80060
 Alpha  occ. eigenvalues --   -0.79527  -0.78365  -0.77561  -0.76946  -0.76397
 Alpha  occ. eigenvalues --   -0.75554  -0.75330  -0.74433  -0.72576  -0.71456
 Alpha  occ. eigenvalues --   -0.71405  -0.71367  -0.70339  -0.69995  -0.69758
 Alpha  occ. eigenvalues --   -0.69036  -0.68310  -0.67510  -0.67237  -0.66719
 Alpha  occ. eigenvalues --   -0.66075  -0.64562  -0.64346  -0.63118  -0.61886
 Alpha  occ. eigenvalues --   -0.61192  -0.60595  -0.59890  -0.59316  -0.58862
 Alpha  occ. eigenvalues --   -0.58728  -0.58612  -0.58337  -0.58218  -0.57697
 Alpha  occ. eigenvalues --   -0.56359  -0.56174  -0.55510  -0.55306  -0.54602
 Alpha  occ. eigenvalues --   -0.54129  -0.53752  -0.53046  -0.52805  -0.52243
 Alpha  occ. eigenvalues --   -0.52164  -0.51877  -0.51592  -0.51005  -0.50519
 Alpha  occ. eigenvalues --   -0.49901  -0.49658  -0.49462  -0.49350  -0.49231
 Alpha  occ. eigenvalues --   -0.48887  -0.48690  -0.48514  -0.48234  -0.48156
 Alpha  occ. eigenvalues --   -0.47785  -0.47568  -0.47520  -0.47436  -0.46885
 Alpha  occ. eigenvalues --   -0.46691  -0.46671  -0.46377  -0.46019  -0.45915
 Alpha  occ. eigenvalues --   -0.45702  -0.45518  -0.45340  -0.44962  -0.44728
 Alpha  occ. eigenvalues --   -0.44646  -0.44570  -0.44561  -0.44120  -0.43902
 Alpha  occ. eigenvalues --   -0.43766  -0.43686  -0.43404  -0.43076  -0.42812
 Alpha  occ. eigenvalues --   -0.42623  -0.42487  -0.42363  -0.42160  -0.42056
 Alpha  occ. eigenvalues --   -0.41934  -0.41690  -0.41526  -0.41233  -0.41069
 Alpha  occ. eigenvalues --   -0.40919  -0.40707  -0.40540  -0.40356  -0.40296
 Alpha  occ. eigenvalues --   -0.40100  -0.40039  -0.39379  -0.39163  -0.38875
 Alpha  occ. eigenvalues --   -0.38833  -0.38801  -0.38644  -0.38403  -0.38317
 Alpha  occ. eigenvalues --   -0.38134  -0.37997  -0.37551  -0.37490  -0.37142
 Alpha  occ. eigenvalues --   -0.36615  -0.36389  -0.35997  -0.35841  -0.35724
 Alpha  occ. eigenvalues --   -0.35560  -0.35496  -0.35146  -0.34852  -0.34838
 Alpha  occ. eigenvalues --   -0.34647  -0.34316  -0.34047  -0.33895  -0.33030
 Alpha  occ. eigenvalues --   -0.32941  -0.32756  -0.32129  -0.32067  -0.31956
 Alpha  occ. eigenvalues --   -0.31200  -0.30999  -0.30619  -0.30505  -0.29785
 Alpha  occ. eigenvalues --   -0.29735  -0.29166  -0.28702  -0.28373  -0.28132
 Alpha  occ. eigenvalues --   -0.27824  -0.27208  -0.23768  -0.20888
 Alpha virt. eigenvalues --   -0.08736  -0.06084  -0.01915  -0.00744   0.00562
 Alpha virt. eigenvalues --    0.01760   0.02629   0.03083   0.03928   0.04723
 Alpha virt. eigenvalues --    0.04901   0.05874   0.07764   0.08018   0.08912

 Mulliken charges:
               1
     1  Mg   0.815702
     2  C    0.035002
     3  C   -0.206416
     4  C   -0.204516
     5  C   -0.185977
     6  N   -0.613584
     7  C    0.309182
     8  C   -0.153023
     9  C   -0.105632
    10  C    0.298883
    11  C   -0.302070
    12  C   -0.171345
    13  C   -0.264062
    14  C    0.603506
    15  O   -0.482239
    16  O   -0.454364
    17  N   -0.715078
    18  C    0.310855
    19  C    0.038174
    20  C    0.000878
    21  C    0.328973
    22  C   -0.364746
    23  C    0.215858
    24  O   -0.455374
    25  N   -0.672375
    26  C    0.285143
    27  C   -0.005226
    28  C   -0.002433
    29  C    0.269071
    30  C    0.292985
    31  C   -0.249102
    32  C   -0.304711
    33  N   -0.754502
    34  C    0.226765
    35  C    0.114071
    36  C   -0.014559
    37  C    0.416397
    38  C   -0.392233
    39  C    0.319531
    40  O   -0.437756
    41  C   -0.325356
    42  C    0.636911
    43  O   -0.455173
    44  O   -0.484799
    45  C   -0.046262
    46  C   -0.019133
    47  C   -0.122637
    48  C    0.116408
    49  C   -0.379486
    50  C   -0.216357
    51  C   -0.155886
    52  C   -0.147910
    53  C   -0.073097
    54  C   -0.298866
    55  C   -0.173352
    56  C   -0.189893
    57  C   -0.158604
    58  C   -0.041763
    59  C   -0.326623
    60  C   -0.162176
    61  C   -0.191811
    62  C   -0.143439
    63  C   -0.054461
    64  C   -0.325480
    65  C   -0.303047
    66  H    0.070937
    67  H    0.133870
    68  H    0.084128
    69  H    0.139000
    70  H    0.122091
    71  H    0.101824
    72  H    0.087478
    73  H    0.130263
    74  H    0.119336
    75  H    0.122540
    76  H    0.146054
    77  H    0.144302
    78  H    0.141151
    79  H    0.163772
    80  H    0.104475
    81  H    0.083493
    82  H    0.115769
    83  H    0.122254
    84  H    0.118497
    85  H    0.106766
    86  H    0.122998
    87  H    0.140565
    88  H    0.151881
    89  H    0.110424
    90  H    0.167738
    91  H    0.127321
    92  H    0.129184
    93  H    0.059966
    94  H    0.158603
    95  H    0.111015
    96  H    0.125606
    97  H    0.076225
    98  H    0.087180
    99  H    0.093906
   100  H    0.073717
   101  H    0.089884
   102  H    0.069795
   103  H    0.083026
   104  H    0.109105
   105  H    0.111695
   106  H    0.082020
   107  H    0.093326
   108  H    0.081060
   109  H    0.096284
   110  H    0.094055
   111  H    0.057507
   112  H    0.065546
   113  H    0.101861
   114  H    0.114073
   115  H    0.088525
   116  H    0.096400
   117  H    0.094211
   118  H    0.067709
   119  H    0.077693
   120  H    0.099322
   121  H    0.045605
   122  H    0.100407
   123  H    0.080034
   124  H    0.091885
   125  H    0.095566
   126  H    0.113891
   127  H    0.112005
   128  H    0.107461
   129  H    0.087186
   130  H    0.068819
   131  H    0.131709
   132  H    0.109205
   133  O   -0.373660
   134  H    0.035103
 Sum of Mulliken charges =   0.00000

 Dipole moment (field-independent basis, Debye):
    X=              0.1611    Y=             -3.7519    Z=             -1.6743  Tot=              4.1116
 Quadrupole moment (field-independent basis, Debye-Ang):
   XX=           -357.9158   YY=           -445.6285   ZZ=           -396.1526
   XY=             -5.5276   XZ=             23.4080   YZ=            -38.2090

 Normal termination of Gaussian 09 at Wed Oct  9 07:39:06 2019.
