 Gaussian 09, Revision D.01,
 Gaussian 09:  ES64L-G09RevD.01 24-Apr-2013

 ----------------------------------------------------------------------
 # td=(NStates=1) iop(3/107=0140000000,3/108=0140000000) iop(3/107=0140
 000000,3/108=0140000000) CAM-B3LYP/6-31G(d,p)
 ----------------------------------------------------------------------

 --
 TD
 --
 Symbolic Z-matrix:
 Charge =  0 Multiplicity = 1

                         Standard orientation:
 ---------------------------------------------------------------------
 Center     Atomic      Atomic             Coordinates (Angstroms)
 Number     Number       Type             X           Y           Z
 ---------------------------------------------------------------------
      1         12           0       -5.678648    1.269101    0.126650
      2          6           0       -5.016492   -2.146126   -0.421430
      3          6           0       -3.500640    1.168658    2.749272
      4          6           0       -6.245308    4.516788    0.579711
      5          6           0       -8.130240    1.038440   -2.285423
      6          7           0       -4.307112   -0.284105    0.941012
      7          6           0       -4.140039   -1.639927    0.667445
      8          6           0       -3.175055   -2.319560    1.419626
      9          6           0       -2.830219   -1.278335    2.625878
     10          6           0       -3.603094   -0.047160    2.121282
     11          6           0       -3.388857   -1.669585    4.018648
     12          6           0       -1.914138   -2.569321    0.551990
     13          6           0       -0.926033   -3.487450    1.392342
     14          6           0        0.316276   -3.765320    0.579479
     15          8           0        0.651141   -3.384162   -0.508245
     16          8           0        1.013642   -4.598673    1.279282
     17          7           0       -4.990165    2.539316    1.464186
     18          6           0       -4.054240    2.453087    2.497399
     19          6           0       -3.829426    3.662200    3.137918
     20          6           0       -4.606087    4.633635    2.587071
     21          6           0       -5.350578    3.881995    1.554604
     22          6           0       -2.917151    3.948223    4.388733
     23          6           0       -4.780012    6.043957    3.002863
     24          8           0       -4.069609    6.689938    3.722093
     25          7           0       -7.052341    2.495996   -0.693272
     26          6           0       -7.017831    3.887897   -0.355677
     27          6           0       -8.058971    4.546113   -1.227268
     28          6           0       -8.565123    3.472088   -2.017354
     29          6           0       -7.875721    2.286861   -1.635204
     30          6           0       -8.478090    5.969702   -1.236042
     31          6           0       -9.528535    3.745051   -3.224045
     32          6           0       -8.865064    3.873833   -4.589509
     33          7           0       -6.334682   -0.189824   -1.116646
     34          6           0       -7.411785   -0.129617   -2.126022
     35          6           0       -7.515052   -1.370235   -2.671513
     36          6           0       -6.629294   -2.219845   -2.101761
     37          6           0       -5.887781   -1.401710   -1.161112
     38          6           0       -8.501978   -1.844649   -3.674642
     39          6           0       -6.092873   -3.593625   -2.105925
     40          8           0       -6.577213   -4.586790   -2.638839
     41          6           0       -5.035127   -3.567670   -0.990413
     42          6           0       -5.334828   -4.618501    0.066111
     43          8           0       -5.787344   -4.346723    1.232277
     44          8           0       -4.875235   -5.912723   -0.342831
     45          6           0       -5.118158   -6.870541    0.564609
     46          6           0        2.401317   -5.042653    0.747127
     47          6           0        3.422149   -4.038501    1.069800
     48          6           0        4.064669   -3.140049    0.252095
     49          6           0        3.648518   -3.121479   -1.254590
     50          6           0        5.109693   -2.307724    0.764210
     51          6           0        6.525702   -2.581404    0.217269
     52          6           0        7.612977   -1.627629    0.674816
     53          6           0        9.002945   -1.872793    0.165094
     54          6           0        9.524537   -3.281460    0.508893
     55          6           0        9.984632   -0.781175    0.532712
     56          6           0       11.381656   -0.803725   -0.379818
     57          6           0       12.294269    0.282095    0.119994
     58          6           0       13.554283    0.471466   -0.614683
     59          6           0       14.407782   -0.819075   -0.436067
     60          6           0       14.295961    1.774961   -0.241297
     61          6           0       15.657805    2.165248   -1.133021
     62          6           0       16.038416    3.595880   -0.783464
     63          6           0       17.351142    3.827012   -1.445864
     64          6           0       17.136672    3.991038   -2.948504
     65          6           0       18.150183    5.057560   -0.823142
     66          1           0       -2.969109    1.097153    3.614471
     67          1           0       -6.610095    5.498824    0.534636
     68          1           0       -8.967987    1.111939   -3.076895
     69          1           0       -3.419300   -3.428001    1.773683
     70          1           0       -1.726271   -1.120969    2.689029
     71          1           0       -2.751208   -2.607396    4.287303
     72          1           0       -3.021334   -0.954196    4.708054
     73          1           0       -4.255745   -2.040527    3.706066
     74          1           0       -2.263570   -3.156527   -0.269487
     75          1           0       -1.286876   -1.634734    0.542931
     76          1           0       -0.392979   -3.181575    2.568290
     77          1           0       -1.309099   -4.350410    1.440187
     78          1           0       -1.717052    4.120135    3.949642
     79          1           0       -3.156537    4.942682    4.811551
     80          1           0       -3.038466    2.941231    5.147662
     81          1           0       -5.572765    6.671260    2.626250
     82          1           0      -10.172454    2.836161   -3.210521
     83          1           0      -10.222215    4.579768   -2.897592
     84          1           0       -9.662560    4.009119   -5.467540
     85          1           0       -8.029874    4.628730   -4.702471
     86          1           0       -8.211839    2.902461   -4.795711
     87          1           0       -8.483865   -1.187222   -4.580544
     88          1           0       -8.274052   -2.881825   -3.957692
     89          1           0       -9.557762   -1.688999   -3.157428
     90          1           0       -4.145860   -3.914827   -1.406560
     91          1           0        2.590718   -6.078545    1.298587
     92          1           0        2.389687   -5.363470   -0.198915
     93          1           0        3.654731   -3.775553    2.036907
     94          1           0        2.631564   -3.735371   -1.402314
     95          1           0        3.556398   -2.095847   -1.706220
     96          1           0        4.413707   -3.644377   -1.906220
     97          1           0        4.721646   -1.258134    0.557672
     98          1           0        5.171513   -2.434007    1.742141
     99          1           0        6.888014   -3.657072    0.389673
    100          1           0        6.252847   -2.484444   -0.916927
    101          1           0        7.067731   -0.614620    0.635683
    102          1           0        7.627310   -1.797224    1.805607
    103          1           0        8.822139   -1.839436   -0.955122
    104          1           0        9.034416   -4.109377    0.138892
    105          1           0       10.468528   -3.334021    0.174830
    106          1           0        9.712497   -3.238180    1.805134
    107          1           0        9.732132    0.188499    0.191200
    108          1           0       10.250157   -0.948518    1.526384
    109          1           0       11.792292   -1.802385   -0.429325
    110          1           0       11.060042   -0.655352   -1.491487
    111          1           0       11.708495    1.234837    0.009470
    112          1           0       12.540276    0.131180    1.175626
    113          1           0       13.359877    0.495169   -1.677062
    114          1           0       14.657999   -1.110487    0.573184
    115          1           0       14.137232   -1.692379   -0.723157
    116          1           0       15.424089   -0.825830   -0.920290
    117          1           0       13.431496    2.598160   -0.107325
    118          1           0       14.758164    1.696907    0.757703
    119          1           0       16.615133    1.465740   -0.835866
    120          1           0       15.429360    1.922584   -2.165996
    121          1           0       15.275758    4.383732   -1.072753
    122          1           0       16.252166    3.546734    0.266951
    123          1           0       18.054020    2.960342   -1.274849
    124          1           0       16.506063    4.844662   -3.125633
    125          1           0       18.118700    4.120186   -3.574344
    126          1           0       16.787210    2.878546   -3.219887
    127          1           0       18.338571    4.904818    0.254820
    128          1           0       19.042491    5.341002   -1.407556
    129          1           0       17.398431    6.003360   -0.843069
    130          1           0       -4.651549   -7.875359    0.044435
    131          1           0       -6.222544   -7.137506    0.873548
    132          1           0       -4.516913   -6.714882    1.511658
    133          8           0       -7.919030    6.716656   -0.533352
    134          1           0       -8.967231    6.512944   -2.102145
 ---------------------------------------------------------------------

 SCF Done:  E(RCAM-B3LYP) =  -3043.40908879     A.U. after   16 cycles

 Excitation energies and oscillator strengths:

 Excited State   1:      Singlet-A      1.9795 eV  626.33 nm  f=0.1771  <S**2>=0.000
     243 -> 246       -0.25335
     244 -> 245        0.64623
 This state for optimization and/or second-order correction.
 Total Energy, E(TD-HF/TD-KS) =  -3043.33634262
 Copying the excited state density for this state as the 1-particle RhoCI density.

 The electronic state is 1-A.
 Alpha  occ. eigenvalues --  -46.81180 -19.23981 -19.21655 -19.19093 -19.17930
 Alpha  occ. eigenvalues --  -19.17802 -19.16780 -19.16003 -14.39015 -14.37329
 Alpha  occ. eigenvalues --  -14.36772 -14.35922 -10.37054 -10.33675 -10.32220
 Alpha  occ. eigenvalues --  -10.31008 -10.29862 -10.28688 -10.28454 -10.28366
 Alpha  occ. eigenvalues --  -10.27157 -10.26577 -10.26416 -10.26196 -10.26139
 Alpha  occ. eigenvalues --  -10.25896 -10.25399 -10.24938 -10.24915 -10.24909
 Alpha  occ. eigenvalues --  -10.24879 -10.24804 -10.24651 -10.24421 -10.24381
 Alpha  occ. eigenvalues --  -10.24351 -10.24197 -10.24152 -10.24033 -10.23807
 Alpha  occ. eigenvalues --  -10.23594 -10.23521 -10.23214 -10.23172 -10.22997
 Alpha  occ. eigenvalues --  -10.22641 -10.22441 -10.22283 -10.22183 -10.22021
 Alpha  occ. eigenvalues --  -10.21758 -10.21725 -10.21681 -10.21624 -10.21598
 Alpha  occ. eigenvalues --  -10.21473 -10.21342 -10.21235 -10.21191 -10.21057
 Alpha  occ. eigenvalues --  -10.20934 -10.20772 -10.20740 -10.20613 -10.20552
 Alpha  occ. eigenvalues --  -10.18464  -3.09868  -1.84793  -1.84353  -1.84280
 Alpha  occ. eigenvalues --   -1.13814  -1.13471  -1.10914  -1.07707  -1.07233
 Alpha  occ. eigenvalues --   -1.04222  -1.03957  -1.01047  -1.00129  -0.99329
 Alpha  occ. eigenvalues --   -0.98441  -0.88819  -0.86997  -0.86081  -0.85593
 Alpha  occ. eigenvalues --   -0.85243  -0.84789  -0.84277  -0.83936  -0.83692
 Alpha  occ. eigenvalues --   -0.83554  -0.82991  -0.81910  -0.80713  -0.79842
 Alpha  occ. eigenvalues --   -0.78496  -0.77646  -0.77254  -0.77006  -0.75979
 Alpha  occ. eigenvalues --   -0.75063  -0.74407  -0.73814  -0.72034  -0.71754
 Alpha  occ. eigenvalues --   -0.71486  -0.71196  -0.70180  -0.69775  -0.69397
 Alpha  occ. eigenvalues --   -0.69185  -0.68903  -0.67299  -0.66854  -0.66128
 Alpha  occ. eigenvalues --   -0.65678  -0.65165  -0.64046  -0.62398  -0.62203
 Alpha  occ. eigenvalues --   -0.61264  -0.60798  -0.60531  -0.59529  -0.59407
 Alpha  occ. eigenvalues --   -0.59041  -0.58364  -0.57779  -0.57577  -0.57552
 Alpha  occ. eigenvalues --   -0.56800  -0.56183  -0.55639  -0.55120  -0.54824
 Alpha  occ. eigenvalues --   -0.54240  -0.53752  -0.53111  -0.52885  -0.52278
 Alpha  occ. eigenvalues --   -0.52085  -0.51800  -0.51518  -0.51227  -0.51001
 Alpha  occ. eigenvalues --   -0.50560  -0.50273  -0.50035  -0.49612  -0.49462
 Alpha  occ. eigenvalues --   -0.48998  -0.48933  -0.48498  -0.48406  -0.47910
 Alpha  occ. eigenvalues --   -0.47567  -0.47284  -0.47021  -0.46807  -0.46752
 Alpha  occ. eigenvalues --   -0.46455  -0.46375  -0.46056  -0.45974  -0.45922
 Alpha  occ. eigenvalues --   -0.45826  -0.45489  -0.45186  -0.44966  -0.44735
 Alpha  occ. eigenvalues --   -0.44556  -0.44116  -0.44014  -0.43921  -0.43844
 Alpha  occ. eigenvalues --   -0.43532  -0.43112  -0.43012  -0.42986  -0.42939
 Alpha  occ. eigenvalues --   -0.42635  -0.42334  -0.42198  -0.42131  -0.41831
 Alpha  occ. eigenvalues --   -0.41400  -0.41255  -0.41079  -0.40920  -0.40816
 Alpha  occ. eigenvalues --   -0.40699  -0.40514  -0.40359  -0.40071  -0.39856
 Alpha  occ. eigenvalues --   -0.39838  -0.39425  -0.39321  -0.38992  -0.38813
 Alpha  occ. eigenvalues --   -0.38531  -0.38253  -0.37972  -0.37848  -0.37637
 Alpha  occ. eigenvalues --   -0.37519  -0.37289  -0.37269  -0.37114  -0.36869
 Alpha  occ. eigenvalues --   -0.36805  -0.36599  -0.36483  -0.36401  -0.36050
 Alpha  occ. eigenvalues --   -0.35582  -0.35242  -0.35056  -0.35030  -0.34776
 Alpha  occ. eigenvalues --   -0.34315  -0.34221  -0.34155  -0.34086  -0.33423
 Alpha  occ. eigenvalues --   -0.33319  -0.33187  -0.32366  -0.32209  -0.31975
 Alpha  occ. eigenvalues --   -0.31624  -0.31191  -0.30559  -0.30079  -0.29708
 Alpha  occ. eigenvalues --   -0.29010  -0.28644  -0.28395  -0.28132  -0.27861
 Alpha  occ. eigenvalues --   -0.27457  -0.26731  -0.22704  -0.21368
 Alpha virt. eigenvalues --   -0.08638  -0.06374  -0.02096  -0.00907   0.00005
 Alpha virt. eigenvalues --    0.01278   0.02049   0.03296   0.04145   0.04590
 Alpha virt. eigenvalues --    0.05003   0.05562   0.08103   0.08512   0.09500

 Mulliken charges:
               1
     1  Mg   0.838664
     2  C    0.066540
     3  C   -0.187010
     4  C   -0.139550
     5  C   -0.200593
     6  N   -0.613249
     7  C    0.365379
     8  C   -0.195821
     9  C   -0.171526
    10  C    0.335131
    11  C   -0.282987
    12  C   -0.170800
    13  C   -0.247698
    14  C    0.586752
    15  O   -0.479890
    16  O   -0.459762
    17  N   -0.696010
    18  C    0.311344
    19  C    0.040240
    20  C    0.006882
    21  C    0.246822
    22  C   -0.343589
    23  C    0.234138
    24  O   -0.403564
    25  N   -0.715717
    26  C    0.238702
    27  C   -0.031098
    28  C   -0.028658
    29  C    0.374716
    30  C    0.227184
    31  C   -0.223340
    32  C   -0.295818
    33  N   -0.749910
    34  C    0.295791
    35  C    0.014376
    36  C    0.027318
    37  C    0.338624
    38  C   -0.375012
    39  C    0.373161
    40  O   -0.448116
    41  C   -0.333164
    42  C    0.623348
    43  O   -0.471318
    44  O   -0.418930
    45  C   -0.076890
    46  C   -0.005058
    47  C   -0.122375
    48  C    0.151334
    49  C   -0.379133
    50  C   -0.225202
    51  C   -0.174216
    52  C   -0.148037
    53  C   -0.060573
    54  C   -0.294720
    55  C   -0.163282
    56  C   -0.214661
    57  C   -0.149450
    58  C   -0.047014
    59  C   -0.329269
    60  C   -0.178894
    61  C   -0.195752
    62  C   -0.131478
    63  C   -0.061826
    64  C   -0.289709
    65  C   -0.309727
    66  H    0.054830
    67  H    0.123120
    68  H    0.093009
    69  H    0.115873
    70  H    0.106182
    71  H    0.086765
    72  H    0.129060
    73  H    0.143960
    74  H    0.126393
    75  H    0.133864
    76  H    0.108883
    77  H    0.141863
    78  H    0.093381
    79  H    0.161302
    80  H    0.086187
    81  H    0.084491
    82  H    0.107872
    83  H    0.108738
    84  H    0.103246
    85  H    0.117660
    86  H    0.096062
    87  H    0.118550
    88  H    0.150568
    89  H    0.116820
    90  H    0.159780
    91  H    0.106657
    92  H    0.137021
    93  H    0.074279
    94  H    0.136342
    95  H    0.110139
    96  H    0.103779
    97  H    0.098398
    98  H    0.102515
    99  H    0.090790
   100  H    0.078158
   101  H    0.082168
   102  H    0.071524
   103  H    0.076067
   104  H    0.117280
   105  H    0.119114
   106  H    0.049698
   107  H    0.107796
   108  H    0.097969
   109  H    0.098817
   110  H    0.076509
   111  H    0.077188
   112  H    0.093920
   113  H    0.085703
   114  H    0.091794
   115  H    0.113075
   116  H    0.081831
   117  H    0.069252
   118  H    0.093682
   119  H    0.078646
   120  H    0.107421
   121  H    0.093791
   122  H    0.099210
   123  H    0.079115
   124  H    0.108328
   125  H    0.082926
   126  H    0.087940
   127  H    0.099597
   128  H    0.102965
   129  H    0.066572
   130  H    0.094653
   131  H    0.118358
   132  H    0.107723
   133  O   -0.366934
   134  H    0.073713
 Sum of Mulliken charges =   0.00000

 Dipole moment (field-independent basis, Debye):
    X=              2.6141    Y=             -3.8079    Z=             -1.3814  Tot=              4.8210
 Quadrupole moment (field-independent basis, Debye-Ang):
   XX=           -371.7803   YY=           -434.0524   ZZ=           -398.2581
   XY=            -14.1051   XZ=             24.2523   YZ=            -32.3487

 Normal termination of Gaussian 09 at Sat Oct  5 01:38:41 2019.
