 Gaussian 09, Revision D.01,
 Gaussian 09:  ES64L-G09RevD.01 24-Apr-2013

 ----------------------------------------------------------------------
 # td=(NStates=1) iop(3/107=0140000000,3/108=0140000000) iop(3/107=0140
 000000,3/108=0140000000) CAM-B3LYP/6-31G(d,p)
 ----------------------------------------------------------------------

 --
 TD
 --
 Symbolic Z-matrix:
 Charge =  0 Multiplicity = 1

                         Standard orientation:
 ---------------------------------------------------------------------
 Center     Atomic      Atomic             Coordinates (Angstroms)
 Number     Number       Type             X           Y           Z
 ---------------------------------------------------------------------
      1         12           0       -5.607180    1.238000    0.140625
      2          6           0       -5.024684   -2.118141   -0.297710
      3          6           0       -3.415356    1.099854    2.816260
      4          6           0       -6.113210    4.652959    0.691004
      5          6           0       -7.861523    1.220312   -2.509174
      6          7           0       -4.333945   -0.267674    1.074376
      7          6           0       -4.190262   -1.573502    0.665275
      8          6           0       -3.275684   -2.346827    1.539499
      9          6           0       -3.003412   -1.343303    2.709356
     10          6           0       -3.608394   -0.032969    2.172048
     11          6           0       -3.488150   -1.878835    4.050243
     12          6           0       -1.975867   -2.645554    0.636790
     13          6           0       -0.946962   -3.507543    1.449147
     14          6           0        0.312621   -3.828853    0.637992
     15          8           0        0.422581   -3.495764   -0.446987
     16          8           0        1.112099   -4.725448    1.283010
     17          7           0       -4.828036    2.606530    1.411454
     18          6           0       -3.877231    2.384807    2.385494
     19          6           0       -3.703379    3.668346    3.140590
     20          6           0       -4.435409    4.683206    2.494143
     21          6           0       -5.213248    3.951510    1.416072
     22          6           0       -2.836461    3.718630    4.280623
     23          6           0       -4.660209    6.096179    2.959625
     24          8           0       -4.082793    6.656953    3.895937
     25          7           0       -6.763929    2.652488   -0.758828
     26          6           0       -6.845014    3.974958   -0.385722
     27          6           0       -7.881244    4.670710   -1.190250
     28          6           0       -8.444486    3.759100   -2.069965
     29          6           0       -7.753094    2.484504   -1.767885
     30          6           0       -8.303379    6.021141   -1.083477
     31          6           0       -9.408600    3.941970   -3.232620
     32          6           0       -8.619399    3.901200   -4.552549
     33          7           0       -6.383148   -0.099717   -1.163477
     34          6           0       -7.262204   -0.047550   -2.184167
     35          6           0       -7.575731   -1.331071   -2.629224
     36          6           0       -6.606894   -2.184275   -2.049227
     37          6           0       -5.989117   -1.395367   -0.997774
     38          6           0       -8.532658   -1.677208   -3.846430
     39          6           0       -6.226890   -3.548117   -2.007427
     40          8           0       -6.629269   -4.534940   -2.647898
     41          6           0       -5.156703   -3.599963   -0.837340
     42          6           0       -5.506248   -4.596048    0.208262
     43          8           0       -6.017381   -4.493847    1.293275
     44          8           0       -5.050709   -5.861842   -0.190303
     45          6           0       -5.462320   -6.865838    0.638904
     46          6           0        2.364233   -5.067408    0.577157
     47          6           0        3.444862   -4.207797    0.863585
     48          6           0        4.095987   -3.366014    0.022161
     49          6           0        3.832782   -3.263390   -1.453962
     50          6           0        5.177735   -2.500105    0.547084
     51          6           0        6.551543   -2.749180   -0.099493
     52          6           0        7.581255   -1.850647    0.430485
     53          6           0        9.005890   -2.069598   -0.202726
     54          6           0        9.584764   -3.463416    0.151775
     55          6           0        9.958026   -0.919894    0.288307
     56          6           0       11.354464   -1.013282   -0.263565
     57          6           0       12.338478    0.116349    0.279499
     58          6           0       13.519413    0.374905   -0.614968
     59          6           0       14.459345   -0.799302   -0.411603
     60          6           0       14.247985    1.729187   -0.184346
     61          6           0       15.470574    2.143986   -0.940458
     62          6           0       16.000260    3.514084   -0.434358
     63          6           0       17.149613    4.081934   -1.231645
     64          6           0       16.884031    4.271101   -2.744116
     65          6           0       17.820029    5.492106   -0.753610
     66          1           0       -2.674843    1.364066    3.604477
     67          1           0       -6.148897    5.675247    0.701635
     68          1           0       -8.359595    1.279740   -3.415281
     69          1           0       -3.857655   -3.211555    1.745550
     70          1           0       -2.028949   -1.094785    2.634083
     71          1           0       -2.718553   -2.724560    4.321762
     72          1           0       -3.113646   -1.132326    4.840361
     73          1           0       -4.550969   -2.038511    3.945721
     74          1           0       -2.479878   -3.162685   -0.260928
     75          1           0       -1.598911   -1.641998    0.390345
     76          1           0       -0.572329   -3.093289    2.382035
     77          1           0       -1.426748   -4.480175    1.642647
     78          1           0       -1.935575    3.319103    4.054115
     79          1           0       -2.723676    4.875386    4.509957
     80          1           0       -3.344171    3.365908    5.208119
     81          1           0       -5.382536    6.824070    2.563835
     82          1           0      -10.044954    3.026804   -3.252330
     83          1           0       -9.895627    4.897457   -3.266937
     84          1           0       -9.127740    4.272591   -5.448547
     85          1           0       -8.074916    4.800890   -4.556458
     86          1           0       -8.051674    3.121520   -4.629186
     87          1           0       -8.018804   -1.246409   -4.775210
     88          1           0       -8.455013   -2.889668   -3.953250
     89          1           0       -9.639870   -1.466675   -3.734037
     90          1           0       -4.032255   -4.003005   -1.152844
     91          1           0        2.669762   -5.969900    1.252960
     92          1           0        2.043082   -5.452579   -0.310429
     93          1           0        3.722411   -4.412523    1.959038
     94          1           0        2.791251   -3.889542   -1.704155
     95          1           0        3.692822   -2.199143   -1.693628
     96          1           0        4.473348   -3.875665   -2.030871
     97          1           0        4.890450   -1.444694    0.619135
     98          1           0        5.262366   -2.738195    1.619483
     99          1           0        7.012318   -3.782996    0.008618
    100          1           0        6.451143   -2.575650   -1.127893
    101          1           0        7.235617   -0.709601    0.191395
    102          1           0        7.621118   -1.954321    1.475310
    103          1           0        9.122644   -1.788551   -1.237626
    104          1           0        8.639141   -4.276017   -0.051061
    105          1           0       10.374184   -3.569745   -0.704078
    106          1           0       10.034170   -3.564933    1.138722
    107          1           0        9.559410   -0.013605   -0.189547
    108          1           0        9.963818   -1.013066    1.401578
    109          1           0       11.913228   -1.964131    0.000155
    110          1           0       11.349960   -0.801217   -1.320228
    111          1           0       11.778710    1.148164    0.363963
    112          1           0       12.639442   -0.159893    1.194790
    113          1           0       13.194846    0.706953   -1.530919
    114          1           0       14.550343   -0.886611    0.541605
    115          1           0       14.134115   -1.688570   -0.807054
    116          1           0       15.385947   -0.621513   -0.867355
    117          1           0       13.425228    2.340348   -0.451769
    118          1           0       14.586140    1.634891    0.916802
    119          1           0       16.221296    1.314029   -0.726982
    120          1           0       15.192463    2.050751   -2.056046
    121          1           0       15.252080    4.241997   -0.582212
    122          1           0       16.174209    3.272110    0.651255
    123          1           0       18.022381    3.450249   -1.080939
    124          1           0       16.165398    4.964909   -2.779316
    125          1           0       17.811307    4.668842   -3.151387
    126          1           0       16.681489    3.367026   -3.144678
    127          1           0       18.107912    5.294998    0.257649
    128          1           0       18.667880    5.871872   -1.413448
    129          1           0       16.963617    6.183746   -0.781112
    130          1           0       -5.301706   -7.892302    0.250076
    131          1           0       -6.469615   -6.689856    1.046290
    132          1           0       -4.639308   -6.909412    1.587210
    133          8           0       -7.778728    6.865301   -0.326439
    134          1           0       -9.168284    6.343256   -1.803426
 ---------------------------------------------------------------------

 SCF Done:  E(RCAM-B3LYP) =  -3043.50857207     A.U. after   15 cycles

 Excitation energies and oscillator strengths:

 Excited State   1:      Singlet-A      2.0496 eV  604.92 nm  f=0.1991  <S**2>=0.000
     243 -> 245       -0.10256
     243 -> 246        0.26169
     244 -> 245        0.63841
 This state for optimization and/or second-order correction.
 Total Energy, E(TD-HF/TD-KS) =  -3043.43325134
 Copying the excited state density for this state as the 1-particle RhoCI density.

 The electronic state is 1-A.
 Alpha  occ. eigenvalues --  -46.81627 -19.21735 -19.20635 -19.18141 -19.17228
 Alpha  occ. eigenvalues --  -19.16940 -19.16926 -19.16846 -14.38903 -14.38177
 Alpha  occ. eigenvalues --  -14.37866 -14.36580 -10.35482 -10.33500 -10.31523
 Alpha  occ. eigenvalues --  -10.30998 -10.30668 -10.27940 -10.27644 -10.27623
 Alpha  occ. eigenvalues --  -10.27303 -10.27264 -10.27217 -10.27181 -10.26940
 Alpha  occ. eigenvalues --  -10.26499 -10.26118 -10.26035 -10.25714 -10.25661
 Alpha  occ. eigenvalues --  -10.25401 -10.25296 -10.24669 -10.24630 -10.24575
 Alpha  occ. eigenvalues --  -10.24363 -10.24361 -10.23679 -10.23594 -10.23363
 Alpha  occ. eigenvalues --  -10.23357 -10.23235 -10.23180 -10.23117 -10.23102
 Alpha  occ. eigenvalues --  -10.22774 -10.22240 -10.22116 -10.21756 -10.21743
 Alpha  occ. eigenvalues --  -10.21724 -10.21532 -10.21457 -10.21301 -10.21005
 Alpha  occ. eigenvalues --  -10.20995 -10.20899 -10.20893 -10.20678 -10.20500
 Alpha  occ. eigenvalues --  -10.20354 -10.20326 -10.20325 -10.19994 -10.17884
 Alpha  occ. eigenvalues --  -10.17384  -3.10229  -1.85169  -1.84724  -1.84614
 Alpha  occ. eigenvalues --   -1.14316  -1.14024  -1.06164  -1.05791  -1.05550
 Alpha  occ. eigenvalues --   -1.05344  -1.05067  -1.01187  -1.00330  -0.98967
 Alpha  occ. eigenvalues --   -0.97947  -0.88849  -0.86770  -0.86023  -0.85972
 Alpha  occ. eigenvalues --   -0.85422  -0.85190  -0.84550  -0.84042  -0.83416
 Alpha  occ. eigenvalues --   -0.83365  -0.82472  -0.81627  -0.80926  -0.80072
 Alpha  occ. eigenvalues --   -0.79941  -0.78733  -0.77934  -0.77601  -0.77213
 Alpha  occ. eigenvalues --   -0.75365  -0.75131  -0.74015  -0.72615  -0.71965
 Alpha  occ. eigenvalues --   -0.71455  -0.71161  -0.70776  -0.69982  -0.69962
 Alpha  occ. eigenvalues --   -0.69392  -0.68648  -0.67592  -0.67337  -0.66592
 Alpha  occ. eigenvalues --   -0.65962  -0.65301  -0.64701  -0.63343  -0.62630
 Alpha  occ. eigenvalues --   -0.62171  -0.61392  -0.60390  -0.58829  -0.58451
 Alpha  occ. eigenvalues --   -0.58072  -0.57901  -0.57665  -0.57586  -0.57396
 Alpha  occ. eigenvalues --   -0.57276  -0.56446  -0.55937  -0.55239  -0.54803
 Alpha  occ. eigenvalues --   -0.53689  -0.53265  -0.52995  -0.52582  -0.52200
 Alpha  occ. eigenvalues --   -0.51860  -0.51574  -0.51540  -0.51078  -0.51017
 Alpha  occ. eigenvalues --   -0.50884  -0.50559  -0.50063  -0.49977  -0.49847
 Alpha  occ. eigenvalues --   -0.49393  -0.49110  -0.48958  -0.48486  -0.48036
 Alpha  occ. eigenvalues --   -0.48020  -0.47884  -0.47703  -0.47420  -0.47226
 Alpha  occ. eigenvalues --   -0.47213  -0.47086  -0.46470  -0.46334  -0.46006
 Alpha  occ. eigenvalues --   -0.45940  -0.45792  -0.45540  -0.45340  -0.45083
 Alpha  occ. eigenvalues --   -0.44849  -0.44756  -0.44403  -0.44188  -0.44070
 Alpha  occ. eigenvalues --   -0.44040  -0.43832  -0.43497  -0.43317  -0.43035
 Alpha  occ. eigenvalues --   -0.42787  -0.42640  -0.42543  -0.42115  -0.41802
 Alpha  occ. eigenvalues --   -0.41687  -0.41498  -0.41284  -0.41223  -0.41074
 Alpha  occ. eigenvalues --   -0.40869  -0.40596  -0.40549  -0.40479  -0.40353
 Alpha  occ. eigenvalues --   -0.40153  -0.39990  -0.39672  -0.39588  -0.39397
 Alpha  occ. eigenvalues --   -0.39329  -0.39179  -0.38964  -0.38689  -0.38560
 Alpha  occ. eigenvalues --   -0.38128  -0.37782  -0.37759  -0.37576  -0.37095
 Alpha  occ. eigenvalues --   -0.36996  -0.36523  -0.36455  -0.36134  -0.35924
 Alpha  occ. eigenvalues --   -0.35727  -0.35401  -0.34934  -0.34863  -0.34585
 Alpha  occ. eigenvalues --   -0.34557  -0.34059  -0.33808  -0.33606  -0.33101
 Alpha  occ. eigenvalues --   -0.32431  -0.32051  -0.31835  -0.31796  -0.31292
 Alpha  occ. eigenvalues --   -0.31197  -0.31109  -0.30260  -0.30184  -0.29887
 Alpha  occ. eigenvalues --   -0.29165  -0.28419  -0.28321  -0.28066  -0.27831
 Alpha  occ. eigenvalues --   -0.27529  -0.27092  -0.23696  -0.21921
 Alpha virt. eigenvalues --   -0.08879  -0.07292  -0.02418  -0.01408   0.00024
 Alpha virt. eigenvalues --    0.02335   0.02838   0.03455   0.03947   0.04565
 Alpha virt. eigenvalues --    0.05191   0.06206   0.07362   0.08184   0.09193

 Mulliken charges:
               1
     1  Mg   0.820221
     2  C    0.066750
     3  C   -0.162995
     4  C   -0.121082
     5  C   -0.163037
     6  N   -0.628052
     7  C    0.288713
     8  C   -0.176295
     9  C   -0.126732
    10  C    0.343037
    11  C   -0.292960
    12  C   -0.159842
    13  C   -0.274840
    14  C    0.578751
    15  O   -0.408605
    16  O   -0.490996
    17  N   -0.713712
    18  C    0.282868
    19  C    0.042547
    20  C   -0.034932
    21  C    0.327045
    22  C   -0.419377
    23  C    0.236585
    24  O   -0.419591
    25  N   -0.671738
    26  C    0.292454
    27  C   -0.014698
    28  C    0.053224
    29  C    0.239891
    30  C    0.219382
    31  C   -0.245395
    32  C   -0.316372
    33  N   -0.725173
    34  C    0.309775
    35  C   -0.000553
    36  C    0.010002
    37  C    0.310884
    38  C   -0.384347
    39  C    0.375227
    40  O   -0.475509
    41  C   -0.330548
    42  C    0.631119
    43  O   -0.458580
    44  O   -0.434303
    45  C   -0.068135
    46  C    0.013694
    47  C   -0.132535
    48  C    0.150381
    49  C   -0.368572
    50  C   -0.245302
    51  C   -0.163310
    52  C   -0.155581
    53  C   -0.062441
    54  C   -0.298437
    55  C   -0.166542
    56  C   -0.189968
    57  C   -0.166060
    58  C   -0.072585
    59  C   -0.305560
    60  C   -0.167215
    61  C   -0.182819
    62  C   -0.145361
    63  C   -0.088905
    64  C   -0.296749
    65  C   -0.322003
    66  H    0.087054
    67  H    0.133306
    68  H    0.090248
    69  H    0.123095
    70  H    0.108508
    71  H    0.110788
    72  H    0.103369
    73  H    0.138093
    74  H    0.104278
    75  H    0.116554
    76  H    0.128600
    77  H    0.140882
    78  H    0.134851
    79  H    0.150160
    80  H    0.138764
    81  H    0.102753
    82  H    0.119971
    83  H    0.115381
    84  H    0.108722
    85  H    0.118157
    86  H    0.122980
    87  H    0.129805
    88  H    0.135667
    89  H    0.127477
    90  H    0.153426
    91  H    0.097425
    92  H    0.120550
    93  H    0.086437
    94  H    0.102370
    95  H    0.122640
    96  H    0.138658
    97  H    0.108342
    98  H    0.096032
    99  H    0.084717
   100  H    0.106199
   101  H    0.056610
   102  H    0.095173
   103  H    0.086909
   104  H    0.069774
   105  H    0.102455
   106  H    0.113342
   107  H    0.092449
   108  H    0.081959
   109  H    0.089685
   110  H    0.090620
   111  H    0.057616
   112  H    0.097282
   113  H    0.080622
   114  H    0.109881
   115  H    0.104599
   116  H    0.097583
   117  H    0.090094
   118  H    0.068263
   119  H    0.086134
   120  H    0.076523
   121  H    0.093017
   122  H    0.088016
   123  H    0.080335
   124  H    0.107229
   125  H    0.097088
   126  H    0.108692
   127  H    0.104142
   128  H    0.099554
   129  H    0.095640
   130  H    0.121463
   131  H    0.135008
   132  H    0.058826
   133  O   -0.446525
   134  H    0.059475
 Sum of Mulliken charges =   0.00000

 Dipole moment (field-independent basis, Debye):
    X=              3.2498    Y=             -2.3748    Z=             -1.0502  Tot=              4.1598
 Quadrupole moment (field-independent basis, Debye-Ang):
   XX=           -382.5905   YY=           -450.3472   ZZ=           -392.7285
   XY=            -11.9847   XZ=             22.2915   YZ=            -36.8302

 Normal termination of Gaussian 09 at Sat Oct  5 09:23:47 2019.
