 Gaussian 09, Revision D.01,
 Gaussian 09:  ES64L-G09RevD.01 24-Apr-2013

 ----------------------------------------------------------------------
 # td=(NStates=1) iop(3/107=0140000000,3/108=0140000000) iop(3/107=0140
 000000,3/108=0140000000) CAM-B3LYP/6-31G(d,p)
 ----------------------------------------------------------------------

 --
 TD
 --
 Symbolic Z-matrix:
 Charge =  0 Multiplicity = 1

                         Standard orientation:
 ---------------------------------------------------------------------
 Center     Atomic      Atomic             Coordinates (Angstroms)
 Number     Number       Type             X           Y           Z
 ---------------------------------------------------------------------
      1         12           0       -5.652257    1.312304    0.125961
      2          6           0       -5.019026   -2.216279   -0.385031
      3          6           0       -3.452709    1.147728    2.774055
      4          6           0       -6.101017    4.557859    0.737944
      5          6           0       -8.041806    1.181194   -2.285785
      6          7           0       -4.327006   -0.254510    0.963465
      7          6           0       -4.285398   -1.639555    0.560801
      8          6           0       -3.309758   -2.363283    1.366369
      9          6           0       -2.982296   -1.391193    2.474720
     10          6           0       -3.541896   -0.110943    2.102959
     11          6           0       -3.684283   -1.767699    3.775843
     12          6           0       -2.013463   -2.700997    0.526702
     13          6           0       -1.029922   -3.514528    1.429911
     14          6           0        0.211608   -3.903710    0.598486
     15          8           0        0.404757   -3.492776   -0.533988
     16          8           0        1.003575   -4.694372    1.309617
     17          7           0       -4.749563    2.546986    1.485099
     18          6           0       -3.897458    2.356531    2.469562
     19          6           0       -3.633931    3.571725    3.223390
     20          6           0       -4.520535    4.491486    2.637005
     21          6           0       -5.196469    3.905705    1.547615
     22          6           0       -2.635479    3.784845    4.253591
     23          6           0       -4.537916    5.960060    3.045052
     24          8           0       -3.858379    6.562528    3.832924
     25          7           0       -6.819421    2.733501   -0.645871
     26          6           0       -6.889440    3.981697   -0.279638
     27          6           0       -7.816315    4.689336   -1.216699
     28          6           0       -8.411964    3.703343   -1.936255
     29          6           0       -7.793733    2.447201   -1.602631
     30          6           0       -8.129034    6.085458   -1.210396
     31          6           0       -9.512026    3.886597   -2.981663
     32          6           0       -8.930516    4.158725   -4.508622
     33          7           0       -6.354262   -0.115929   -1.165404
     34          6           0       -7.404731    0.008040   -1.975754
     35          6           0       -7.570886   -1.273709   -2.682316
     36          6           0       -6.572236   -2.084066   -2.096577
     37          6           0       -5.972692   -1.371275   -1.103798
     38          6           0       -8.498122   -1.608469   -3.777906
     39          6           0       -6.259019   -3.463709   -2.087569
     40          8           0       -6.735774   -4.377262   -2.701455
     41          6           0       -5.104653   -3.676024   -1.006345
     42          6           0       -5.412635   -4.720169    0.129789
     43          8           0       -5.838330   -4.551356    1.261261
     44          8           0       -5.062572   -5.835751   -0.424886
     45          6           0       -5.445361   -6.937458    0.375089
     46          6           0        2.262174   -5.048853    0.600435
     47          6           0        3.421175   -4.117488    0.930700
     48          6           0        4.026058   -3.220612    0.206860
     49          6           0        3.690363   -2.997517   -1.289998
     50          6           0        5.187354   -2.391464    0.826069
     51          6           0        6.525774   -2.695761    0.228027
     52          6           0        7.715022   -1.762179    0.697812
     53          6           0        9.107114   -1.941805   -0.002430
     54          6           0        9.463930   -3.469763    0.271515
     55          6           0       10.095761   -0.938636    0.510521
     56          6           0       11.361543   -0.870443   -0.252512
     57          6           0       12.164768    0.296983    0.152094
     58          6           0       13.536797    0.500971   -0.541577
     59          6           0       14.478534   -0.727029   -0.250727
     60          6           0       14.285286    1.744767   -0.055078
     61          6           0       15.407246    2.129619   -1.039361
     62          6           0       16.115483    3.558285   -0.708477
     63          6           0       17.352392    3.825597   -1.534039
     64          6           0       17.035951    3.803468   -3.059506
     65          6           0       17.912615    5.107326   -0.955942
     66          1           0       -2.613512    1.132294    3.377030
     67          1           0       -6.326079    5.584871    0.875354
     68          1           0       -8.671257    1.160627   -3.184170
     69          1           0       -3.667773   -3.314674    1.718117
     70          1           0       -1.914213   -1.317934    2.807433
     71          1           0       -3.192926   -2.880837    4.048356
     72          1           0       -3.568703   -0.991608    4.691476
     73          1           0       -4.911348   -1.919293    3.542706
     74          1           0       -2.290500   -3.350506   -0.417638
     75          1           0       -1.468704   -1.670038    0.352968
     76          1           0       -0.533104   -2.957836    2.268505
     77          1           0       -1.419202   -4.489881    1.571877
     78          1           0       -1.565204    3.335596    3.931447
     79          1           0       -2.428426    4.891606    4.396895
     80          1           0       -2.933526    3.385683    5.264601
     81          1           0       -5.415260    6.506197    2.618387
     82          1           0      -10.234409    3.014027   -3.142735
     83          1           0      -10.072039    4.745570   -2.644999
     84          1           0       -9.763931    3.980928   -5.342274
     85          1           0       -8.480263    5.068873   -4.497727
     86          1           0       -8.060976    3.332855   -4.567204
     87          1           0       -8.396031   -1.219575   -4.952818
     88          1           0       -8.867168   -2.622587   -3.660406
     89          1           0       -9.466354   -1.111577   -3.508675
     90          1           0       -4.106381   -4.185433   -1.361678
     91          1           0        2.400277   -6.107627    0.852097
     92          1           0        2.048714   -4.865059   -0.425953
     93          1           0        3.607246   -4.132300    1.920254
     94          1           0        2.752107   -3.419635   -1.651695
     95          1           0        3.654871   -1.864826   -1.643414
     96          1           0        4.366155   -3.614642   -1.981878
     97          1           0        4.868096   -1.537373    0.638940
     98          1           0        5.212346   -2.541542    1.944117
     99          1           0        6.865806   -3.748484    0.432332
    100          1           0        6.313143   -2.589672   -0.772962
    101          1           0        7.380190   -0.826541    0.555945
    102          1           0        7.796150   -2.155731    1.642907
    103          1           0        8.846074   -1.932197   -1.140251
    104          1           0        8.537781   -4.231102   -0.081586
    105          1           0       10.485550   -3.706636    0.100739
    106          1           0        9.574796   -3.580391    1.400348
    107          1           0        9.706748    0.141472    0.580643
    108          1           0       10.325455   -1.215339    1.544441
    109          1           0       11.756135   -1.802333   -0.087751
    110          1           0       11.099383   -0.617930   -1.212617
    111          1           0       11.525533    1.119058    0.127108
    112          1           0       12.463494    0.268596    1.207740
    113          1           0       13.364961    0.587557   -1.460602
    114          1           0       14.848220   -0.791495    0.803967
    115          1           0       14.040943   -1.718548   -0.628459
    116          1           0       15.234669   -0.696404   -0.970958
    117          1           0       13.518389    2.550977   -0.036722
    118          1           0       14.645696    1.745592    1.062599
    119          1           0       16.309690    1.523452   -0.963696
    120          1           0       15.090982    2.397282   -2.062411
    121          1           0       15.495475    4.361007   -0.987532
    122          1           0       16.366621    3.567658    0.291371
    123          1           0       18.181767    3.022730   -1.258219
    124          1           0       16.452379    4.723444   -3.357955
    125          1           0       17.935709    3.773612   -3.519270
    126          1           0       16.494369    3.047337   -3.280099
    127          1           0       18.222562    4.938588   -0.021810
    128          1           0       18.756763    5.677173   -1.404109
    129          1           0       17.145700    5.974636   -0.821525
    130          1           0       -5.146468   -7.902109   -0.139404
    131          1           0       -6.483770   -6.921937    0.616835
    132          1           0       -4.824483   -7.018715    1.379178
    133          8           0       -7.535734    6.851826   -0.377344
    134          1           0       -8.811766    6.430805   -2.034814
 ---------------------------------------------------------------------

 SCF Done:  E(RCAM-B3LYP) =  -3043.48607697     A.U. after   15 cycles

 Excitation energies and oscillator strengths:

 Excited State   1:      Singlet-A      2.0961 eV  591.50 nm  f=0.1629  <S**2>=0.000
     243 -> 246       -0.26947
     244 -> 245        0.63561
 This state for optimization and/or second-order correction.
 Total Energy, E(TD-HF/TD-KS) =  -3043.40904704
 Copying the excited state density for this state as the 1-particle RhoCI density.

 The electronic state is 1-A.
 Alpha  occ. eigenvalues --  -46.81095 -19.24776 -19.22788 -19.17890 -19.17569
 Alpha  occ. eigenvalues --  -19.16672 -19.16652 -19.16649 -14.38246 -14.37159
 Alpha  occ. eigenvalues --  -14.36344 -14.35835 -10.35670 -10.34430 -10.30802
 Alpha  occ. eigenvalues --  -10.30487 -10.30435 -10.28549 -10.27859 -10.27228
 Alpha  occ. eigenvalues --  -10.26492 -10.26315 -10.26225 -10.26013 -10.25999
 Alpha  occ. eigenvalues --  -10.25689 -10.25526 -10.25459 -10.25450 -10.25237
 Alpha  occ. eigenvalues --  -10.24876 -10.24807 -10.24429 -10.24382 -10.24336
 Alpha  occ. eigenvalues --  -10.23989 -10.23829 -10.23725 -10.23681 -10.23549
 Alpha  occ. eigenvalues --  -10.23526 -10.23112 -10.23092 -10.22909 -10.22597
 Alpha  occ. eigenvalues --  -10.22563 -10.22421 -10.22327 -10.22054 -10.21923
 Alpha  occ. eigenvalues --  -10.21472 -10.21004 -10.20855 -10.20752 -10.20700
 Alpha  occ. eigenvalues --  -10.20467 -10.20395 -10.20301 -10.19988 -10.19872
 Alpha  occ. eigenvalues --  -10.19390 -10.19227 -10.19066 -10.18956 -10.18335
 Alpha  occ. eigenvalues --  -10.18271  -3.09686  -1.84636  -1.84157  -1.84086
 Alpha  occ. eigenvalues --   -1.17305  -1.13526  -1.07691  -1.07664  -1.05866
 Alpha  occ. eigenvalues --   -1.04385  -1.03509  -1.02124  -1.00698  -0.99746
 Alpha  occ. eigenvalues --   -0.98119  -0.88303  -0.86651  -0.86075  -0.85585
 Alpha  occ. eigenvalues --   -0.85238  -0.84616  -0.84343  -0.83454  -0.83366
 Alpha  occ. eigenvalues --   -0.83270  -0.83113  -0.81819  -0.81064  -0.80291
 Alpha  occ. eigenvalues --   -0.79145  -0.78286  -0.78188  -0.77196  -0.75976
 Alpha  occ. eigenvalues --   -0.75070  -0.74866  -0.73509  -0.73191  -0.72828
 Alpha  occ. eigenvalues --   -0.71664  -0.71404  -0.70300  -0.69882  -0.69701
 Alpha  occ. eigenvalues --   -0.68875  -0.68737  -0.66896  -0.66517  -0.66172
 Alpha  occ. eigenvalues --   -0.65883  -0.65017  -0.64652  -0.63073  -0.62077
 Alpha  occ. eigenvalues --   -0.61860  -0.61261  -0.61044  -0.60217  -0.59741
 Alpha  occ. eigenvalues --   -0.58754  -0.58462  -0.57865  -0.57845  -0.56954
 Alpha  occ. eigenvalues --   -0.56616  -0.56308  -0.55902  -0.55634  -0.55121
 Alpha  occ. eigenvalues --   -0.53692  -0.53423  -0.53258  -0.52824  -0.52503
 Alpha  occ. eigenvalues --   -0.52289  -0.52147  -0.52037  -0.51807  -0.51054
 Alpha  occ. eigenvalues --   -0.50967  -0.50626  -0.49597  -0.49438  -0.49078
 Alpha  occ. eigenvalues --   -0.48679  -0.48291  -0.48151  -0.48092  -0.47961
 Alpha  occ. eigenvalues --   -0.47904  -0.47593  -0.47426  -0.47114  -0.46939
 Alpha  occ. eigenvalues --   -0.46696  -0.46641  -0.46236  -0.46010  -0.45591
 Alpha  occ. eigenvalues --   -0.45552  -0.45312  -0.45019  -0.44738  -0.44476
 Alpha  occ. eigenvalues --   -0.44324  -0.44249  -0.43929  -0.43566  -0.43387
 Alpha  occ. eigenvalues --   -0.43157  -0.43111  -0.42845  -0.42690  -0.42651
 Alpha  occ. eigenvalues --   -0.42572  -0.42391  -0.41943  -0.41829  -0.41707
 Alpha  occ. eigenvalues --   -0.41567  -0.41490  -0.41224  -0.40928  -0.40686
 Alpha  occ. eigenvalues --   -0.40589  -0.40321  -0.40305  -0.40147  -0.39943
 Alpha  occ. eigenvalues --   -0.39912  -0.39786  -0.39594  -0.39428  -0.39132
 Alpha  occ. eigenvalues --   -0.39081  -0.39058  -0.38903  -0.38496  -0.38146
 Alpha  occ. eigenvalues --   -0.38105  -0.37943  -0.37717  -0.37665  -0.37354
 Alpha  occ. eigenvalues --   -0.37306  -0.36815  -0.36505  -0.36215  -0.35928
 Alpha  occ. eigenvalues --   -0.35912  -0.35390  -0.35246  -0.34597  -0.34377
 Alpha  occ. eigenvalues --   -0.34260  -0.34192  -0.34090  -0.33825  -0.33724
 Alpha  occ. eigenvalues --   -0.33393  -0.32826  -0.32443  -0.32017  -0.31897
 Alpha  occ. eigenvalues --   -0.31266  -0.31198  -0.30540  -0.29891  -0.29640
 Alpha  occ. eigenvalues --   -0.28488  -0.28375  -0.27936  -0.27861  -0.27588
 Alpha  occ. eigenvalues --   -0.27479  -0.27306  -0.23126  -0.21540
 Alpha virt. eigenvalues --   -0.08161  -0.06733  -0.01126  -0.00869   0.00451
 Alpha virt. eigenvalues --    0.03193   0.03715   0.03906   0.04380   0.04482
 Alpha virt. eigenvalues --    0.05289   0.05708   0.07584   0.08014   0.09181

 Mulliken charges:
               1
     1  Mg   0.826091
     2  C    0.073790
     3  C   -0.194601
     4  C   -0.169152
     5  C   -0.151628
     6  N   -0.624976
     7  C    0.289838
     8  C   -0.148649
     9  C   -0.162495
    10  C    0.359135
    11  C   -0.281489
    12  C   -0.159053
    13  C   -0.254804
    14  C    0.578738
    15  O   -0.476038
    16  O   -0.460226
    17  N   -0.724815
    18  C    0.351973
    19  C    0.086608
    20  C   -0.064107
    21  C    0.328836
    22  C   -0.411961
    23  C    0.266136
    24  O   -0.402661
    25  N   -0.711983
    26  C    0.307847
    27  C   -0.004544
    28  C    0.023126
    29  C    0.265006
    30  C    0.223295
    31  C   -0.259730
    32  C   -0.305695
    33  N   -0.736340
    34  C    0.301542
    35  C    0.023725
    36  C    0.009871
    37  C    0.328480
    38  C   -0.393867
    39  C    0.372035
    40  O   -0.454057
    41  C   -0.319124
    42  C    0.620920
    43  O   -0.479074
    44  O   -0.389285
    45  C   -0.103779
    46  C   -0.015467
    47  C   -0.120544
    48  C    0.125761
    49  C   -0.391328
    50  C   -0.198135
    51  C   -0.202123
    52  C   -0.149486
    53  C   -0.053109
    54  C   -0.323014
    55  C   -0.181184
    56  C   -0.142962
    57  C   -0.184909
    58  C   -0.028778
    59  C   -0.321396
    60  C   -0.174815
    61  C   -0.188872
    62  C   -0.179111
    63  C   -0.063493
    64  C   -0.305434
    65  C   -0.309466
    66  H    0.069348
    67  H    0.132706
    68  H    0.109248
    69  H    0.123474
    70  H    0.103337
    71  H    0.083515
    72  H    0.108310
    73  H    0.107373
    74  H    0.106868
    75  H    0.108784
    76  H    0.136786
    77  H    0.136318
    78  H    0.104612
    79  H    0.162508
    80  H    0.131807
    81  H    0.072637
    82  H    0.108271
    83  H    0.111645
    84  H    0.104862
    85  H    0.133192
    86  H    0.096762
    87  H    0.117229
    88  H    0.150593
    89  H    0.110889
    90  H    0.152630
    91  H    0.118917
    92  H    0.134578
    93  H    0.078135
    94  H    0.148300
    95  H    0.102101
    96  H    0.112419
    97  H    0.110667
    98  H    0.083837
    99  H    0.086267
   100  H    0.101058
   101  H    0.088960
   102  H    0.100515
   103  H    0.071259
   104  H    0.094963
   105  H    0.105273
   106  H    0.085297
   107  H    0.073785
   108  H    0.090262
   109  H    0.098831
   110  H    0.097916
   111  H    0.083261
   112  H    0.075109
   113  H    0.082074
   114  H    0.102039
   115  H    0.082063
   116  H    0.112169
   117  H    0.083309
   118  H    0.076662
   119  H    0.101927
   120  H    0.097131
   121  H    0.093352
   122  H    0.090756
   123  H    0.060981
   124  H    0.091003
   125  H    0.112654
   126  H    0.114056
   127  H    0.115961
   128  H    0.089220
   129  H    0.077469
   130  H    0.122002
   131  H    0.148842
   132  H    0.111878
   133  O   -0.455900
   134  H    0.079940
 Sum of Mulliken charges =   0.00000

 Dipole moment (field-independent basis, Debye):
    X=              2.2008    Y=             -5.0683    Z=             -0.9670  Tot=              5.6095
 Quadrupole moment (field-independent basis, Debye-Ang):
   XX=           -369.0832   YY=           -432.7850   ZZ=           -395.6600
   XY=              8.9767   XZ=             22.4069   YZ=            -32.0538

 Normal termination of Gaussian 09 at Fri Oct  4 10:47:23 2019.
