 Gaussian 09, Revision D.01,
 Gaussian 09:  ES64L-G09RevD.01 24-Apr-2013

 ----------------------------------------------------------------------
 # td=(NStates=1) iop(3/107=0140000000,3/108=0140000000) iop(3/107=0140
 000000,3/108=0140000000) CAM-B3LYP/6-31G(d,p)
 ----------------------------------------------------------------------

 --
 TD
 --
 Symbolic Z-matrix:
 Charge =  0 Multiplicity = 1

                         Standard orientation:
 ---------------------------------------------------------------------
 Center     Atomic      Atomic             Coordinates (Angstroms)
 Number     Number       Type             X           Y           Z
 ---------------------------------------------------------------------
      1         12           0       -5.644654    1.248775    0.172935
      2          6           0       -5.042640   -2.101494   -0.366931
      3          6           0       -3.360320    1.190802    2.718637
      4          6           0       -6.168823    4.616747    0.657506
      5          6           0       -7.935304    1.205673   -2.417635
      6          7           0       -4.391384   -0.231255    1.027015
      7          6           0       -4.207229   -1.568741    0.653615
      8          6           0       -3.171301   -2.300084    1.530565
      9          6           0       -2.949887   -1.331990    2.565430
     10          6           0       -3.538043   -0.061714    2.067716
     11          6           0       -3.544933   -1.812973    3.964950
     12          6           0       -1.992378   -2.567750    0.643461
     13          6           0       -0.954923   -3.588023    1.460178
     14          6           0        0.228121   -3.932560    0.597275
     15          8           0        0.471220   -3.562251   -0.429937
     16          8           0        1.173515   -4.563177    1.351567
     17          7           0       -4.900722    2.677801    1.386307
     18          6           0       -4.122848    2.400543    2.457620
     19          6           0       -3.795602    3.581434    3.150101
     20          6           0       -4.395146    4.617776    2.560200
     21          6           0       -5.191475    4.003059    1.462851
     22          6           0       -2.822190    3.751134    4.321948
     23          6           0       -4.536416    6.027079    3.006580
     24          8           0       -4.040178    6.521737    4.031771
     25          7           0       -6.852818    2.608521   -0.724151
     26          6           0       -6.914864    3.975329   -0.352609
     27          6           0       -7.911118    4.552642   -1.165116
     28          6           0       -8.439380    3.646441   -2.035996
     29          6           0       -7.695392    2.357445   -1.757456
     30          6           0       -8.338798    6.022208   -1.089077
     31          6           0       -9.436322    3.937066   -3.234507
     32          6           0       -8.831089    4.051607   -4.606605
     33          7           0       -6.302702   -0.160376   -1.167345
     34          6           0       -7.285528    0.013526   -2.093065
     35          6           0       -7.560201   -1.256621   -2.762849
     36          6           0       -6.712524   -2.100116   -2.094525
     37          6           0       -5.922073   -1.400487   -1.157377
     38          6           0       -8.590603   -1.757128   -3.760617
     39          6           0       -6.270399   -3.536394   -2.107842
     40          8           0       -6.496442   -4.529636   -2.841147
     41          6           0       -4.992992   -3.563402   -0.895053
     42          6           0       -5.250412   -4.592494    0.159369
     43          8           0       -5.744450   -4.469993    1.253434
     44          8           0       -5.156035   -5.822439   -0.390500
     45          6           0       -5.666507   -6.911032    0.515092
     46          6           0        2.347932   -5.055388    0.826837
     47          6           0        3.485015   -4.110380    1.159001
     48          6           0        4.041762   -3.398612    0.239053
     49          6           0        3.799794   -3.288496   -1.174906
     50          6           0        5.193036   -2.477540    0.672368
     51          6           0        6.582399   -2.780418   -0.077358
     52          6           0        7.705062   -1.783584    0.545384
     53          6           0        9.003089   -2.077187   -0.113896
     54          6           0        9.428041   -3.430399    0.308143
     55          6           0        9.980486   -0.968819    0.446606
     56          6           0       11.371200   -0.910542   -0.298916
     57          6           0       12.151377    0.376418    0.070557
     58          6           0       13.483457    0.419087   -0.738732
     59          6           0       14.424999   -0.781560   -0.377441
     60          6           0       14.149772    1.790146   -0.310917
     61          6           0       15.626552    2.243382   -1.015930
     62          6           0       15.961715    3.529486   -0.636963
     63          6           0       17.229565    4.048607   -1.279486
     64          6           0       17.224377    4.057562   -2.843560
     65          6           0       17.895584    5.260452   -0.768805
     66          1           0       -2.606840    1.352228    3.425883
     67          1           0       -6.389344    5.498490    0.849328
     68          1           0       -8.601966    1.130252   -3.278991
     69          1           0       -3.734987   -3.215152    1.879856
     70          1           0       -1.810104   -1.215703    2.697994
     71          1           0       -2.780230   -2.515971    4.381695
     72          1           0       -3.512843   -0.852723    4.576030
     73          1           0       -4.550140   -2.196811    3.778247
     74          1           0       -2.225066   -3.236873   -0.304973
     75          1           0       -1.408286   -1.642413    0.320383
     76          1           0       -0.757540   -3.017451    2.302686
     77          1           0       -1.304386   -4.583762    1.796918
     78          1           0       -1.825818    3.460594    3.783522
     79          1           0       -2.972157    4.660738    4.748484
     80          1           0       -3.295480    3.078515    4.970300
     81          1           0       -4.966706    6.725550    2.126787
     82          1           0      -10.070890    2.976377   -3.146506
     83          1           0      -10.136089    4.734083   -2.773742
     84          1           0       -9.359307    4.305112   -5.226768
     85          1           0       -8.085264    4.872786   -4.645569
     86          1           0       -8.350748    3.176381   -4.891890
     87          1           0       -8.385569   -0.996782   -4.593859
     88          1           0       -8.484361   -2.798864   -3.945796
     89          1           0       -9.593902   -1.620200   -3.288473
     90          1           0       -4.224060   -3.948442   -1.610212
     91          1           0        2.519292   -5.987829    1.407636
     92          1           0        2.361063   -5.225227   -0.104860
     93          1           0        3.881372   -3.818067    2.168216
     94          1           0        2.727338   -3.556211   -1.416601
     95          1           0        3.878496   -2.300078   -1.703817
     96          1           0        4.467465   -4.114619   -1.667778
     97          1           0        5.005448   -1.356942    0.461032
     98          1           0        5.254222   -2.608618    1.749872
     99          1           0        6.924959   -3.738796    0.122497
    100          1           0        6.445736   -2.751886   -1.085834
    101          1           0        7.361231   -0.599461    0.447600
    102          1           0        7.848140   -1.908941    1.547243
    103          1           0        9.074650   -1.963455   -1.155259
    104          1           0        8.807009   -4.347184    0.238983
    105          1           0       10.183723   -3.734338   -0.334779
    106          1           0        9.533566   -3.506687    1.373433
    107          1           0        9.368414    0.092967    0.333249
    108          1           0       10.226772   -1.220617    1.507382
    109          1           0       11.928404   -1.617602    0.037807
    110          1           0       11.157077   -1.114114   -1.401015
    111          1           0       11.575340    1.267492   -0.102375
    112          1           0       12.290530    0.287341    1.193321
    113          1           0       13.528680    0.392816   -1.822285
    114          1           0       14.527578   -0.855835    0.707067
    115          1           0       14.001965   -1.760967   -0.726296
    116          1           0       15.458003   -0.908748   -0.787502
    117          1           0       13.423626    2.671819   -0.707439
    118          1           0       14.145676    1.852680    0.932483
    119          1           0       16.323634    1.498064   -0.859730
    120          1           0       15.431786    2.190682   -2.253483
    121          1           0       15.069355    4.208920   -0.953900
    122          1           0       15.941065    3.737201    0.352209
    123          1           0       17.956613    3.291579   -0.844061
    124          1           0       16.549789    4.784463   -3.126376
    125          1           0       18.229697    4.154902   -3.225407
    126          1           0       16.867663    3.090546   -3.253291
    127          1           0       18.274753    5.308243    0.323894
    128          1           0       18.798138    5.378435   -1.412679
    129          1           0       17.335218    6.124868   -0.744377
    130          1           0       -5.203133   -7.735486   -0.030267
    131          1           0       -6.750514   -6.904480    0.570303
    132          1           0       -5.092608   -7.003811    1.581369
    133          8           0       -7.798042    6.828049   -0.315956
    134          1           0       -9.206684    6.332223   -1.630625
 ---------------------------------------------------------------------

 SCF Done:  E(RCAM-B3LYP) =  -3043.41515680     A.U. after   16 cycles

 Excitation energies and oscillator strengths:

 Excited State   1:      Singlet-A      2.0129 eV  615.94 nm  f=0.2015  <S**2>=0.000
     243 -> 246        0.25327
     244 -> 245        0.65402
 This state for optimization and/or second-order correction.
 Total Energy, E(TD-HF/TD-KS) =  -3043.34118304
 Copying the excited state density for this state as the 1-particle RhoCI density.

 The electronic state is 1-A.
 Alpha  occ. eigenvalues --  -46.81175 -19.21638 -19.19893 -19.18444 -19.17675
 Alpha  occ. eigenvalues --  -19.17616 -19.17499 -19.16433 -14.39581 -14.36897
 Alpha  occ. eigenvalues --  -14.36799 -14.36346 -10.34054 -10.33958 -10.33050
 Alpha  occ. eigenvalues --  -10.31384 -10.30976 -10.28070 -10.27988 -10.27641
 Alpha  occ. eigenvalues --  -10.26329 -10.26316 -10.26281 -10.26255 -10.26049
 Alpha  occ. eigenvalues --  -10.25501 -10.25425 -10.25352 -10.25100 -10.25093
 Alpha  occ. eigenvalues --  -10.24829 -10.24555 -10.24305 -10.24168 -10.24064
 Alpha  occ. eigenvalues --  -10.23931 -10.23726 -10.23475 -10.23424 -10.23313
 Alpha  occ. eigenvalues --  -10.23081 -10.23042 -10.22755 -10.22432 -10.22405
 Alpha  occ. eigenvalues --  -10.22218 -10.21987 -10.21780 -10.21241 -10.21201
 Alpha  occ. eigenvalues --  -10.21152 -10.21147 -10.21099 -10.21015 -10.20950
 Alpha  occ. eigenvalues --  -10.20827 -10.20423 -10.20374 -10.19882 -10.19859
 Alpha  occ. eigenvalues --  -10.19743 -10.19500 -10.19475 -10.19451 -10.19196
 Alpha  occ. eigenvalues --  -10.19056  -3.09851  -1.84790  -1.84309  -1.84272
 Alpha  occ. eigenvalues --   -1.16451  -1.12644  -1.07336  -1.06020  -1.05546
 Alpha  occ. eigenvalues --   -1.05320  -1.03347  -1.02104  -1.00914  -1.00220
 Alpha  occ. eigenvalues --   -0.98528  -0.87563  -0.86943  -0.86072  -0.85483
 Alpha  occ. eigenvalues --   -0.85219  -0.85077  -0.84259  -0.84091  -0.83865
 Alpha  occ. eigenvalues --   -0.83137  -0.82932  -0.81480  -0.80058  -0.79799
 Alpha  occ. eigenvalues --   -0.78832  -0.78261  -0.77413  -0.77007  -0.76468
 Alpha  occ. eigenvalues --   -0.75254  -0.74904  -0.74086  -0.73076  -0.71752
 Alpha  occ. eigenvalues --   -0.71275  -0.71242  -0.70604  -0.70240  -0.69644
 Alpha  occ. eigenvalues --   -0.69427  -0.68214  -0.67678  -0.67055  -0.66686
 Alpha  occ. eigenvalues --   -0.66025  -0.64540  -0.64219  -0.62777  -0.62407
 Alpha  occ. eigenvalues --   -0.61918  -0.61336  -0.60596  -0.60163  -0.59465
 Alpha  occ. eigenvalues --   -0.58877  -0.58123  -0.57744  -0.57561  -0.57369
 Alpha  occ. eigenvalues --   -0.56734  -0.55584  -0.55096  -0.54832  -0.54336
 Alpha  occ. eigenvalues --   -0.54243  -0.52887  -0.52623  -0.52178  -0.51820
 Alpha  occ. eigenvalues --   -0.51456  -0.51154  -0.51013  -0.50903  -0.50498
 Alpha  occ. eigenvalues --   -0.50025  -0.49974  -0.49783  -0.49488  -0.49025
 Alpha  occ. eigenvalues --   -0.48971  -0.48681  -0.48579  -0.48461  -0.48087
 Alpha  occ. eigenvalues --   -0.47952  -0.47496  -0.47442  -0.47274  -0.47144
 Alpha  occ. eigenvalues --   -0.47094  -0.46877  -0.46495  -0.46044  -0.45822
 Alpha  occ. eigenvalues --   -0.45738  -0.45463  -0.45105  -0.45009  -0.44769
 Alpha  occ. eigenvalues --   -0.44699  -0.44567  -0.44505  -0.44413  -0.43973
 Alpha  occ. eigenvalues --   -0.43874  -0.43785  -0.43639  -0.43434  -0.43106
 Alpha  occ. eigenvalues --   -0.42963  -0.42802  -0.42205  -0.42068  -0.41934
 Alpha  occ. eigenvalues --   -0.41787  -0.41744  -0.41558  -0.41139  -0.41036
 Alpha  occ. eigenvalues --   -0.40775  -0.40639  -0.40569  -0.40474  -0.40038
 Alpha  occ. eigenvalues --   -0.39987  -0.39751  -0.39501  -0.39319  -0.39012
 Alpha  occ. eigenvalues --   -0.38749  -0.38633  -0.38475  -0.38311  -0.37941
 Alpha  occ. eigenvalues --   -0.37813  -0.37669  -0.37626  -0.37563  -0.37364
 Alpha  occ. eigenvalues --   -0.36830  -0.36742  -0.36409  -0.36078  -0.35750
 Alpha  occ. eigenvalues --   -0.35410  -0.35367  -0.34971  -0.34855  -0.34560
 Alpha  occ. eigenvalues --   -0.34476  -0.33936  -0.33884  -0.33427  -0.33015
 Alpha  occ. eigenvalues --   -0.32690  -0.32201  -0.31854  -0.31442  -0.31274
 Alpha  occ. eigenvalues --   -0.30810  -0.30465  -0.30429  -0.29962  -0.29149
 Alpha  occ. eigenvalues --   -0.28764  -0.28567  -0.28315  -0.28049  -0.27920
 Alpha  occ. eigenvalues --   -0.27517  -0.26853  -0.22924  -0.21473
 Alpha virt. eigenvalues --   -0.08540  -0.06007  -0.01861  -0.01198   0.00165
 Alpha virt. eigenvalues --    0.02367   0.03283   0.04048   0.04813   0.05182
 Alpha virt. eigenvalues --    0.05194   0.06302   0.08115   0.08389   0.09638

 Mulliken charges:
               1
     1  Mg   0.826274
     2  C    0.078122
     3  C   -0.199247
     4  C   -0.082046
     5  C   -0.140940
     6  N   -0.602676
     7  C    0.270852
     8  C   -0.121987
     9  C   -0.164323
    10  C    0.355878
    11  C   -0.299392
    12  C   -0.190728
    13  C   -0.277946
    14  C    0.558216
    15  O   -0.385962
    16  O   -0.461783
    17  N   -0.690159
    18  C    0.316411
    19  C   -0.031310
    20  C    0.001276
    21  C    0.270995
    22  C   -0.339993
    23  C    0.239174
    24  O   -0.418620
    25  N   -0.733689
    26  C    0.292819
    27  C   -0.024589
    28  C   -0.029925
    29  C    0.328863
    30  C    0.258634
    31  C   -0.242542
    32  C   -0.268188
    33  N   -0.738941
    34  C    0.261980
    35  C    0.003358
    36  C    0.009124
    37  C    0.313596
    38  C   -0.359096
    39  C    0.348804
    40  O   -0.455445
    41  C   -0.336723
    42  C    0.620764
    43  O   -0.483118
    44  O   -0.459034
    45  C   -0.085456
    46  C    0.030107
    47  C   -0.161714
    48  C    0.190085
    49  C   -0.395382
    50  C   -0.229467
    51  C   -0.190713
    52  C   -0.146963
    53  C   -0.056831
    54  C   -0.315268
    55  C   -0.173289
    56  C   -0.177313
    57  C   -0.172874
    58  C   -0.048508
    59  C   -0.328113
    60  C   -0.165015
    61  C   -0.166135
    62  C   -0.135343
    63  C   -0.052046
    64  C   -0.318262
    65  C   -0.314861
    66  H    0.083964
    67  H    0.065421
    68  H    0.094348
    69  H    0.141146
    70  H    0.098495
    71  H    0.116820
    72  H    0.108108
    73  H    0.139408
    74  H    0.113243
    75  H    0.125146
    76  H    0.142126
    77  H    0.132093
    78  H    0.121598
    79  H    0.155871
    80  H    0.126955
    81  H    0.075988
    82  H    0.101096
    83  H    0.104112
    84  H    0.117345
    85  H    0.106045
    86  H    0.115011
    87  H    0.119132
    88  H    0.159213
    89  H    0.133528
    90  H    0.157265
    91  H    0.098605
    92  H    0.108825
    93  H    0.072443
    94  H    0.129987
    95  H    0.117006
    96  H    0.107393
    97  H    0.085384
    98  H    0.079014
    99  H    0.103354
   100  H    0.107056
   101  H    0.050206
   102  H    0.100682
   103  H    0.087683
   104  H    0.095620
   105  H    0.106437
   106  H    0.103428
   107  H    0.063404
   108  H    0.081434
   109  H    0.116487
   110  H    0.073855
   111  H    0.100173
   112  H    0.090495
   113  H    0.096059
   114  H    0.099728
   115  H    0.094352
   116  H    0.098548
   117  H    0.067926
   118  H    0.057403
   119  H    0.103224
   120  H    0.056640
   121  H    0.061802
   122  H    0.100290
   123  H    0.074662
   124  H    0.117425
   125  H    0.103971
   126  H    0.097722
   127  H    0.082059
   128  H    0.096548
   129  H    0.105102
   130  H    0.130080
   131  H    0.147612
   132  H    0.111141
   133  O   -0.420466
   134  H    0.082350
 Sum of Mulliken charges =   0.00000

 Dipole moment (field-independent basis, Debye):
    X=              0.4481    Y=             -4.3888    Z=             -1.8707  Tot=              4.7918
 Quadrupole moment (field-independent basis, Debye-Ang):
   XX=           -363.7059   YY=           -435.7500   ZZ=           -394.9951
   XY=             -2.9934   XZ=             24.7647   YZ=            -38.3840

 Normal termination of Gaussian 09 at Mon Oct  7 17:24:03 2019.
