 Gaussian 09, Revision D.01,
 Gaussian 09:  ES64L-G09RevD.01 24-Apr-2013

 ----------------------------------------------------------------------
 # td=(NStates=1) iop(3/107=0140000000,3/108=0140000000) iop(3/107=0140
 000000,3/108=0140000000) CAM-B3LYP/6-31G(d,p)
 ----------------------------------------------------------------------

 --
 TD
 --
 Symbolic Z-matrix:
 Charge =  0 Multiplicity = 1

                         Standard orientation:
 ---------------------------------------------------------------------
 Center     Atomic      Atomic             Coordinates (Angstroms)
 Number     Number       Type             X           Y           Z
 ---------------------------------------------------------------------
      1         12           0       -5.646107    1.135104    0.146381
      2          6           0       -5.086002   -2.185286   -0.374393
      3          6           0       -3.535357    1.149381    2.822588
      4          6           0       -6.282007    4.495190    0.680919
      5          6           0       -8.103065    1.090442   -2.427992
      6          7           0       -4.365293   -0.338380    0.949343
      7          6           0       -4.363798   -1.671013    0.668945
      8          6           0       -3.251049   -2.358519    1.484296
      9          6           0       -3.021127   -1.300308    2.619418
     10          6           0       -3.667273   -0.079941    2.080671
     11          6           0       -3.605825   -1.664824    4.063409
     12          6           0       -2.056961   -2.754782    0.613041
     13          6           0       -1.072829   -3.630130    1.469581
     14          6           0        0.230382   -3.816491    0.602412
     15          8           0        0.383136   -3.442168   -0.488819
     16          8           0        1.180649   -4.550633    1.390848
     17          7           0       -4.934187    2.598515    1.389903
     18          6           0       -4.071667    2.334916    2.509976
     19          6           0       -3.889368    3.581446    3.231233
     20          6           0       -4.606740    4.524416    2.666793
     21          6           0       -5.261091    3.939454    1.442614
     22          6           0       -2.950093    3.730516    4.415315
     23          6           0       -4.834316    5.901081    2.957777
     24          8           0       -4.281714    6.599624    3.832027
     25          7           0       -6.865958    2.625943   -0.801733
     26          6           0       -7.074859    3.923786   -0.379617
     27          6           0       -7.995768    4.613221   -1.182805
     28          6           0       -8.471472    3.630006   -2.042163
     29          6           0       -7.735809    2.406630   -1.757552
     30          6           0       -8.448207    5.896391   -1.079392
     31          6           0       -9.503518    3.822148   -3.168681
     32          6           0       -8.874848    4.127192   -4.565351
     33          7           0       -6.324338   -0.129991   -1.211860
     34          6           0       -7.367937   -0.006998   -2.188217
     35          6           0       -7.594874   -1.352891   -2.750628
     36          6           0       -6.720668   -2.278070   -2.033485
     37          6           0       -6.053708   -1.411004   -1.133206
     38          6           0       -8.475512   -1.759176   -3.833168
     39          6           0       -6.112243   -3.573454   -2.078365
     40          8           0       -6.429138   -4.462139   -2.788110
     41          6           0       -5.020885   -3.563074   -0.940443
     42          6           0       -5.375048   -4.655889    0.082660
     43          8           0       -5.770163   -4.484882    1.216570
     44          8           0       -4.928571   -5.789372   -0.435636
     45          6           0       -5.317832   -7.004476    0.366916
     46          6           0        2.374545   -4.954317    0.650054
     47          6           0        3.483690   -3.974382    0.960480
     48          6           0        4.131836   -3.087852    0.315221
     49          6           0        3.732166   -2.871301   -1.181008
     50          6           0        5.282230   -2.383542    0.786900
     51          6           0        6.638189   -2.620631    0.041229
     52          6           0        7.747395   -1.683161    0.654808
     53          6           0        9.134148   -1.897903    0.103067
     54          6           0        9.655690   -3.394694    0.218074
     55          6           0       10.072413   -0.849920    0.607428
     56          6           0       11.404153   -0.806424   -0.250881
     57          6           0       12.364318    0.404352    0.200820
     58          6           0       13.692365    0.510902   -0.545452
     59          6           0       14.616330   -0.746806   -0.377148
     60          6           0       14.401028    1.756915   -0.209146
     61          6           0       15.571373    2.106427   -1.118658
     62          6           0       16.289978    3.365307   -0.620345
     63          6           0       17.538742    3.889674   -1.435134
     64          6           0       17.277381    3.909961   -2.964145
     65          6           0       18.069875    5.229504   -0.941960
     66          1           0       -2.831804    1.030222    3.556336
     67          1           0       -6.546003    5.585310    0.846077
     68          1           0       -8.826120    1.040264   -3.345696
     69          1           0       -3.732155   -3.481842    2.053116
     70          1           0       -2.036268   -1.225411    2.972362
     71          1           0       -2.731662   -2.593460    4.321045
     72          1           0       -3.450615   -0.935485    4.914622
     73          1           0       -4.533017   -2.037639    3.900893
     74          1           0       -2.543001   -3.293462   -0.135581
     75          1           0       -1.602481   -1.931885    0.184212
     76          1           0       -0.820200   -3.139418    2.399446
     77          1           0       -1.606155   -4.707329    1.741005
     78          1           0       -1.986401    3.550808    3.980797
     79          1           0       -3.061379    4.838325    4.888266
     80          1           0       -3.135311    2.844346    5.224839
     81          1           0       -5.605820    6.375272    2.076188
     82          1           0      -10.172068    3.017035   -3.180619
     83          1           0      -10.110709    4.664062   -3.053382
     84          1           0       -9.728016    4.177717   -5.315445
     85          1           0       -8.365002    4.973624   -4.462755
     86          1           0       -8.340413    3.265231   -4.959830
     87          1           0       -8.116608   -1.021129   -4.586538
     88          1           0       -8.221715   -2.794602   -4.178502
     89          1           0       -9.564966   -1.512656   -3.648248
     90          1           0       -4.382025   -3.812949   -1.502799
     91          1           0        2.424993   -5.903700    1.195447
     92          1           0        2.437268   -5.007285   -0.474239
     93          1           0        3.759057   -3.950504    1.963263
     94          1           0        2.887469   -3.442124   -1.446100
     95          1           0        3.618963   -1.755280   -1.349843
     96          1           0        4.504553   -3.129950   -1.989092
     97          1           0        4.977933   -1.227208    0.488335
     98          1           0        5.410834   -2.461224    2.057944
     99          1           0        7.131860   -3.754367    0.011059
    100          1           0        6.553186   -2.279791   -1.080412
    101          1           0        7.498801   -0.656608    0.719741
    102          1           0        7.762320   -1.859000    1.829038
    103          1           0        9.065788   -1.704424   -0.801325
    104          1           0        8.892981   -4.112931   -0.088223
    105          1           0       10.673772   -3.395374   -0.140652
    106          1           0        9.718807   -3.828106    1.301011
    107          1           0        9.545869    0.234187    0.558040
    108          1           0       10.227022   -1.106749    1.702286
    109          1           0       12.005296   -1.811340   -0.359485
    110          1           0       11.149366   -0.696688   -1.172593
    111          1           0       11.682293    1.348004   -0.078901
    112          1           0       12.468076    0.510186    1.157100
    113          1           0       13.455747    0.518797   -1.525806
    114          1           0       14.831558   -0.689665    0.596602
    115          1           0       14.042709   -1.643353   -0.422968
    116          1           0       15.858170   -0.822727   -0.787565
    117          1           0       13.784441    2.502404   -0.219722
    118          1           0       14.744948    1.819923    0.953894
    119          1           0       16.369184    1.219589   -1.047403
    120          1           0       15.085923    2.275618   -2.154959
    121          1           0       15.579351    4.241056   -0.702817
    122          1           0       16.604401    3.231015    0.395026
    123          1           0       18.262135    3.242884   -1.050741
    124          1           0       16.425379    4.595897   -3.285997
    125          1           0       18.232425    4.056008   -3.455311
    126          1           0       16.735245    3.002463   -3.253477
    127          1           0       18.416186    5.313770    0.054175
    128          1           0       18.895690    5.635340   -1.351066
    129          1           0       17.140758    5.927017   -1.124106
    130          1           0       -4.834084   -7.923948   -0.132728
    131          1           0       -6.396399   -7.225211    0.332307
    132          1           0       -5.087633   -6.595438    1.384848
    133          8           0       -8.083790    6.785476   -0.309830
    134          1           0       -9.313107    6.260790   -1.690806
 ---------------------------------------------------------------------

 SCF Done:  E(RCAM-B3LYP) =  -3043.35347686     A.U. after   16 cycles

 Excitation energies and oscillator strengths:

 Excited State   1:      Singlet-A      2.0211 eV  613.44 nm  f=0.1623  <S**2>=0.000
     243 -> 245       -0.10440
     243 -> 246        0.23219
     244 -> 245        0.62715
     244 -> 246        0.18662
 This state for optimization and/or second-order correction.
 Total Energy, E(TD-HF/TD-KS) =  -3043.27920210
 Copying the excited state density for this state as the 1-particle RhoCI density.

 The electronic state is 1-A.
 Alpha  occ. eigenvalues --  -46.81738 -19.23607 -19.21655 -19.19389 -19.18095
 Alpha  occ. eigenvalues --  -19.17792 -19.17139 -19.15482 -14.39194 -14.37406
 Alpha  occ. eigenvalues --  -14.36916 -14.36887 -10.35789 -10.35690 -10.31499
 Alpha  occ. eigenvalues --  -10.30685 -10.29135 -10.28628 -10.28309 -10.27818
 Alpha  occ. eigenvalues --  -10.27613 -10.26889 -10.26730 -10.26722 -10.26581
 Alpha  occ. eigenvalues --  -10.26560 -10.26477 -10.26306 -10.26263 -10.25924
 Alpha  occ. eigenvalues --  -10.25816 -10.24861 -10.24444 -10.24432 -10.24140
 Alpha  occ. eigenvalues --  -10.24139 -10.24023 -10.23958 -10.23812 -10.23782
 Alpha  occ. eigenvalues --  -10.23301 -10.23222 -10.22677 -10.22624 -10.22417
 Alpha  occ. eigenvalues --  -10.22363 -10.22241 -10.22184 -10.22091 -10.22034
 Alpha  occ. eigenvalues --  -10.21462 -10.21342 -10.21262 -10.21256 -10.21142
 Alpha  occ. eigenvalues --  -10.21086 -10.20990 -10.20876 -10.20490 -10.20403
 Alpha  occ. eigenvalues --  -10.20304 -10.20281 -10.19863 -10.19661 -10.19609
 Alpha  occ. eigenvalues --  -10.19032  -3.10307  -1.85248  -1.84763  -1.84730
 Alpha  occ. eigenvalues --   -1.14457  -1.13752  -1.09892  -1.05712  -1.05591
 Alpha  occ. eigenvalues --   -1.05074  -1.04687  -1.01310  -1.00705  -0.99923
 Alpha  occ. eigenvalues --   -0.97927  -0.89720  -0.86745  -0.86019  -0.85669
 Alpha  occ. eigenvalues --   -0.85340  -0.85098  -0.84745  -0.84579  -0.84066
 Alpha  occ. eigenvalues --   -0.83185  -0.82970  -0.81660  -0.80364  -0.79804
 Alpha  occ. eigenvalues --   -0.79215  -0.78229  -0.77791  -0.77693  -0.76227
 Alpha  occ. eigenvalues --   -0.75224  -0.74748  -0.73907  -0.73255  -0.72274
 Alpha  occ. eigenvalues --   -0.71340  -0.71237  -0.70900  -0.70426  -0.69817
 Alpha  occ. eigenvalues --   -0.69412  -0.68850  -0.68128  -0.67235  -0.66675
 Alpha  occ. eigenvalues --   -0.66094  -0.65643  -0.63959  -0.62768  -0.62045
 Alpha  occ. eigenvalues --   -0.61758  -0.61410  -0.60969  -0.60447  -0.60331
 Alpha  occ. eigenvalues --   -0.59833  -0.58673  -0.58109  -0.57745  -0.57080
 Alpha  occ. eigenvalues --   -0.56784  -0.56383  -0.55661  -0.54797  -0.54319
 Alpha  occ. eigenvalues --   -0.54011  -0.53883  -0.52711  -0.52340  -0.52182
 Alpha  occ. eigenvalues --   -0.52117  -0.51656  -0.51311  -0.51012  -0.50870
 Alpha  occ. eigenvalues --   -0.50279  -0.50029  -0.49875  -0.49745  -0.49472
 Alpha  occ. eigenvalues --   -0.49137  -0.49067  -0.48955  -0.48487  -0.48117
 Alpha  occ. eigenvalues --   -0.47733  -0.47572  -0.47545  -0.47174  -0.47012
 Alpha  occ. eigenvalues --   -0.46647  -0.46362  -0.46285  -0.46127  -0.45974
 Alpha  occ. eigenvalues --   -0.45796  -0.45477  -0.45188  -0.44986  -0.44950
 Alpha  occ. eigenvalues --   -0.44785  -0.44604  -0.44231  -0.44033  -0.43807
 Alpha  occ. eigenvalues --   -0.43585  -0.43314  -0.43156  -0.43101  -0.42921
 Alpha  occ. eigenvalues --   -0.42550  -0.42347  -0.42103  -0.42048  -0.42007
 Alpha  occ. eigenvalues --   -0.41610  -0.41440  -0.41290  -0.41212  -0.41006
 Alpha  occ. eigenvalues --   -0.40758  -0.40543  -0.40500  -0.40408  -0.40194
 Alpha  occ. eigenvalues --   -0.40160  -0.39788  -0.39713  -0.39571  -0.39404
 Alpha  occ. eigenvalues --   -0.39040  -0.38854  -0.38696  -0.38634  -0.38345
 Alpha  occ. eigenvalues --   -0.38184  -0.38055  -0.37973  -0.37609  -0.37130
 Alpha  occ. eigenvalues --   -0.37111  -0.36943  -0.36868  -0.36180  -0.35753
 Alpha  occ. eigenvalues --   -0.35453  -0.35165  -0.34846  -0.34722  -0.34613
 Alpha  occ. eigenvalues --   -0.34203  -0.34001  -0.33976  -0.33907  -0.33750
 Alpha  occ. eigenvalues --   -0.33388  -0.33268  -0.32716  -0.32298  -0.32139
 Alpha  occ. eigenvalues --   -0.31847  -0.31800  -0.31629  -0.30603  -0.29789
 Alpha  occ. eigenvalues --   -0.28890  -0.28518  -0.28238  -0.27839  -0.27754
 Alpha  occ. eigenvalues --   -0.27230  -0.26575  -0.23873  -0.21114
 Alpha virt. eigenvalues --   -0.08132  -0.07076  -0.02067  -0.00716   0.00622
 Alpha virt. eigenvalues --    0.02757   0.03167   0.03289   0.04100   0.04349
 Alpha virt. eigenvalues --    0.04986   0.06061   0.07107   0.08157   0.08652

 Mulliken charges:
               1
     1  Mg   0.822851
     2  C    0.034807
     3  C   -0.186184
     4  C   -0.187668
     5  C   -0.170458
     6  N   -0.654506
     7  C    0.304301
     8  C   -0.156560
     9  C   -0.171082
    10  C    0.372905
    11  C   -0.289518
    12  C   -0.149388
    13  C   -0.268141
    14  C    0.596785
    15  O   -0.403267
    16  O   -0.497370
    17  N   -0.707315
    18  C    0.331923
    19  C    0.058368
    20  C    0.034242
    21  C    0.290129
    22  C   -0.379569
    23  C    0.227341
    24  O   -0.437235
    25  N   -0.663795
    26  C    0.251960
    27  C    0.093275
    28  C   -0.026383
    29  C    0.285609
    30  C    0.186023
    31  C   -0.252425
    32  C   -0.304908
    33  N   -0.745612
    34  C    0.316125
    35  C   -0.001761
    36  C    0.040077
    37  C    0.328713
    38  C   -0.393766
    39  C    0.301372
    40  O   -0.433718
    41  C   -0.240794
    42  C    0.629913
    43  O   -0.478894
    44  O   -0.444420
    45  C   -0.112541
    46  C    0.002974
    47  C   -0.123421
    48  C    0.189758
    49  C   -0.377387
    50  C   -0.217755
    51  C   -0.156894
    52  C   -0.173013
    53  C   -0.016795
    54  C   -0.325222
    55  C   -0.182834
    56  C   -0.188224
    57  C   -0.181683
    58  C   -0.048744
    59  C   -0.313788
    60  C   -0.148748
    61  C   -0.166319
    62  C   -0.168473
    63  C   -0.059248
    64  C   -0.313258
    65  C   -0.302401
    66  H    0.076014
    67  H    0.138692
    68  H    0.108784
    69  H    0.081436
    70  H    0.114919
    71  H    0.058811
    72  H    0.122920
    73  H    0.144710
    74  H    0.127583
    75  H    0.131499
    76  H    0.138672
    77  H    0.120976
    78  H    0.138373
    79  H    0.152769
    80  H    0.098550
    81  H    0.058047
    82  H    0.107072
    83  H    0.118975
    84  H    0.097523
    85  H    0.130021
    86  H    0.107024
    87  H    0.128675
    88  H    0.156242
    89  H    0.133883
    90  H    0.131462
    91  H    0.119057
    92  H    0.118050
    93  H    0.062933
    94  H    0.129596
    95  H    0.103245
    96  H    0.100193
    97  H    0.076740
    98  H    0.071806
    99  H    0.078984
   100  H    0.092046
   101  H    0.094242
   102  H    0.061986
   103  H    0.096302
   104  H    0.104932
   105  H    0.109863
   106  H    0.083550
   107  H    0.070508
   108  H    0.089923
   109  H    0.076567
   110  H    0.114115
   111  H    0.066815
   112  H    0.106384
   113  H    0.092946
   114  H    0.119818
   115  H    0.098426
   116  H    0.068703
   117  H    0.098797
   118  H    0.050278
   119  H    0.076483
   120  H    0.083971
   121  H    0.072404
   122  H    0.092037
   123  H    0.090562
   124  H    0.092071
   125  H    0.108479
   126  H    0.104897
   127  H    0.095979
   128  H    0.107639
   129  H    0.076732
   130  H    0.134387
   131  H    0.142404
   132  H    0.150872
   133  O   -0.441863
   134  H    0.054543
 Sum of Mulliken charges =   0.00000

 Dipole moment (field-independent basis, Debye):
    X=              1.4191    Y=             -7.6573    Z=             -1.7871  Tot=              7.9901
 Quadrupole moment (field-independent basis, Debye-Ang):
   XX=           -383.6888   YY=           -449.2789   ZZ=           -395.5096
   XY=             34.8699   XZ=             28.8337   YZ=            -31.6903

 Normal termination of Gaussian 09 at Tue Oct  8 09:42:52 2019.
