 Gaussian 09, Revision D.01,
 Gaussian 09:  ES64L-G09RevD.01 24-Apr-2013

 ----------------------------------------------------------------------
 # td=(NStates=1) iop(3/107=0140000000,3/108=0140000000) iop(3/107=0140
 000000,3/108=0140000000) CAM-B3LYP/6-31G(d,p)
 ----------------------------------------------------------------------

 --
 TD
 --
 Symbolic Z-matrix:
 Charge =  0 Multiplicity = 1

                         Standard orientation:
 ---------------------------------------------------------------------
 Center     Atomic      Atomic             Coordinates (Angstroms)
 Number     Number       Type             X           Y           Z
 ---------------------------------------------------------------------
      1         12           0       -5.659248    1.177712    0.257507
      2          6           0       -5.079785   -2.206731   -0.169735
      3          6           0       -3.409706    1.216570    2.749226
      4          6           0       -6.320989    4.575051    0.634708
      5          6           0       -8.078148    1.167843   -2.317066
      6          7           0       -4.570105   -0.261025    1.202036
      7          6           0       -4.357351   -1.571198    0.755258
      8          6           0       -3.316212   -2.320459    1.577537
      9          6           0       -2.904368   -1.238526    2.685488
     10          6           0       -3.638342   -0.007787    2.146114
     11          6           0       -3.465971   -1.611353    4.065866
     12          6           0       -2.090970   -2.664673    0.605542
     13          6           0       -1.025559   -3.608095    1.298219
     14          6           0        0.196430   -3.948036    0.448380
     15          8           0        0.395414   -3.582737   -0.705090
     16          8           0        1.045474   -4.702262    1.219212
     17          7           0       -4.864907    2.652777    1.441688
     18          6           0       -4.066710    2.491050    2.501246
     19          6           0       -3.763207    3.804857    3.169762
     20          6           0       -4.527829    4.619135    2.514204
     21          6           0       -5.340269    3.938241    1.441658
     22          6           0       -2.736017    3.914699    4.293380
     23          6           0       -4.540759    6.072801    2.808528
     24          8           0       -3.971070    6.776627    3.637656
     25          7           0       -6.870985    2.608263   -0.702449
     26          6           0       -6.996102    3.955893   -0.335012
     27          6           0       -7.936993    4.598939   -1.255449
     28          6           0       -8.426446    3.702387   -2.147234
     29          6           0       -7.763767    2.436124   -1.708240
     30          6           0       -8.260310    5.974241   -1.282403
     31          6           0       -9.448311    3.839073   -3.218560
     32          6           0       -8.858102    3.801342   -4.683902
     33          7           0       -6.458575   -0.144916   -0.940407
     34          6           0       -7.461622   -0.032088   -1.927136
     35          6           0       -7.559054   -1.407486   -2.562618
     36          6           0       -6.751456   -2.253061   -1.946850
     37          6           0       -5.935056   -1.426409   -1.013767
     38          6           0       -8.569883   -1.672529   -3.711250
     39          6           0       -6.252719   -3.529468   -1.904512
     40          8           0       -6.567912   -4.520823   -2.500172
     41          6           0       -5.004208   -3.528504   -0.863028
     42          6           0       -5.294697   -4.621461    0.179198
     43          8           0       -5.821092   -4.504790    1.289410
     44          8           0       -4.835428   -5.796864   -0.313213
     45          6           0       -5.254384   -6.914543    0.579608
     46          6           0        2.348306   -5.080028    0.467414
     47          6           0        3.495684   -4.223232    0.922115
     48          6           0        4.042727   -3.351874    0.075603
     49          6           0        3.779497   -3.204487   -1.362738
     50          6           0        5.258157   -2.479078    0.571148
     51          6           0        6.609437   -2.746260    0.028452
     52          6           0        7.713366   -1.768158    0.601836
     53          6           0        9.125367   -1.937873   -0.096695
     54          6           0        9.522418   -3.445062    0.081846
     55          6           0       10.081403   -0.910641    0.526954
     56          6           0       11.405125   -0.954803   -0.266652
     57          6           0       12.362875    0.230787    0.329373
     58          6           0       13.655510    0.512315   -0.549510
     59          6           0       14.565249   -0.732867   -0.510214
     60          6           0       14.330472    1.802301   -0.109776
     61          6           0       15.525708    2.155669   -1.083058
     62          6           0       15.972650    3.519318   -0.670217
     63          6           0       17.257411    3.957459   -1.361063
     64          6           0       17.160525    4.228509   -2.798194
     65          6           0       17.828710    5.211367   -0.610665
     66          1           0       -2.742811    1.257653    3.699374
     67          1           0       -6.431225    5.695075    0.774724
     68          1           0       -8.668614    1.160162   -3.175616
     69          1           0       -3.819496   -3.237160    1.976697
     70          1           0       -1.813257   -1.224966    2.675669
     71          1           0       -3.185318   -2.691786    4.279221
     72          1           0       -3.195331   -0.909068    4.956986
     73          1           0       -4.585288   -1.821677    3.873153
     74          1           0       -2.473265   -3.032638   -0.411981
     75          1           0       -1.526795   -1.741201    0.274130
     76          1           0       -0.775702   -3.269716    2.285875
     77          1           0       -1.386758   -4.776174    1.442327
     78          1           0       -1.832051    3.279897    4.015201
     79          1           0       -2.573787    4.872887    4.407541
     80          1           0       -3.010116    3.423810    5.111893
     81          1           0       -5.327850    6.715141    2.197913
     82          1           0      -10.044667    3.005967   -3.220090
     83          1           0      -10.113131    4.761366   -3.119700
     84          1           0       -9.849168    3.911506   -5.316778
     85          1           0       -8.134925    4.452055   -4.710688
     86          1           0       -8.377191    2.932435   -5.044841
     87          1           0       -8.224121   -1.122181   -4.659996
     88          1           0       -8.648438   -2.661597   -3.814997
     89          1           0       -9.589654   -1.617417   -3.469751
     90          1           0       -4.209524   -3.738029   -1.547251
     91          1           0        2.474230   -6.150545    0.784760
     92          1           0        1.907185   -4.799217   -0.525853
     93          1           0        3.654050   -4.467844    1.998663
     94          1           0        2.705625   -3.377828   -1.770119
     95          1           0        4.181944   -2.194381   -1.852418
     96          1           0        4.378091   -4.026784   -1.907054
     97          1           0        4.931182   -1.314369    0.283250
     98          1           0        5.243151   -2.467726    1.660789
     99          1           0        7.045842   -3.674867    0.324209
    100          1           0        6.693455   -2.479665   -0.907778
    101          1           0        7.267870   -0.816967    0.549589
    102          1           0        7.848660   -1.968821    1.731462
    103          1           0        9.140369   -1.689878   -1.100931
    104          1           0        8.698262   -4.211655   -0.142397
    105          1           0       10.334481   -3.784899   -0.491105
    106          1           0        9.806093   -3.780255    1.193575
    107          1           0        9.859614    0.109945    0.372139
    108          1           0       10.316277   -1.101652    1.539419
    109          1           0       11.877169   -1.946485    0.156380
    110          1           0       11.224468   -0.961475   -1.393805
    111          1           0       11.795061    1.068744    0.252890
    112          1           0       12.455655   -0.176131    1.407696
    113          1           0       13.335580    0.508664   -1.585099
    114          1           0       14.850201   -0.930866    0.588934
    115          1           0       14.089677   -1.524646   -1.157393
    116          1           0       15.642709   -0.516269   -1.000065
    117          1           0       13.463565    2.598676    0.005057
    118          1           0       14.726513    1.630537    0.826562
    119          1           0       16.217560    1.331556   -0.871185
    120          1           0       15.418808    1.987800   -2.061038
    121          1           0       15.277271    4.264808   -0.986904
    122          1           0       16.313968    3.391281    0.482241
    123          1           0       17.892060    3.104410   -1.108038
    124          1           0       16.539788    5.255765   -2.881021
    125          1           0       18.278486    4.552840   -3.149677
    126          1           0       16.680438    3.467408   -3.454527
    127          1           0       18.183297    5.001068    0.455101
    128          1           0       18.885804    5.764707   -1.209137
    129          1           0       16.948198    5.975265   -0.711767
    130          1           0       -5.189766   -7.839509   -0.124617
    131          1           0       -6.397701   -6.642923    0.884388
    132          1           0       -4.772717   -7.169094    1.513128
    133          8           0       -7.804282    6.813337   -0.573775
    134          1           0       -8.760192    6.423599   -2.184433
 ---------------------------------------------------------------------

 SCF Done:  E(RCAM-B3LYP) =  -3043.48146123     A.U. after   15 cycles

 Excitation energies and oscillator strengths:

 Excited State   1:      Singlet-A      1.9611 eV  632.21 nm  f=0.2356  <S**2>=0.000
     243 -> 246        0.21342
     244 -> 245        0.66848
 This state for optimization and/or second-order correction.
 Total Energy, E(TD-HF/TD-KS) =  -3043.40939179
 Copying the excited state density for this state as the 1-particle RhoCI density.

 The electronic state is 1-A.
 Alpha  occ. eigenvalues --  -46.80856 -19.23433 -19.21074 -19.17802 -19.17522
 Alpha  occ. eigenvalues --  -19.17387 -19.17049 -19.16435 -14.39063 -14.37466
 Alpha  occ. eigenvalues --  -14.37411 -14.37315 -10.35523 -10.35043 -10.31120
 Alpha  occ. eigenvalues --  -10.30440 -10.29242 -10.28584 -10.27549 -10.27119
 Alpha  occ. eigenvalues --  -10.27006 -10.26986 -10.26981 -10.26927 -10.26760
 Alpha  occ. eigenvalues --  -10.26758 -10.25802 -10.25756 -10.25065 -10.25048
 Alpha  occ. eigenvalues --  -10.24671 -10.24556 -10.24531 -10.24484 -10.24466
 Alpha  occ. eigenvalues --  -10.24070 -10.23911 -10.23805 -10.23765 -10.23488
 Alpha  occ. eigenvalues --  -10.23415 -10.23361 -10.23298 -10.23025 -10.22939
 Alpha  occ. eigenvalues --  -10.22767 -10.22304 -10.22228 -10.22165 -10.22006
 Alpha  occ. eigenvalues --  -10.21988 -10.21863 -10.21804 -10.21764 -10.21759
 Alpha  occ. eigenvalues --  -10.21607 -10.21323 -10.21038 -10.20998 -10.20942
 Alpha  occ. eigenvalues --  -10.20881 -10.20873 -10.20845 -10.19846 -10.19744
 Alpha  occ. eigenvalues --  -10.19454  -3.09675  -1.84602  -1.84155  -1.84094
 Alpha  occ. eigenvalues --   -1.13029  -1.11082  -1.08438  -1.08258  -1.05828
 Alpha  occ. eigenvalues --   -1.04125  -1.03284  -1.00770  -0.99777  -0.99321
 Alpha  occ. eigenvalues --   -0.98082  -0.89089  -0.86002  -0.85731  -0.85601
 Alpha  occ. eigenvalues --   -0.84756  -0.84613  -0.84600  -0.84325  -0.84129
 Alpha  occ. eigenvalues --   -0.83022  -0.82635  -0.81091  -0.80553  -0.79631
 Alpha  occ. eigenvalues --   -0.79557  -0.78175  -0.77795  -0.76757  -0.76144
 Alpha  occ. eigenvalues --   -0.75833  -0.74897  -0.73911  -0.72537  -0.72205
 Alpha  occ. eigenvalues --   -0.70368  -0.70105  -0.69849  -0.69647  -0.69618
 Alpha  occ. eigenvalues --   -0.68825  -0.68147  -0.67249  -0.67008  -0.66065
 Alpha  occ. eigenvalues --   -0.65743  -0.64463  -0.64194  -0.62794  -0.62222
 Alpha  occ. eigenvalues --   -0.61574  -0.60917  -0.60302  -0.59800  -0.58916
 Alpha  occ. eigenvalues --   -0.58750  -0.58371  -0.57479  -0.57226  -0.56506
 Alpha  occ. eigenvalues --   -0.56390  -0.56009  -0.55813  -0.54786  -0.54581
 Alpha  occ. eigenvalues --   -0.53991  -0.53445  -0.52922  -0.52536  -0.52157
 Alpha  occ. eigenvalues --   -0.52018  -0.51463  -0.50949  -0.50708  -0.50625
 Alpha  occ. eigenvalues --   -0.50333  -0.50088  -0.49697  -0.49065  -0.48815
 Alpha  occ. eigenvalues --   -0.48706  -0.48579  -0.48308  -0.48259  -0.48181
 Alpha  occ. eigenvalues --   -0.47733  -0.47660  -0.47336  -0.47099  -0.46914
 Alpha  occ. eigenvalues --   -0.46751  -0.46486  -0.46284  -0.46001  -0.45976
 Alpha  occ. eigenvalues --   -0.45873  -0.45486  -0.45258  -0.45074  -0.44512
 Alpha  occ. eigenvalues --   -0.44349  -0.44130  -0.43935  -0.43797  -0.43565
 Alpha  occ. eigenvalues --   -0.43376  -0.43116  -0.42819  -0.42658  -0.42541
 Alpha  occ. eigenvalues --   -0.42448  -0.42179  -0.42073  -0.41969  -0.41686
 Alpha  occ. eigenvalues --   -0.41348  -0.41191  -0.41114  -0.40939  -0.40904
 Alpha  occ. eigenvalues --   -0.40751  -0.40654  -0.40380  -0.40287  -0.40119
 Alpha  occ. eigenvalues --   -0.40066  -0.39865  -0.39552  -0.39391  -0.39234
 Alpha  occ. eigenvalues --   -0.38931  -0.38861  -0.38380  -0.38214  -0.38162
 Alpha  occ. eigenvalues --   -0.37860  -0.37577  -0.37497  -0.37326  -0.36969
 Alpha  occ. eigenvalues --   -0.36755  -0.36358  -0.36080  -0.35927  -0.35768
 Alpha  occ. eigenvalues --   -0.35685  -0.35458  -0.35330  -0.35099  -0.34959
 Alpha  occ. eigenvalues --   -0.34790  -0.34351  -0.34042  -0.33886  -0.33846
 Alpha  occ. eigenvalues --   -0.33168  -0.32731  -0.32424  -0.32293  -0.31337
 Alpha  occ. eigenvalues --   -0.31057  -0.30991  -0.30830  -0.30417  -0.29879
 Alpha  occ. eigenvalues --   -0.29182  -0.29168  -0.28508  -0.28148  -0.27705
 Alpha  occ. eigenvalues --   -0.27247  -0.26776  -0.23549  -0.20982
 Alpha virt. eigenvalues --   -0.08452  -0.06020  -0.01707  -0.00357   0.00761
 Alpha virt. eigenvalues --    0.02686   0.02754   0.03894   0.03934   0.04225
 Alpha virt. eigenvalues --    0.04827   0.06375   0.08038   0.08604   0.09104

 Mulliken charges:
               1
     1  Mg   0.824290
     2  C    0.108042
     3  C   -0.208094
     4  C   -0.183372
     5  C   -0.150366
     6  N   -0.637395
     7  C    0.300057
     8  C   -0.173377
     9  C   -0.131736
    10  C    0.362943
    11  C   -0.305903
    12  C   -0.189289
    13  C   -0.244769
    14  C    0.609933
    15  O   -0.485057
    16  O   -0.498337
    17  N   -0.686465
    18  C    0.271598
    19  C    0.073684
    20  C   -0.072081
    21  C    0.321909
    22  C   -0.342858
    23  C    0.237794
    24  O   -0.422445
    25  N   -0.680452
    26  C    0.332026
    27  C   -0.023331
    28  C    0.065440
    29  C    0.267736
    30  C    0.212514
    31  C   -0.258064
    32  C   -0.314725
    33  N   -0.714304
    34  C    0.289819
    35  C   -0.057249
    36  C    0.161537
    37  C    0.203509
    38  C   -0.371471
    39  C    0.304180
    40  O   -0.445028
    41  C   -0.337376
    42  C    0.655385
    43  O   -0.491068
    44  O   -0.444167
    45  C   -0.102536
    46  C   -0.032285
    47  C   -0.111118
    48  C    0.153430
    49  C   -0.386615
    50  C   -0.230944
    51  C   -0.148046
    52  C   -0.193378
    53  C   -0.043731
    54  C   -0.328676
    55  C   -0.162224
    56  C   -0.214062
    57  C   -0.170373
    58  C   -0.060166
    59  C   -0.302969
    60  C   -0.162459
    61  C   -0.183850
    62  C   -0.142689
    63  C   -0.054660
    64  C   -0.285226
    65  C   -0.273936
    66  H    0.072270
    67  H    0.154759
    68  H    0.091295
    69  H    0.131115
    70  H    0.110706
    71  H    0.107164
    72  H    0.109940
    73  H    0.121529
    74  H    0.114234
    75  H    0.119368
    76  H    0.141480
    77  H    0.117525
    78  H    0.112012
    79  H    0.149174
    80  H    0.142100
    81  H    0.050921
    82  H    0.127897
    83  H    0.116530
    84  H    0.099092
    85  H    0.130997
    86  H    0.116078
    87  H    0.122752
    88  H    0.144385
    89  H    0.131658
    90  H    0.167261
    91  H    0.114356
    92  H    0.142777
    93  H    0.096694
    94  H    0.146784
    95  H    0.100033
    96  H    0.122319
    97  H    0.061488
    98  H    0.097433
    99  H    0.107525
   100  H    0.105726
   101  H    0.091304
   102  H    0.074392
   103  H    0.090979
   104  H    0.100575
   105  H    0.113585
   106  H    0.082264
   107  H    0.097614
   108  H    0.096009
   109  H    0.085615
   110  H    0.079851
   111  H    0.095790
   112  H    0.083412
   113  H    0.085602
   114  H    0.093497
   115  H    0.108676
   116  H    0.070474
   117  H    0.072202
   118  H    0.104277
   119  H    0.092746
   120  H    0.098682
   121  H    0.091435
   122  H    0.073932
   123  H    0.082787
   124  H    0.075172
   125  H    0.089566
   126  H    0.103904
   127  H    0.102014
   128  H    0.045057
   129  H    0.091082
   130  H    0.119483
   131  H    0.129602
   132  H    0.139350
   133  O   -0.406056
   134  H    0.050646
 Sum of Mulliken charges =   0.00000

 Dipole moment (field-independent basis, Debye):
    X=              1.9130    Y=             -5.2904    Z=             -1.6804  Tot=              5.8712
 Quadrupole moment (field-independent basis, Debye-Ang):
   XX=           -380.4060   YY=           -451.4315   ZZ=           -388.7761
   XY=              0.4003   XZ=             26.6559   YZ=            -33.1459

 Normal termination of Gaussian 09 at Thu Oct  3 17:46:24 2019.
