 Gaussian 09, Revision D.01,
 Gaussian 09:  ES64L-G09RevD.01 24-Apr-2013

 ----------------------------------------------------------------------
 # td=(NStates=1) iop(3/107=0140000000,3/108=0140000000) iop(3/107=0140
 000000,3/108=0140000000) CAM-B3LYP/6-31G(d,p)
 ----------------------------------------------------------------------

 --
 TD
 --
 Symbolic Z-matrix:
 Charge =  0 Multiplicity = 1

                         Standard orientation:
 ---------------------------------------------------------------------
 Center     Atomic      Atomic             Coordinates (Angstroms)
 Number     Number       Type             X           Y           Z
 ---------------------------------------------------------------------
      1         12           0       -5.599680    1.260741    0.206002
      2          6           0       -5.080548   -2.110549   -0.423079
      3          6           0       -3.228375    1.219732    2.625435
      4          6           0       -6.328180    4.489659    0.633087
      5          6           0       -8.018575    1.165108   -2.372790
      6          7           0       -4.355241   -0.267942    0.946842
      7          6           0       -4.238936   -1.485755    0.567022
      8          6           0       -3.178097   -2.309135    1.417701
      9          6           0       -2.864945   -1.234789    2.616118
     10          6           0       -3.420902   -0.052626    2.036949
     11          6           0       -3.401423   -1.756438    3.945061
     12          6           0       -1.926615   -2.658036    0.564829
     13          6           0       -1.023664   -3.598240    1.265846
     14          6           0        0.272368   -3.970844    0.475861
     15          8           0        0.506579   -3.713809   -0.678750
     16          8           0        1.053191   -4.789541    1.207206
     17          7           0       -4.836611    2.639843    1.455002
     18          6           0       -3.989211    2.486349    2.391464
     19          6           0       -3.706690    3.702198    3.179538
     20          6           0       -4.493461    4.644315    2.612996
     21          6           0       -5.284671    3.981640    1.562966
     22          6           0       -2.728395    3.782132    4.239606
     23          6           0       -4.679929    6.005201    2.966569
     24          8           0       -3.972843    6.594866    3.755619
     25          7           0       -6.946149    2.582692   -0.653833
     26          6           0       -7.033613    3.911713   -0.359296
     27          6           0       -8.066945    4.603146   -1.178972
     28          6           0       -8.602624    3.655675   -2.009026
     29          6           0       -7.913671    2.371285   -1.653404
     30          6           0       -8.433431    6.058116   -1.178609
     31          6           0       -9.473347    3.774612   -3.118264
     32          6           0       -8.872372    3.796406   -4.459675
     33          7           0       -6.510258   -0.118424   -0.999778
     34          6           0       -7.477245   -0.108743   -2.048307
     35          6           0       -7.684463   -1.333802   -2.679200
     36          6           0       -6.852778   -2.158475   -2.059370
     37          6           0       -6.009221   -1.413428   -1.150344
     38          6           0       -8.685654   -1.592944   -3.622442
     39          6           0       -6.366471   -3.566551   -1.903152
     40          8           0       -6.626177   -4.593367   -2.498238
     41          6           0       -4.954517   -3.485935   -0.987220
     42          6           0       -5.162962   -4.523622    0.092318
     43          8           0       -5.692904   -4.397469    1.184018
     44          8           0       -4.919642   -5.766983   -0.339137
     45          6           0       -5.313362   -6.839287    0.597520
     46          6           0        2.336328   -5.204314    0.644776
     47          6           0        3.419278   -4.160676    1.051425
     48          6           0        4.082625   -3.282352    0.283337
     49          6           0        3.760456   -3.208884   -1.177592
     50          6           0        5.239488   -2.506721    0.771821
     51          6           0        6.590375   -2.706551    0.063709
     52          6           0        7.676033   -1.852473    0.640032
     53          6           0        9.016359   -1.920411    0.094640
     54          6           0        9.589338   -3.281443    0.292686
     55          6           0       10.015021   -0.737660    0.421908
     56          6           0       11.349386   -0.764275   -0.210803
     57          6           0       12.245723    0.358079    0.285381
     58          6           0       13.605841    0.456800   -0.525292
     59          6           0       14.499363   -0.735091   -0.303877
     60          6           0       14.326438    1.834764   -0.232099
     61          6           0       15.413117    2.158446   -1.190568
     62          6           0       16.147390    3.477870   -0.663216
     63          6           0       17.417473    3.868740   -1.514386
     64          6           0       16.941666    4.185911   -3.082148
     65          6           0       17.915454    5.128221   -0.862925
     66          1           0       -2.751255    1.175698    3.482688
     67          1           0       -6.407247    5.443484    0.774246
     68          1           0       -8.819010    1.229638   -3.042865
     69          1           0       -3.707384   -3.273231    1.890167
     70          1           0       -1.771565   -1.198724    2.640978
     71          1           0       -2.854813   -2.760248    3.964139
     72          1           0       -2.979983   -1.076536    4.697307
     73          1           0       -4.480010   -1.974516    3.919134
     74          1           0       -2.366610   -3.135519   -0.342527
     75          1           0       -1.219675   -1.788812    0.266052
     76          1           0       -0.372431   -3.136104    2.106060
     77          1           0       -1.301464   -4.404132    1.633699
     78          1           0       -1.723065    3.629436    4.159049
     79          1           0       -2.737956    4.923028    4.541974
     80          1           0       -3.060540    3.124749    4.922981
     81          1           0       -5.297913    6.679413    2.553542
     82          1           0      -10.110080    2.844930   -3.048084
     83          1           0      -10.166637    4.581617   -2.746627
     84          1           0       -9.523216    3.650387   -5.440548
     85          1           0       -8.126437    4.497480   -4.542306
     86          1           0       -8.052755    2.930121   -4.636851
     87          1           0       -8.678879   -0.993922   -4.564221
     88          1           0       -8.709471   -2.707960   -4.023512
     89          1           0       -9.637301   -1.530612   -3.183683
     90          1           0       -4.125812   -3.891137   -1.564058
     91          1           0        2.471358   -6.066614    0.993966
     92          1           0        2.146494   -5.315195   -0.418333
     93          1           0        3.656380   -4.156952    2.054068
     94          1           0        2.808422   -3.457157   -1.239379
     95          1           0        4.383289   -2.483394   -1.794067
     96          1           0        4.264887   -4.026870   -1.674538
     97          1           0        4.984219   -1.448348    0.593133
     98          1           0        5.250410   -2.601201    1.899767
     99          1           0        6.801067   -3.727145    0.309865
    100          1           0        6.812496   -2.595883   -1.014050
    101          1           0        7.447935   -0.962375    0.541507
    102          1           0        7.937670   -2.021852    1.639444
    103          1           0        9.002334   -1.924990   -1.052183
    104          1           0        8.870145   -3.958285   -0.193312
    105          1           0       10.639193   -3.562651   -0.109623
    106          1           0        9.615631   -3.443602    1.467982
    107          1           0        9.612110    0.341168    0.321451
    108          1           0       10.280829   -0.882943    1.531101
    109          1           0       11.902405   -1.631918    0.115482
    110          1           0       11.092182   -0.604530   -1.260469
    111          1           0       11.761662    1.199684    0.485559
    112          1           0       12.606579    0.194346    1.279474
    113          1           0       13.319970    0.559736   -1.781243
    114          1           0       14.731097   -0.688983    0.837514
    115          1           0       14.145245   -1.504635   -0.580415
    116          1           0       15.654081   -0.551175   -0.623772
    117          1           0       13.594712    2.569453   -0.310139
    118          1           0       14.809916    2.045011    0.883245
    119          1           0       16.270140    1.472816   -1.023067
    120          1           0       15.042851    2.167979   -2.223317
    121          1           0       15.301193    4.362003   -0.563873
    122          1           0       16.435717    3.417064    0.485188
    123          1           0       18.241419    3.059723   -1.401626
    124          1           0       16.234849    4.860517   -2.976694
    125          1           0       17.956913    4.381714   -3.644259
    126          1           0       16.538418    3.385131   -3.564687
    127          1           0       18.135595    5.024108    0.127545
    128          1           0       18.714858    5.277753   -1.340539
    129          1           0       17.265335    6.085987   -1.014909
    130          1           0       -5.124463   -7.598184   -0.174217
    131          1           0       -6.396052   -6.869645    0.737245
    132          1           0       -4.691990   -7.011289    1.575323
    133          8           0       -7.939537    6.837871   -0.423122
    134          1           0       -9.266737    6.162072   -1.934606
 ---------------------------------------------------------------------

 SCF Done:  E(RCAM-B3LYP) =  -3043.32223091     A.U. after   16 cycles

 Excitation energies and oscillator strengths:

 Excited State   1:      Singlet-A      1.9329 eV  641.45 nm  f=0.2562  <S**2>=0.000
     243 -> 246        0.21683
     244 -> 245        0.66870
 This state for optimization and/or second-order correction.
 Total Energy, E(TD-HF/TD-KS) =  -3043.25119867
 Copying the excited state density for this state as the 1-particle RhoCI density.

 The electronic state is 1-A.
 Alpha  occ. eigenvalues --  -46.81614 -19.21936 -19.21537 -19.18474 -19.18230
 Alpha  occ. eigenvalues --  -19.16813 -19.15932 -19.15655 -14.39176 -14.37090
 Alpha  occ. eigenvalues --  -14.37046 -14.36205 -10.34603 -10.33841 -10.32716
 Alpha  occ. eigenvalues --  -10.31487 -10.28065 -10.27791 -10.27678 -10.27056
 Alpha  occ. eigenvalues --  -10.26712 -10.26450 -10.26362 -10.26143 -10.25958
 Alpha  occ. eigenvalues --  -10.25653 -10.25487 -10.25187 -10.25121 -10.24375
 Alpha  occ. eigenvalues --  -10.24218 -10.24135 -10.23930 -10.23735 -10.23482
 Alpha  occ. eigenvalues --  -10.23430 -10.23388 -10.23379 -10.23122 -10.23078
 Alpha  occ. eigenvalues --  -10.22964 -10.22936 -10.22833 -10.22768 -10.22748
 Alpha  occ. eigenvalues --  -10.22670 -10.22510 -10.22458 -10.22430 -10.22354
 Alpha  occ. eigenvalues --  -10.22256 -10.21641 -10.21564 -10.21546 -10.21300
 Alpha  occ. eigenvalues --  -10.20649 -10.20599 -10.20361 -10.20129 -10.19812
 Alpha  occ. eigenvalues --  -10.19809 -10.19809 -10.19342 -10.19292 -10.18003
 Alpha  occ. eigenvalues --  -10.17796  -3.10186  -1.85124  -1.84669  -1.84588
 Alpha  occ. eigenvalues --   -1.13100  -1.13080  -1.09165  -1.07696  -1.06547
 Alpha  occ. eigenvalues --   -1.04432  -1.02976  -1.01067  -1.00328  -0.99073
 Alpha  occ. eigenvalues --   -0.98165  -0.88038  -0.87681  -0.87196  -0.86218
 Alpha  occ. eigenvalues --   -0.85704  -0.85476  -0.84578  -0.84494  -0.84121
 Alpha  occ. eigenvalues --   -0.83398  -0.82861  -0.81498  -0.80910  -0.79660
 Alpha  occ. eigenvalues --   -0.79219  -0.78819  -0.77879  -0.77225  -0.76904
 Alpha  occ. eigenvalues --   -0.76268  -0.75705  -0.74230  -0.72680  -0.72504
 Alpha  occ. eigenvalues --   -0.72160  -0.72124  -0.71054  -0.70517  -0.70186
 Alpha  occ. eigenvalues --   -0.69474  -0.68928  -0.68235  -0.67449  -0.66901
 Alpha  occ. eigenvalues --   -0.66334  -0.65433  -0.64028  -0.62754  -0.61870
 Alpha  occ. eigenvalues --   -0.61562  -0.60679  -0.60508  -0.58686  -0.58379
 Alpha  occ. eigenvalues --   -0.58252  -0.57959  -0.57785  -0.57364  -0.56776
 Alpha  occ. eigenvalues --   -0.56420  -0.55973  -0.55683  -0.55192  -0.54650
 Alpha  occ. eigenvalues --   -0.54171  -0.53566  -0.53219  -0.53141  -0.52956
 Alpha  occ. eigenvalues --   -0.52617  -0.52007  -0.51489  -0.51373  -0.50825
 Alpha  occ. eigenvalues --   -0.50576  -0.50254  -0.50048  -0.49853  -0.49463
 Alpha  occ. eigenvalues --   -0.49159  -0.49017  -0.48959  -0.48548  -0.48444
 Alpha  occ. eigenvalues --   -0.48146  -0.48050  -0.47764  -0.47560  -0.47525
 Alpha  occ. eigenvalues --   -0.47145  -0.46906  -0.46489  -0.46294  -0.45971
 Alpha  occ. eigenvalues --   -0.45894  -0.45871  -0.45522  -0.45392  -0.45208
 Alpha  occ. eigenvalues --   -0.44779  -0.44694  -0.44528  -0.44321  -0.44128
 Alpha  occ. eigenvalues --   -0.43955  -0.43728  -0.43440  -0.43285  -0.43086
 Alpha  occ. eigenvalues --   -0.42839  -0.42679  -0.42645  -0.42544  -0.42231
 Alpha  occ. eigenvalues --   -0.41825  -0.41646  -0.41566  -0.41180  -0.41042
 Alpha  occ. eigenvalues --   -0.40931  -0.40843  -0.40616  -0.40486  -0.40188
 Alpha  occ. eigenvalues --   -0.40029  -0.39927  -0.39684  -0.39390  -0.39166
 Alpha  occ. eigenvalues --   -0.39028  -0.38771  -0.38613  -0.38467  -0.38428
 Alpha  occ. eigenvalues --   -0.38178  -0.37793  -0.37465  -0.37352  -0.37248
 Alpha  occ. eigenvalues --   -0.36795  -0.36598  -0.36369  -0.36018  -0.35848
 Alpha  occ. eigenvalues --   -0.35444  -0.35016  -0.34933  -0.34652  -0.34608
 Alpha  occ. eigenvalues --   -0.34503  -0.33906  -0.33624  -0.33228  -0.32944
 Alpha  occ. eigenvalues --   -0.32881  -0.32705  -0.32337  -0.31787  -0.31345
 Alpha  occ. eigenvalues --   -0.30754  -0.30166  -0.30038  -0.29812  -0.29650
 Alpha  occ. eigenvalues --   -0.29340  -0.28654  -0.28294  -0.28044  -0.27702
 Alpha  occ. eigenvalues --   -0.26646  -0.26525  -0.22810  -0.20745
 Alpha virt. eigenvalues --   -0.08473  -0.05782  -0.01571  -0.00636   0.00496
 Alpha virt. eigenvalues --    0.03297   0.03499   0.03822   0.04171   0.04432
 Alpha virt. eigenvalues --    0.05172   0.05749   0.07732   0.08455   0.10068

 Mulliken charges:
               1
     1  Mg   0.821536
     2  C    0.097498
     3  C   -0.152738
     4  C   -0.132575
     5  C   -0.166791
     6  N   -0.612412
     7  C    0.348274
     8  C   -0.187063
     9  C   -0.154270
    10  C    0.299008
    11  C   -0.291793
    12  C   -0.164766
    13  C   -0.225386
    14  C    0.565357
    15  O   -0.463844
    16  O   -0.476919
    17  N   -0.670415
    18  C    0.299931
    19  C    0.046420
    20  C    0.008680
    21  C    0.203997
    22  C   -0.400532
    23  C    0.229674
    24  O   -0.422430
    25  N   -0.670115
    26  C    0.316851
    27  C   -0.004198
    28  C    0.020813
    29  C    0.262839
    30  C    0.272625
    31  C   -0.246872
    32  C   -0.310117
    33  N   -0.679563
    34  C    0.247706
    35  C    0.084662
    36  C    0.054022
    37  C    0.233127
    38  C   -0.424157
    39  C    0.366754
    40  O   -0.433411
    41  C   -0.341837
    42  C    0.610612
    43  O   -0.491893
    44  O   -0.453814
    45  C   -0.090028
    46  C    0.025398
    47  C   -0.159993
    48  C    0.154282
    49  C   -0.375942
    50  C   -0.244411
    51  C   -0.191729
    52  C   -0.112703
    53  C   -0.088278
    54  C   -0.296843
    55  C   -0.178927
    56  C   -0.156355
    57  C   -0.184264
    58  C   -0.044319
    59  C   -0.268542
    60  C   -0.162356
    61  C   -0.161322
    62  C   -0.165786
    63  C   -0.079283
    64  C   -0.309671
    65  C   -0.279596
    66  H    0.059596
    67  H    0.080601
    68  H    0.069889
    69  H    0.125716
    70  H    0.115116
    71  H    0.106168
    72  H    0.112574
    73  H    0.136783
    74  H    0.119091
    75  H    0.117745
    76  H    0.119475
    77  H    0.134167
    78  H    0.136149
    79  H    0.148264
    80  H    0.129033
    81  H    0.082949
    82  H    0.111633
    83  H    0.108045
    84  H    0.110760
    85  H    0.129926
    86  H    0.094829
    87  H    0.128313
    88  H    0.129686
    89  H    0.148304
    90  H    0.155539
    91  H    0.113669
    92  H    0.124488
    93  H    0.072916
    94  H    0.150714
    95  H    0.101906
    96  H    0.118344
    97  H    0.103938
    98  H    0.096232
    99  H    0.109738
   100  H    0.098245
   101  H    0.095247
   102  H    0.089415
   103  H    0.056477
   104  H    0.105419
   105  H    0.094996
   106  H    0.070910
   107  H    0.077633
   108  H    0.066714
   109  H    0.104116
   110  H    0.094353
   111  H    0.090776
   112  H    0.090406
   113  H    0.027647
   114  H    0.085456
   115  H    0.105454
   116  H    0.083776
   117  H    0.098695
   118  H    0.053984
   119  H    0.093680
   120  H    0.096333
   121  H    0.054691
   122  H    0.072602
   123  H    0.076835
   124  H    0.121111
   125  H    0.086645
   126  H    0.113924
   127  H    0.104846
   128  H    0.104281
   129  H    0.083075
   130  H    0.129071
   131  H    0.142764
   132  H    0.121611
   133  O   -0.401183
   134  H    0.065894
 Sum of Mulliken charges =   0.00000

 Dipole moment (field-independent basis, Debye):
    X=              1.6072    Y=             -4.2186    Z=             -1.4834  Tot=              4.7519
 Quadrupole moment (field-independent basis, Debye-Ang):
   XX=           -360.7840   YY=           -437.6753   ZZ=           -392.5224
   XY=              2.7457   XZ=             26.5479   YZ=            -33.9501

 Normal termination of Gaussian 09 at Thu Oct  3 14:04:04 2019.
