 Gaussian 09, Revision D.01,
 Gaussian 09:  ES64L-G09RevD.01 24-Apr-2013

 ----------------------------------------------------------------------
 # td=(NStates=1) iop(3/107=0140000000,3/108=0140000000) iop(3/107=0140
 000000,3/108=0140000000) CAM-B3LYP/6-31G(d,p)
 ----------------------------------------------------------------------

 --
 TD
 --
 Symbolic Z-matrix:
 Charge =  0 Multiplicity = 1

                         Standard orientation:
 ---------------------------------------------------------------------
 Center     Atomic      Atomic             Coordinates (Angstroms)
 Number     Number       Type             X           Y           Z
 ---------------------------------------------------------------------
      1         12           0       -5.626867    1.250399    0.121235
      2          6           0       -4.894328   -2.105474   -0.401631
      3          6           0       -3.493703    1.147716    2.885471
      4          6           0       -6.133117    4.493868    0.700759
      5          6           0       -7.931120    1.224628   -2.306287
      6          7           0       -4.398096   -0.330777    1.025733
      7          6           0       -4.142533   -1.608704    0.637988
      8          6           0       -3.264081   -2.313903    1.499956
      9          6           0       -2.949344   -1.338905    2.564970
     10          6           0       -3.597423   -0.108550    2.168075
     11          6           0       -3.401860   -1.796869    3.975054
     12          6           0       -2.026683   -2.818161    0.674961
     13          6           0       -0.956716   -3.580644    1.443357
     14          6           0        0.257285   -4.049814    0.644972
     15          8           0        0.521313   -3.427975   -0.393288
     16          8           0        1.019565   -4.911089    1.331445
     17          7           0       -4.977768    2.542539    1.561722
     18          6           0       -3.933210    2.414672    2.473766
     19          6           0       -3.725888    3.637571    3.181761
     20          6           0       -4.488435    4.622043    2.608553
     21          6           0       -5.185277    3.953067    1.491517
     22          6           0       -2.801261    3.660556    4.394514
     23          6           0       -4.601338    6.061606    2.845617
     24          8           0       -3.886129    6.680524    3.640823
     25          7           0       -6.848909    2.645674   -0.636300
     26          6           0       -6.912543    4.004109   -0.346324
     27          6           0       -7.963896    4.648235   -1.161118
     28          6           0       -8.442625    3.708515   -2.011979
     29          6           0       -7.763064    2.492502   -1.678575
     30          6           0       -8.148897    6.003387   -1.089337
     31          6           0       -9.347367    3.829590   -3.139268
     32          6           0       -8.724170    4.020879   -4.553364
     33          7           0       -6.275857   -0.139859   -1.089304
     34          6           0       -7.376159   -0.010775   -2.028079
     35          6           0       -7.474320   -1.243613   -2.778423
     36          6           0       -6.615420   -2.187145   -2.184947
     37          6           0       -5.907681   -1.396560   -1.168514
     38          6           0       -8.422534   -1.433535   -3.906821
     39          6           0       -6.141659   -3.512053   -2.080865
     40          8           0       -6.438556   -4.456377   -2.813530
     41          6           0       -4.978020   -3.535405   -0.953431
     42          6           0       -5.202380   -4.625667    0.065124
     43          8           0       -5.619493   -4.463628    1.150318
     44          8           0       -4.910823   -5.770224   -0.432510
     45          6           0       -5.127389   -6.918962    0.462778
     46          6           0        2.303729   -5.241267    0.618322
     47          6           0        3.284970   -4.184425    1.080669
     48          6           0        3.920443   -3.310682    0.242788
     49          6           0        3.633200   -3.401696   -1.238124
     50          6           0        5.066821   -2.333187    0.728724
     51          6           0        6.399202   -2.782306    0.137298
     52          6           0        7.534135   -1.728026    0.692552
     53          6           0        8.824227   -1.916186   -0.093691
     54          6           0        9.332420   -3.318382    0.051896
     55          6           0        9.894692   -0.929559    0.346965
     56          6           0       11.329826   -0.909999   -0.277469
     57          6           0       12.150659    0.264856    0.088164
     58          6           0       13.448807    0.460571   -0.676827
     59          6           0       14.372068   -0.605464   -0.370446
     60          6           0       14.096815    1.810865   -0.240345
     61          6           0       15.374370    2.254923   -0.986485
     62          6           0       15.945877    3.559447   -0.547022
     63          6           0       17.211226    3.909673   -1.386230
     64          6           0       17.094731    4.159232   -2.884936
     65          6           0       17.977814    5.233759   -0.741819
     66          1           0       -2.854927    1.131309    3.673903
     67          1           0       -6.484836    5.494539    0.904634
     68          1           0       -8.668616    1.194458   -3.020376
     69          1           0       -3.866832   -3.168827    1.775244
     70          1           0       -1.916687   -1.117168    2.575222
     71          1           0       -2.979171   -2.905337    4.036261
     72          1           0       -3.135251   -1.294201    4.793024
     73          1           0       -4.530758   -1.876890    4.012332
     74          1           0       -2.306522   -3.396048   -0.330744
     75          1           0       -1.556173   -2.013064    0.446190
     76          1           0       -0.482503   -3.177679    2.252897
     77          1           0       -1.260519   -4.489805    1.911612
     78          1           0       -1.855612    2.901643    4.240007
     79          1           0       -2.655786    4.860053    4.475410
     80          1           0       -3.321681    3.203502    5.198699
     81          1           0       -5.437532    6.477130    2.300490
     82          1           0      -10.001014    3.085734   -3.210735
     83          1           0      -10.110692    4.620644   -2.901430
     84          1           0       -9.544865    4.142158   -5.287738
     85          1           0       -8.311262    4.977842   -4.498054
     86          1           0       -7.813115    3.232859   -4.823882
     87          1           0       -8.523748   -0.588167   -4.632514
     88          1           0       -8.358267   -2.529775   -4.338269
     89          1           0       -9.457910   -1.569243   -3.346251
     90          1           0       -3.986141   -3.983465   -1.410136
     91          1           0        2.760391   -6.094681    1.073402
     92          1           0        2.102932   -5.173111   -0.353250
     93          1           0        3.555486   -4.146353    2.100409
     94          1           0        2.649996   -3.935423   -1.594027
     95          1           0        3.819147   -2.279313   -1.430718
     96          1           0        4.585361   -3.798157   -1.581663
     97          1           0        4.826254   -1.261706    0.498946
     98          1           0        4.956163   -2.295769    1.823403
     99          1           0        6.476010   -3.718753    0.692278
    100          1           0        6.371497   -2.895549   -0.964710
    101          1           0        7.294525   -0.687805    0.372916
    102          1           0        7.734212   -1.846158    1.891720
    103          1           0        8.566162   -1.830627   -1.194170
    104          1           0        8.777603   -4.141411   -0.094053
    105          1           0       10.247840   -3.426642   -0.598750
    106          1           0        9.691409   -3.766755    0.980339
    107          1           0        9.524761    0.325406    0.478821
    108          1           0       10.248846   -0.980511    1.545961
    109          1           0       11.971538   -1.878190   -0.148042
    110          1           0       11.193411   -0.944277   -1.410248
    111          1           0       11.339223    0.994436   -0.191529
    112          1           0       12.336932    0.387643    1.196956
    113          1           0       13.170177    0.701222   -1.601454
    114          1           0       14.487036   -0.853242    0.609436
    115          1           0       14.033942   -1.509683   -0.978778
    116          1           0       15.362802   -0.573287   -0.837255
    117          1           0       13.219498    2.454937   -0.361369
    118          1           0       14.275499    1.559671    0.933784
    119          1           0       16.122405    1.417227   -0.961915
    120          1           0       15.020174    2.401571   -1.964761
    121          1           0       15.162992    4.483053   -0.659489
    122          1           0       16.356365    3.628717    0.479696
    123          1           0       17.842809    2.978002   -1.010580
    124          1           0       16.508736    5.116149   -2.998126
    125          1           0       17.997376    4.188010   -3.599734
    126          1           0       16.471741    3.413634   -3.281383
    127          1           0       18.436845    5.018780    0.522174
    128          1           0       18.929756    5.387506   -1.305285
    129          1           0       17.292003    6.013600   -0.925902
    130          1           0       -4.530481   -7.851541    0.066950
    131          1           0       -6.197124   -7.143594    0.254124
    132          1           0       -4.784389   -6.659252    1.478699
    133          8           0       -7.808137    6.824077   -0.293646
    134          1           0       -9.055805    6.197626   -1.598622
 ---------------------------------------------------------------------

 SCF Done:  E(RCAM-B3LYP) =  -3043.43758000     A.U. after   15 cycles

 Excitation energies and oscillator strengths:

 Excited State   1:      Singlet-A      2.0272 eV  611.60 nm  f=0.1201  <S**2>=0.000
     243 -> 246        0.31267
     244 -> 245        0.62330
 This state for optimization and/or second-order correction.
 Total Energy, E(TD-HF/TD-KS) =  -3043.36308087
 Copying the excited state density for this state as the 1-particle RhoCI density.

 The electronic state is 1-A.
 Alpha  occ. eigenvalues --  -46.80456 -19.23206 -19.22721 -19.17403 -19.16653
 Alpha  occ. eigenvalues --  -19.16348 -19.16329 -19.16135 -14.38289 -14.36939
 Alpha  occ. eigenvalues --  -14.36487 -14.36413 -10.34874 -10.33839 -10.31075
 Alpha  occ. eigenvalues --  -10.30237 -10.28975 -10.28013 -10.27870 -10.27450
 Alpha  occ. eigenvalues --  -10.26388 -10.26301 -10.26260 -10.26185 -10.26127
 Alpha  occ. eigenvalues --  -10.26006 -10.25992 -10.25953 -10.24905 -10.24627
 Alpha  occ. eigenvalues --  -10.24504 -10.24427 -10.24316 -10.24190 -10.23584
 Alpha  occ. eigenvalues --  -10.23569 -10.23287 -10.23258 -10.23236 -10.23155
 Alpha  occ. eigenvalues --  -10.23113 -10.23035 -10.23020 -10.23001 -10.22935
 Alpha  occ. eigenvalues --  -10.22848 -10.22791 -10.22704 -10.22702 -10.22482
 Alpha  occ. eigenvalues --  -10.22375 -10.22318 -10.22262 -10.22137 -10.22068
 Alpha  occ. eigenvalues --  -10.21906 -10.21891 -10.21807 -10.21036 -10.20979
 Alpha  occ. eigenvalues --  -10.20837 -10.20708 -10.20696 -10.19854 -10.19339
 Alpha  occ. eigenvalues --  -10.19185  -3.09233  -1.84156  -1.83703  -1.83662
 Alpha  occ. eigenvalues --   -1.16224  -1.12768  -1.07711  -1.06140  -1.05819
 Alpha  occ. eigenvalues --   -1.05538  -1.03820  -1.00590  -0.99368  -0.98762
 Alpha  occ. eigenvalues --   -0.97681  -0.87370  -0.86629  -0.86579  -0.86481
 Alpha  occ. eigenvalues --   -0.85771  -0.84682  -0.84554  -0.83924  -0.83842
 Alpha  occ. eigenvalues --   -0.83215  -0.82857  -0.82167  -0.80799  -0.79900
 Alpha  occ. eigenvalues --   -0.79715  -0.78821  -0.78165  -0.77560  -0.76677
 Alpha  occ. eigenvalues --   -0.75913  -0.74871  -0.74607  -0.73139  -0.71993
 Alpha  occ. eigenvalues --   -0.71645  -0.71121  -0.70447  -0.70195  -0.69902
 Alpha  occ. eigenvalues --   -0.69118  -0.68941  -0.68159  -0.67482  -0.67357
 Alpha  occ. eigenvalues --   -0.66892  -0.65081  -0.64602  -0.63127  -0.62803
 Alpha  occ. eigenvalues --   -0.61976  -0.60513  -0.59905  -0.59842  -0.59112
 Alpha  occ. eigenvalues --   -0.58577  -0.58336  -0.58140  -0.57440  -0.56636
 Alpha  occ. eigenvalues --   -0.56310  -0.55910  -0.55156  -0.54920  -0.54359
 Alpha  occ. eigenvalues --   -0.53858  -0.53434  -0.53349  -0.53039  -0.52469
 Alpha  occ. eigenvalues --   -0.52065  -0.51929  -0.51792  -0.51443  -0.50784
 Alpha  occ. eigenvalues --   -0.50723  -0.50134  -0.50022  -0.49187  -0.49100
 Alpha  occ. eigenvalues --   -0.48873  -0.48426  -0.48339  -0.48076  -0.47621
 Alpha  occ. eigenvalues --   -0.47350  -0.47097  -0.46954  -0.46871  -0.46572
 Alpha  occ. eigenvalues --   -0.46543  -0.46452  -0.46255  -0.46018  -0.45890
 Alpha  occ. eigenvalues --   -0.45565  -0.45335  -0.45317  -0.45116  -0.44785
 Alpha  occ. eigenvalues --   -0.44648  -0.44222  -0.44061  -0.43946  -0.43766
 Alpha  occ. eigenvalues --   -0.43552  -0.43425  -0.43249  -0.43081  -0.42668
 Alpha  occ. eigenvalues --   -0.42606  -0.42425  -0.42304  -0.41943  -0.41852
 Alpha  occ. eigenvalues --   -0.41722  -0.41556  -0.41347  -0.41168  -0.41030
 Alpha  occ. eigenvalues --   -0.40899  -0.40737  -0.40664  -0.40520  -0.40400
 Alpha  occ. eigenvalues --   -0.40062  -0.39891  -0.39533  -0.39455  -0.39356
 Alpha  occ. eigenvalues --   -0.39076  -0.38978  -0.38792  -0.38616  -0.38398
 Alpha  occ. eigenvalues --   -0.38233  -0.37758  -0.37402  -0.37316  -0.37234
 Alpha  occ. eigenvalues --   -0.37175  -0.36870  -0.36599  -0.36162  -0.35912
 Alpha  occ. eigenvalues --   -0.35491  -0.35300  -0.35118  -0.34712  -0.34625
 Alpha  occ. eigenvalues --   -0.34524  -0.34166  -0.33873  -0.33776  -0.33456
 Alpha  occ. eigenvalues --   -0.32627  -0.32523  -0.32154  -0.32046  -0.31681
 Alpha  occ. eigenvalues --   -0.31303  -0.30557  -0.30053  -0.29846  -0.29443
 Alpha  occ. eigenvalues --   -0.28876  -0.28082  -0.27924  -0.27549  -0.27345
 Alpha  occ. eigenvalues --   -0.26824  -0.26506  -0.22531  -0.21627
 Alpha virt. eigenvalues --   -0.08272  -0.06804  -0.01667  -0.01082   0.00651
 Alpha virt. eigenvalues --    0.03581   0.03806   0.04216   0.04636   0.05005
 Alpha virt. eigenvalues --    0.05279   0.06159   0.07912   0.08402   0.09433

 Mulliken charges:
               1
     1  Mg   0.832346
     2  C    0.082461
     3  C   -0.184209
     4  C   -0.203731
     5  C   -0.163250
     6  N   -0.625002
     7  C    0.346246
     8  C   -0.175060
     9  C   -0.154918
    10  C    0.319262
    11  C   -0.303113
    12  C   -0.153925
    13  C   -0.274634
    14  C    0.593020
    15  O   -0.484453
    16  O   -0.467722
    17  N   -0.648682
    18  C    0.317102
    19  C    0.013620
    20  C    0.013261
    21  C    0.276128
    22  C   -0.378473
    23  C    0.260959
    24  O   -0.430366
    25  N   -0.692896
    26  C    0.263926
    27  C    0.009240
    28  C    0.081702
    29  C    0.275610
    30  C    0.220671
    31  C   -0.271068
    32  C   -0.306471
    33  N   -0.734891
    34  C    0.265918
    35  C    0.023316
    36  C    0.097306
    37  C    0.280945
    38  C   -0.394868
    39  C    0.331648
    40  O   -0.469812
    41  C   -0.349394
    42  C    0.605177
    43  O   -0.470292
    44  O   -0.420300
    45  C   -0.100027
    46  C    0.023038
    47  C   -0.148858
    48  C    0.110210
    49  C   -0.360485
    50  C   -0.238146
    51  C   -0.178120
    52  C   -0.161027
    53  C   -0.054991
    54  C   -0.315487
    55  C   -0.144862
    56  C   -0.175130
    57  C   -0.167041
    58  C   -0.046281
    59  C   -0.305996
    60  C   -0.167947
    61  C   -0.163103
    62  C   -0.153770
    63  C   -0.053591
    64  C   -0.314792
    65  C   -0.294792
    66  H    0.059385
    67  H    0.121176
    68  H    0.075861
    69  H    0.149695
    70  H    0.121975
    71  H    0.093860
    72  H    0.125561
    73  H    0.124692
    74  H    0.105284
    75  H    0.130908
    76  H    0.142478
    77  H    0.116866
    78  H    0.100862
    79  H    0.151015
    80  H    0.144261
    81  H    0.100627
    82  H    0.125477
    83  H    0.108060
    84  H    0.114786
    85  H    0.131540
    86  H    0.098254
    87  H    0.130762
    88  H    0.147088
    89  H    0.126825
    90  H    0.142405
    91  H    0.131973
    92  H    0.118963
    93  H    0.074678
    94  H    0.140940
    95  H    0.104989
    96  H    0.117371
    97  H    0.099227
    98  H    0.104368
    99  H    0.113871
   100  H    0.106626
   101  H    0.097289
   102  H    0.083846
   103  H    0.090925
   104  H    0.108050
   105  H    0.092509
   106  H    0.095363
   107  H    0.042759
   108  H    0.066404
   109  H    0.086173
   110  H    0.077253
   111  H    0.081916
   112  H    0.081061
   113  H    0.088141
   114  H    0.116375
   115  H    0.086325
   116  H    0.098112
   117  H    0.084862
   118  H    0.050202
   119  H    0.092108
   120  H    0.103638
   121  H    0.057464
   122  H    0.101707
   123  H    0.067004
   124  H    0.097248
   125  H    0.104774
   126  H    0.110665
   127  H    0.045372
   128  H    0.105456
   129  H    0.115206
   130  H    0.119329
   131  H    0.147225
   132  H    0.147503
   133  O   -0.417881
   134  H    0.031772
 Sum of Mulliken charges =   0.00000

 Dipole moment (field-independent basis, Debye):
    X=              2.3365    Y=             -6.6307    Z=             -1.3467  Tot=              7.1581
 Quadrupole moment (field-independent basis, Debye-Ang):
   XX=           -377.9428   YY=           -437.0805   ZZ=           -392.1203
   XY=             -1.6801   XZ=             13.0646   YZ=            -41.2553

 Normal termination of Gaussian 09 at Tue Oct  8 05:28:44 2019.
