 Gaussian 09, Revision D.01,
 Gaussian 09:  ES64L-G09RevD.01 24-Apr-2013

 ----------------------------------------------------------------------
 # td=(NStates=1) iop(3/107=0140000000,3/108=0140000000) iop(3/107=0140
 000000,3/108=0140000000) CAM-B3LYP/6-31G(d,p)
 ----------------------------------------------------------------------

 --
 TD
 --
 Symbolic Z-matrix:
 Charge =  0 Multiplicity = 1

                         Standard orientation:
 ---------------------------------------------------------------------
 Center     Atomic      Atomic             Coordinates (Angstroms)
 Number     Number       Type             X           Y           Z
 ---------------------------------------------------------------------
      1         12           0       -5.467109    1.248941    0.243295
      2          6           0       -4.885827   -2.110509   -0.372423
      3          6           0       -3.284912    1.235564    2.725211
      4          6           0       -6.204766    4.521611    0.698445
      5          6           0       -7.999012    1.099003   -2.334133
      6          7           0       -4.363696   -0.303811    1.102904
      7          6           0       -4.216133   -1.476362    0.686706
      8          6           0       -3.146727   -2.241965    1.577383
      9          6           0       -2.925491   -1.326235    2.680108
     10          6           0       -3.651569   -0.040746    2.167558
     11          6           0       -3.526782   -1.771247    4.020495
     12          6           0       -1.902390   -2.607660    0.686079
     13          6           0       -0.910162   -3.335432    1.526966
     14          6           0        0.213336   -3.835471    0.637499
     15          8           0        0.469303   -3.427574   -0.485062
     16          8           0        0.907568   -4.822849    1.321511
     17          7           0       -4.899410    2.643790    1.621887
     18          6           0       -3.831720    2.509752    2.444907
     19          6           0       -3.577647    3.728285    3.139317
     20          6           0       -4.372105    4.695944    2.554859
     21          6           0       -5.254643    3.962042    1.517444
     22          6           0       -2.738763    3.915468    4.314050
     23          6           0       -4.535793    6.035550    2.829565
     24          8           0       -3.950058    6.694476    3.655984
     25          7           0       -6.744015    2.656435   -0.707675
     26          6           0       -6.882534    3.919670   -0.326903
     27          6           0       -7.916585    4.517737   -1.182278
     28          6           0       -8.515712    3.652561   -2.060129
     29          6           0       -7.696958    2.319267   -1.698892
     30          6           0       -8.149373    5.979051   -1.255708
     31          6           0       -9.426311    3.884056   -3.108012
     32          6           0       -8.805993    3.814873   -4.597204
     33          7           0       -6.296432   -0.077646   -1.070018
     34          6           0       -7.269514   -0.040022   -2.114269
     35          6           0       -7.461460   -1.355711   -2.771702
     36          6           0       -6.651671   -2.210130   -2.042360
     37          6           0       -5.845339   -1.305130   -1.124568
     38          6           0       -8.547840   -1.627296   -3.757434
     39          6           0       -6.157762   -3.540301   -1.989802
     40          8           0       -6.525543   -4.562701   -2.521362
     41          6           0       -4.915262   -3.500776   -0.948190
     42          6           0       -5.190572   -4.673489    0.109508
     43          8           0       -5.716675   -4.495707    1.194593
     44          8           0       -4.943170   -5.861298   -0.413928
     45          6           0       -5.373016   -6.999984    0.375692
     46          6           0        2.207623   -5.166729    0.594539
     47          6           0        3.278502   -4.194540    0.928817
     48          6           0        3.917105   -3.455640    0.072034
     49          6           0        3.787686   -3.418161   -1.420780
     50          6           0        5.033772   -2.439746    0.663248
     51          6           0        6.488078   -2.782045    0.168952
     52          6           0        7.548634   -1.956419    0.774520
     53          6           0        9.018361   -2.063718    0.101779
     54          6           0        9.593262   -3.460010    0.309456
     55          6           0        9.931055   -0.966446    0.530670
     56          6           0       11.239445   -0.798897   -0.380563
     57          6           0       12.164890    0.285956    0.155003
     58          6           0       13.385761    0.406201   -0.648594
     59          6           0       14.328479   -0.704465   -0.533168
     60          6           0       14.100665    1.803099   -0.249638
     61          6           0       15.433497    2.192610   -1.019001
     62          6           0       15.866141    3.624628   -0.696327
     63          6           0       17.081801    4.054946   -1.412096
     64          6           0       17.027691    4.057274   -2.890409
     65          6           0       17.701584    5.310458   -0.716921
     66          1           0       -2.808560    1.217611    3.489964
     67          1           0       -6.517471    5.669423    0.859990
     68          1           0       -8.975839    1.116968   -3.077750
     69          1           0       -3.550638   -3.262098    1.860921
     70          1           0       -1.810927   -1.256535    2.673166
     71          1           0       -3.026969   -2.704464    4.260026
     72          1           0       -3.460352   -0.931603    4.758820
     73          1           0       -4.621916   -1.969616    3.850812
     74          1           0       -2.313076   -3.108485   -0.177317
     75          1           0       -1.354720   -1.482546    0.253566
     76          1           0       -0.430670   -2.970629    2.490570
     77          1           0       -1.173096   -4.346310    2.052582
     78          1           0       -1.516601    3.486565    4.246556
     79          1           0       -2.578042    5.095038    4.487977
     80          1           0       -3.108842    3.549828    5.062376
     81          1           0       -5.385231    6.558329    2.083186
     82          1           0      -10.171693    3.035638   -3.072275
     83          1           0       -9.925664    4.924293   -3.117599
     84          1           0       -9.560951    3.952675   -5.182360
     85          1           0       -8.228579    4.739124   -4.719121
     86          1           0       -8.272317    2.924929   -4.745458
     87          1           0       -8.285782   -1.203942   -4.703475
     88          1           0       -8.833970   -2.570471   -3.991356
     89          1           0       -9.520747   -1.348724   -3.186077
     90          1           0       -3.951927   -3.727078   -1.373347
     91          1           0        2.342084   -6.124356    1.050654
     92          1           0        2.032140   -5.182387   -0.402628
     93          1           0        3.508093   -4.116394    2.134408
     94          1           0        2.744424   -3.718822   -1.851286
     95          1           0        4.050730   -2.505789   -1.888583
     96          1           0        4.403896   -4.055753   -1.922788
     97          1           0        4.951275   -1.546053    0.173882
     98          1           0        5.110544   -2.731737    1.760653
     99          1           0        6.755923   -3.721294    0.357662
    100          1           0        6.527131   -2.616760   -0.907055
    101          1           0        7.105406   -1.011818    0.642416
    102          1           0        7.881162   -2.230797    1.855376
    103          1           0        8.845926   -1.952723   -1.012049
    104          1           0        9.024398   -4.306096   -0.115650
    105          1           0       10.419531   -3.428939   -0.466859
    106          1           0        9.849022   -3.775159    1.343566
    107          1           0        9.412631    0.029846    0.466282
    108          1           0       10.083568   -1.073106    1.656063
    109          1           0       11.769705   -1.630413   -0.157907
    110          1           0       11.112224   -0.542359   -1.378738
    111          1           0       11.601200    1.109060    0.179233
    112          1           0       12.256135    0.065031    1.175645
    113          1           0       13.337670    0.371855   -1.827697
    114          1           0       14.669590   -0.888992    0.479053
    115          1           0       13.535496   -1.528844   -0.855887
    116          1           0       15.136395   -0.597456   -1.127929
    117          1           0       13.290822    2.501428   -0.139676
    118          1           0       14.565240    1.701943    0.818406
    119          1           0       16.197319    1.286662   -0.917057
    120          1           0       15.197514    1.982237   -2.028791
    121          1           0       14.942651    4.413540   -0.951256
    122          1           0       16.059514    3.633226    0.338077
    123          1           0       17.989616    3.210443   -1.085536
    124          1           0       16.024513    4.812058   -3.317295
    125          1           0       17.934098    4.390853   -3.423031
    126          1           0       16.844954    3.111879   -3.275833
    127          1           0       18.023394    5.120247    0.437834
    128          1           0       18.797571    5.634615   -1.305091
    129          1           0       17.057730    6.325891   -0.609800
    130          1           0       -5.023802   -7.949960   -0.088472
    131          1           0       -6.465531   -7.024394    0.538818
    132          1           0       -4.950130   -6.786886    1.411572
    133          8           0       -7.803177    6.915664   -0.536360
    134          1           0       -8.805138    6.297878   -2.155175
 ---------------------------------------------------------------------

 SCF Done:  E(RCAM-B3LYP) =  -3043.36601489     A.U. after   16 cycles

 Excitation energies and oscillator strengths:

 Excited State   1:      Singlet-A      1.9898 eV  623.11 nm  f=0.2169  <S**2>=0.000
     243 -> 246       -0.24632
     244 -> 245        0.65007
 This state for optimization and/or second-order correction.
 Total Energy, E(TD-HF/TD-KS) =  -3043.29289187
 Copying the excited state density for this state as the 1-particle RhoCI density.

 The electronic state is 1-A.
 Alpha  occ. eigenvalues --  -46.82675 -19.23210 -19.21529 -19.17263 -19.17231
 Alpha  occ. eigenvalues --  -19.17053 -19.16917 -19.16268 -14.39197 -14.37838
 Alpha  occ. eigenvalues --  -14.37758 -14.37077 -10.35180 -10.34572 -10.31484
 Alpha  occ. eigenvalues --  -10.30390 -10.29379 -10.28204 -10.27840 -10.27748
 Alpha  occ. eigenvalues --  -10.27113 -10.26821 -10.26788 -10.26711 -10.26416
 Alpha  occ. eigenvalues --  -10.26327 -10.26112 -10.26072 -10.25636 -10.25318
 Alpha  occ. eigenvalues --  -10.25304 -10.25245 -10.24851 -10.24729 -10.24356
 Alpha  occ. eigenvalues --  -10.24138 -10.23998 -10.23629 -10.23600 -10.23516
 Alpha  occ. eigenvalues --  -10.23298 -10.23123 -10.23014 -10.22869 -10.22863
 Alpha  occ. eigenvalues --  -10.22649 -10.22512 -10.22225 -10.22164 -10.22135
 Alpha  occ. eigenvalues --  -10.22085 -10.21849 -10.21714 -10.21708 -10.21686
 Alpha  occ. eigenvalues --  -10.21558 -10.21520 -10.21184 -10.20949 -10.20910
 Alpha  occ. eigenvalues --  -10.20859 -10.20611 -10.19584 -10.19471 -10.19286
 Alpha  occ. eigenvalues --  -10.18553  -3.11188  -1.86131  -1.85656  -1.85595
 Alpha  occ. eigenvalues --   -1.14233  -1.11012  -1.07418  -1.06456  -1.05763
 Alpha  occ. eigenvalues --   -1.04600  -1.04459  -1.03469  -1.00323  -0.99969
 Alpha  occ. eigenvalues --   -0.98724  -0.87659  -0.86686  -0.86526  -0.86190
 Alpha  occ. eigenvalues --   -0.85872  -0.85030  -0.84639  -0.84542  -0.84030
 Alpha  occ. eigenvalues --   -0.83827  -0.83350  -0.81816  -0.80762  -0.79878
 Alpha  occ. eigenvalues --   -0.79064  -0.78390  -0.77988  -0.77315  -0.76735
 Alpha  occ. eigenvalues --   -0.75993  -0.75910  -0.74359  -0.73215  -0.72931
 Alpha  occ. eigenvalues --   -0.71858  -0.71260  -0.70801  -0.70303  -0.69894
 Alpha  occ. eigenvalues --   -0.69408  -0.68741  -0.67808  -0.67075  -0.66676
 Alpha  occ. eigenvalues --   -0.66004  -0.65428  -0.63867  -0.62271  -0.62025
 Alpha  occ. eigenvalues --   -0.61812  -0.60901  -0.60276  -0.59405  -0.58853
 Alpha  occ. eigenvalues --   -0.58318  -0.57715  -0.57609  -0.57307  -0.56659
 Alpha  occ. eigenvalues --   -0.56522  -0.55916  -0.55705  -0.54899  -0.53986
 Alpha  occ. eigenvalues --   -0.53760  -0.53284  -0.53043  -0.52911  -0.52372
 Alpha  occ. eigenvalues --   -0.52109  -0.51936  -0.51672  -0.51132  -0.50743
 Alpha  occ. eigenvalues --   -0.50564  -0.50027  -0.49826  -0.49693  -0.49424
 Alpha  occ. eigenvalues --   -0.49191  -0.48635  -0.48593  -0.48458  -0.48118
 Alpha  occ. eigenvalues --   -0.47683  -0.47581  -0.47445  -0.47355  -0.46956
 Alpha  occ. eigenvalues --   -0.46767  -0.46576  -0.46427  -0.46345  -0.46169
 Alpha  occ. eigenvalues --   -0.45883  -0.45865  -0.45392  -0.45371  -0.45146
 Alpha  occ. eigenvalues --   -0.44904  -0.44804  -0.44312  -0.44202  -0.44103
 Alpha  occ. eigenvalues --   -0.43933  -0.43691  -0.43504  -0.43149  -0.42987
 Alpha  occ. eigenvalues --   -0.42946  -0.42535  -0.42441  -0.42299  -0.41674
 Alpha  occ. eigenvalues --   -0.41575  -0.41466  -0.41419  -0.41144  -0.41048
 Alpha  occ. eigenvalues --   -0.40937  -0.40777  -0.40677  -0.40517  -0.40345
 Alpha  occ. eigenvalues --   -0.40094  -0.39662  -0.39458  -0.39446  -0.39232
 Alpha  occ. eigenvalues --   -0.38982  -0.38797  -0.38659  -0.38439  -0.38173
 Alpha  occ. eigenvalues --   -0.38017  -0.37944  -0.37620  -0.37371  -0.37254
 Alpha  occ. eigenvalues --   -0.37059  -0.36747  -0.36461  -0.36278  -0.35893
 Alpha  occ. eigenvalues --   -0.35429  -0.35204  -0.34966  -0.34531  -0.34430
 Alpha  occ. eigenvalues --   -0.34213  -0.34032  -0.33646  -0.33564  -0.33342
 Alpha  occ. eigenvalues --   -0.32422  -0.32226  -0.31987  -0.31504  -0.31275
 Alpha  occ. eigenvalues --   -0.30805  -0.30706  -0.30388  -0.29898  -0.29806
 Alpha  occ. eigenvalues --   -0.29157  -0.28331  -0.28186  -0.28028  -0.27854
 Alpha  occ. eigenvalues --   -0.27158  -0.26579  -0.22992  -0.21315
 Alpha virt. eigenvalues --   -0.08611  -0.06058  -0.01999  -0.00363   0.00469
 Alpha virt. eigenvalues --    0.02531   0.03552   0.03979   0.04188   0.04283
 Alpha virt. eigenvalues --    0.05031   0.06252   0.07569   0.08247   0.08747

 Mulliken charges:
               1
     1  Mg   0.825936
     2  C    0.091837
     3  C   -0.105272
     4  C   -0.188268
     5  C   -0.189736
     6  N   -0.607053
     7  C    0.316791
     8  C   -0.159720
     9  C   -0.131662
    10  C    0.281325
    11  C   -0.303167
    12  C   -0.155442
    13  C   -0.277387
    14  C    0.623438
    15  O   -0.473651
    16  O   -0.508710
    17  N   -0.703449
    18  C    0.285030
    19  C    0.079661
    20  C    0.022504
    21  C    0.310681
    22  C   -0.377121
    23  C    0.203595
    24  O   -0.425088
    25  N   -0.700621
    26  C    0.371844
    27  C   -0.051381
    28  C    0.102908
    29  C    0.250638
    30  C    0.245568
    31  C   -0.308369
    32  C   -0.309083
    33  N   -0.695992
    34  C    0.257697
    35  C    0.029017
    36  C    0.024370
    37  C    0.290004
    38  C   -0.371380
    39  C    0.363776
    40  O   -0.452442
    41  C   -0.338908
    42  C    0.598559
    43  O   -0.479589
    44  O   -0.418807
    45  C   -0.094943
    46  C    0.009585
    47  C   -0.149628
    48  C    0.174553
    49  C   -0.398086
    50  C   -0.219174
    51  C   -0.195726
    52  C   -0.152460
    53  C   -0.065313
    54  C   -0.317457
    55  C   -0.178607
    56  C   -0.193600
    57  C   -0.175912
    58  C   -0.063662
    59  C   -0.280041
    60  C   -0.176043
    61  C   -0.198958
    62  C   -0.129792
    63  C   -0.017050
    64  C   -0.280296
    65  C   -0.284995
    66  H    0.033372
    67  H    0.153333
    68  H    0.101257
    69  H    0.115770
    70  H    0.105562
    71  H    0.112331
    72  H    0.109165
    73  H    0.124776
    74  H    0.122882
    75  H    0.081078
    76  H    0.151295
    77  H    0.131133
    78  H    0.075753
    79  H    0.151280
    80  H    0.145693
    81  H    0.036735
    82  H    0.112161
    83  H    0.118575
    84  H    0.128499
    85  H    0.117274
    86  H    0.121263
    87  H    0.134834
    88  H    0.153401
    89  H    0.123007
    90  H    0.151935
    91  H    0.117288
    92  H    0.131602
    93  H    0.068679
    94  H    0.131055
    95  H    0.115913
    96  H    0.136898
    97  H    0.110619
    98  H    0.101194
    99  H    0.102238
   100  H    0.085740
   101  H    0.082312
   102  H    0.068892
   103  H    0.070530
   104  H    0.103284
   105  H    0.102454
   106  H    0.101863
   107  H    0.085230
   108  H    0.079794
   109  H    0.121045
   110  H    0.100567
   111  H    0.095979
   112  H    0.098826
   113  H    0.066274
   114  H    0.094746
   115  H    0.074547
   116  H    0.105551
   117  H    0.089138
   118  H    0.068837
   119  H    0.075979
   120  H    0.100534
   121  H    0.070559
   122  H    0.105092
   123  H    0.049147
   124  H    0.046043
   125  H    0.106984
   126  H    0.121574
   127  H    0.086467
   128  H    0.062241
   129  H    0.086227
   130  H    0.131674
   131  H    0.141008
   132  H    0.126702
   133  O   -0.428284
   134  H    0.039322
 Sum of Mulliken charges =   0.00000

 Dipole moment (field-independent basis, Debye):
    X=              1.6270    Y=             -6.6488    Z=             -2.4778  Tot=              7.2796
 Quadrupole moment (field-independent basis, Debye-Ang):
   XX=           -375.5368   YY=           -452.3038   ZZ=           -387.9759
   XY=              8.8093   XZ=             28.4533   YZ=            -33.1264

 Normal termination of Gaussian 09 at Fri Oct  4 04:28:44 2019.
