 Gaussian 09, Revision D.01,
 Gaussian 09:  ES64L-G09RevD.01 24-Apr-2013

 ----------------------------------------------------------------------
 # td=(NStates=1) iop(3/107=0140000000,3/108=0140000000) iop(3/107=0140
 000000,3/108=0140000000) CAM-B3LYP/6-31G(d,p)
 ----------------------------------------------------------------------

 --
 TD
 --
 Symbolic Z-matrix:
 Charge =  0 Multiplicity = 1

                         Standard orientation:
 ---------------------------------------------------------------------
 Center     Atomic      Atomic             Coordinates (Angstroms)
 Number     Number       Type             X           Y           Z
 ---------------------------------------------------------------------
      1         12           0       -5.653242    1.295952    0.198232
      2          6           0       -4.951974   -2.205278   -0.351425
      3          6           0       -3.402576    1.243995    2.691342
      4          6           0       -6.217808    4.523830    0.634951
      5          6           0       -7.997615    1.188345   -2.325504
      6          7           0       -4.381650   -0.225415    0.991233
      7          6           0       -4.140094   -1.623922    0.675373
      8          6           0       -3.224973   -2.394088    1.550753
      9          6           0       -2.908151   -1.272676    2.650545
     10          6           0       -3.616727   -0.051366    2.173878
     11          6           0       -3.337486   -1.819337    4.037141
     12          6           0       -1.907544   -2.718867    0.754596
     13          6           0       -0.964849   -3.570703    1.430209
     14          6           0        0.251348   -3.994376    0.575979
     15          8           0        0.463052   -3.525246   -0.516972
     16          8           0        1.111317   -4.745336    1.239626
     17          7           0       -4.925417    2.628027    1.425116
     18          6           0       -3.955440    2.462710    2.476821
     19          6           0       -3.646803    3.705156    3.178189
     20          6           0       -4.545646    4.567199    2.534700
     21          6           0       -5.283996    3.871724    1.467087
     22          6           0       -2.689375    3.792447    4.283420
     23          6           0       -4.629489    5.983626    2.893761
     24          8           0       -3.970090    6.493247    3.789280
     25          7           0       -7.034769    2.660730   -0.683117
     26          6           0       -7.090034    3.955193   -0.315821
     27          6           0       -7.997505    4.657083   -1.153855
     28          6           0       -8.589352    3.700829   -1.955031
     29          6           0       -7.866556    2.420381   -1.679827
     30          6           0       -8.534723    5.982070   -1.096330
     31          6           0       -9.660956    3.800398   -3.025479
     32          6           0       -8.902404    3.910784   -4.403068
     33          7           0       -6.358980   -0.124765   -1.121123
     34          6           0       -7.305595    0.085547   -2.139743
     35          6           0       -7.536045   -1.333263   -2.745997
     36          6           0       -6.704339   -2.182821   -2.016348
     37          6           0       -5.919733   -1.360235   -1.112223
     38          6           0       -8.505412   -1.577755   -3.777376
     39          6           0       -6.057260   -3.510750   -2.118352
     40          8           0       -6.486718   -4.440247   -2.717589
     41          6           0       -4.903059   -3.542071   -0.941182
     42          6           0       -5.198374   -4.662190    0.019265
     43          8           0       -5.742391   -4.615322    1.125433
     44          8           0       -4.871011   -5.839011   -0.475844
     45          6           0       -5.364187   -6.950553    0.399834
     46          6           0        2.373415   -5.157381    0.526612
     47          6           0        3.490424   -4.236967    1.006776
     48          6           0        4.167524   -3.452913    0.254300
     49          6           0        3.780523   -3.194821   -1.231640
     50          6           0        5.249193   -2.515701    0.810611
     51          6           0        6.502981   -2.696885    0.131454
     52          6           0        7.636735   -1.886653    0.724561
     53          6           0        8.905858   -2.064713    0.037842
     54          6           0        9.526564   -3.478862    0.311313
     55          6           0        9.935238   -0.973856    0.422653
     56          6           0       11.244616   -0.928098   -0.364718
     57          6           0       12.149553    0.293182    0.068667
     58          6           0       13.584461    0.591142   -0.653744
     59          6           0       14.494139   -0.615419   -0.479864
     60          6           0       14.292831    1.860661   -0.148637
     61          6           0       15.519408    2.227352   -0.938009
     62          6           0       16.038281    3.635551   -0.640011
     63          6           0       17.255710    4.060937   -1.422931
     64          6           0       17.073251    4.280507   -2.947498
     65          6           0       17.798700    5.314288   -0.796029
     66          1           0       -2.535474    1.217109    3.335753
     67          1           0       -6.541887    5.628719    0.633069
     68          1           0       -8.700259    1.090049   -3.189210
     69          1           0       -3.483046   -3.419629    1.898419
     70          1           0       -1.753920   -1.151080    2.620642
     71          1           0       -3.003707   -2.820963    4.077730
     72          1           0       -2.974560   -1.131196    4.902281
     73          1           0       -4.486623   -1.886289    3.951442
     74          1           0       -2.327327   -3.249014   -0.309327
     75          1           0       -1.493162   -1.729790    0.408154
     76          1           0       -0.480129   -3.059168    2.322281
     77          1           0       -1.485891   -4.468878    1.767067
     78          1           0       -1.463410    3.598790    3.897066
     79          1           0       -2.805118    4.827189    4.559581
     80          1           0       -3.040290    3.254811    5.126463
     81          1           0       -5.144885    6.573997    1.981164
     82          1           0      -10.427035    3.002080   -3.035109
     83          1           0      -10.143798    4.730202   -2.823936
     84          1           0       -9.556542    4.213402   -5.217839
     85          1           0       -7.931073    4.638452   -4.427223
     86          1           0       -8.477735    2.892107   -4.692432
     87          1           0       -8.296356   -0.915085   -4.568803
     88          1           0       -8.403747   -2.502372   -4.137458
     89          1           0       -9.517957   -1.467525   -3.477594
     90          1           0       -3.942181   -3.843502   -1.416377
     91          1           0        2.442740   -6.039413    0.920770
     92          1           0        2.016411   -5.152158   -0.457251
     93          1           0        3.830241   -4.478005    2.116137
     94          1           0        2.674037   -3.174317   -1.479217
     95          1           0        4.257138   -2.009026   -1.323637
     96          1           0        4.282657   -4.007670   -1.893772
     97          1           0        4.961272   -1.274805    0.804548
     98          1           0        5.482780   -2.546045    1.865726
     99          1           0        6.723004   -3.817383    0.154316
    100          1           0        6.601549   -2.689288   -0.955391
    101          1           0        7.378466   -0.681797    0.530746
    102          1           0        7.691271   -1.994118    1.698326
    103          1           0        8.800191   -2.137109   -1.153660
    104          1           0        8.821805   -4.504501    0.195149
    105          1           0       10.562477   -3.659367   -0.262902
    106          1           0        9.856731   -3.529220    1.370017
    107          1           0        9.636910    0.104583    0.206985
    108          1           0       10.244203   -0.998524    1.456121
    109          1           0       12.088387   -1.679659   -0.313959
    110          1           0       11.150289   -0.776366   -1.508389
    111          1           0       11.566192    1.154304   -0.172206
    112          1           0       12.530664    0.061864    1.084762
    113          1           0       13.161553    0.822406   -1.621197
    114          1           0       14.782487   -0.624800    0.567152
    115          1           0       14.007248   -1.652719   -0.464280
    116          1           0       15.380990   -0.734393   -0.991940
    117          1           0       13.634656    2.707096   -0.378621
    118          1           0       14.493229    1.602553    1.001193
    119          1           0       16.323776    1.624392   -0.663767
    120          1           0       15.122031    2.351888   -1.964410
    121          1           0       15.268703    4.383013   -0.891971
    122          1           0       15.985553    3.780510    0.349184
    123          1           0       18.112309    3.199125   -1.463008
    124          1           0       16.256975    5.026324   -3.124231
    125          1           0       18.015584    4.493567   -3.387373
    126          1           0       16.709497    3.357442   -3.448223
    127          1           0       18.141225    4.972361    0.212227
    128          1           0       18.745041    5.731508   -1.419902
    129          1           0       17.004283    6.146068   -0.798302
    130          1           0       -4.903508   -7.876535   -0.066934
    131          1           0       -6.515159   -6.985025    0.445407
    132          1           0       -4.830504   -6.957602    1.406288
    133          8           0       -8.051041    6.820206   -0.284661
    134          1           0       -9.247653    6.276106   -1.955980
 ---------------------------------------------------------------------

 SCF Done:  E(RCAM-B3LYP) =  -3043.48967720     A.U. after   16 cycles

 Excitation energies and oscillator strengths:

 Excited State   1:      Singlet-A      1.9316 eV  641.86 nm  f=0.1714  <S**2>=0.000
     243 -> 246        0.23407
     244 -> 245        0.65768
 This state for optimization and/or second-order correction.
 Total Energy, E(TD-HF/TD-KS) =  -3043.41869085
 Copying the excited state density for this state as the 1-particle RhoCI density.

 The electronic state is 1-A.
 Alpha  occ. eigenvalues --  -46.81426 -19.22926 -19.21876 -19.18096 -19.17010
 Alpha  occ. eigenvalues --  -19.16910 -19.16639 -19.16107 -14.39439 -14.36739
 Alpha  occ. eigenvalues --  -14.36570 -14.36465 -10.34680 -10.34495 -10.32210
 Alpha  occ. eigenvalues --  -10.30734 -10.30173 -10.28903 -10.28005 -10.27739
 Alpha  occ. eigenvalues --  -10.26774 -10.26353 -10.26206 -10.26108 -10.26059
 Alpha  occ. eigenvalues --  -10.25767 -10.25626 -10.25419 -10.25372 -10.25213
 Alpha  occ. eigenvalues --  -10.24666 -10.24555 -10.24409 -10.24343 -10.24227
 Alpha  occ. eigenvalues --  -10.24159 -10.24082 -10.23888 -10.23729 -10.23701
 Alpha  occ. eigenvalues --  -10.23378 -10.23205 -10.23190 -10.23158 -10.23098
 Alpha  occ. eigenvalues --  -10.22800 -10.22687 -10.22670 -10.22465 -10.22356
 Alpha  occ. eigenvalues --  -10.22343 -10.22229 -10.21972 -10.21952 -10.21706
 Alpha  occ. eigenvalues --  -10.21573 -10.21540 -10.21399 -10.21022 -10.20936
 Alpha  occ. eigenvalues --  -10.20786 -10.20746 -10.20080 -10.20026 -10.19890
 Alpha  occ. eigenvalues --  -10.19300  -3.10023  -1.84959  -1.84496  -1.84435
 Alpha  occ. eigenvalues --   -1.13912  -1.13482  -1.09381  -1.06130  -1.04475
 Alpha  occ. eigenvalues --   -1.04437  -1.02778  -1.01067  -0.99834  -0.99370
 Alpha  occ. eigenvalues --   -0.97030  -0.87986  -0.87306  -0.86215  -0.85660
 Alpha  occ. eigenvalues --   -0.85239  -0.85112  -0.84753  -0.84380  -0.83832
 Alpha  occ. eigenvalues --   -0.83347  -0.82701  -0.81994  -0.81092  -0.79913
 Alpha  occ. eigenvalues --   -0.79215  -0.78648  -0.77592  -0.77238  -0.76849
 Alpha  occ. eigenvalues --   -0.75625  -0.75215  -0.74250  -0.72392  -0.72007
 Alpha  occ. eigenvalues --   -0.71202  -0.70579  -0.70113  -0.69870  -0.69443
 Alpha  occ. eigenvalues --   -0.69066  -0.68768  -0.67428  -0.66645  -0.66237
 Alpha  occ. eigenvalues --   -0.65066  -0.64561  -0.63898  -0.62756  -0.61509
 Alpha  occ. eigenvalues --   -0.61379  -0.60449  -0.60223  -0.59067  -0.58478
 Alpha  occ. eigenvalues --   -0.58266  -0.58181  -0.57590  -0.57030  -0.56866
 Alpha  occ. eigenvalues --   -0.56027  -0.55943  -0.55568  -0.54788  -0.54472
 Alpha  occ. eigenvalues --   -0.54147  -0.53466  -0.52972  -0.52585  -0.52347
 Alpha  occ. eigenvalues --   -0.52171  -0.51554  -0.51415  -0.51054  -0.51002
 Alpha  occ. eigenvalues --   -0.50227  -0.50026  -0.49804  -0.49637  -0.49119
 Alpha  occ. eigenvalues --   -0.48894  -0.48656  -0.48444  -0.48310  -0.48210
 Alpha  occ. eigenvalues --   -0.47822  -0.47344  -0.47100  -0.46794  -0.46624
 Alpha  occ. eigenvalues --   -0.46452  -0.46386  -0.46324  -0.46135  -0.45966
 Alpha  occ. eigenvalues --   -0.45652  -0.45065  -0.44985  -0.44848  -0.44808
 Alpha  occ. eigenvalues --   -0.44568  -0.44398  -0.43982  -0.43811  -0.43640
 Alpha  occ. eigenvalues --   -0.43591  -0.43395  -0.43256  -0.42968  -0.42527
 Alpha  occ. eigenvalues --   -0.42397  -0.42304  -0.42069  -0.41913  -0.41706
 Alpha  occ. eigenvalues --   -0.41534  -0.41332  -0.41275  -0.41202  -0.41183
 Alpha  occ. eigenvalues --   -0.40772  -0.40751  -0.40568  -0.40490  -0.40322
 Alpha  occ. eigenvalues --   -0.40003  -0.39784  -0.39548  -0.39471  -0.39174
 Alpha  occ. eigenvalues --   -0.38831  -0.38595  -0.38534  -0.38480  -0.38151
 Alpha  occ. eigenvalues --   -0.38122  -0.37936  -0.37385  -0.37178  -0.37076
 Alpha  occ. eigenvalues --   -0.36855  -0.36675  -0.36171  -0.35803  -0.35543
 Alpha  occ. eigenvalues --   -0.35417  -0.35273  -0.35109  -0.35058  -0.34452
 Alpha  occ. eigenvalues --   -0.34290  -0.34078  -0.33537  -0.33357  -0.33087
 Alpha  occ. eigenvalues --   -0.32752  -0.32502  -0.32079  -0.31682  -0.31383
 Alpha  occ. eigenvalues --   -0.31296  -0.30391  -0.30316  -0.30119  -0.29168
 Alpha  occ. eigenvalues --   -0.28925  -0.28491  -0.28295  -0.28024  -0.27949
 Alpha  occ. eigenvalues --   -0.27798  -0.26922  -0.23024  -0.20522
 Alpha virt. eigenvalues --   -0.07940  -0.06421  -0.01629  -0.00931  -0.00119
 Alpha virt. eigenvalues --    0.02565   0.03100   0.03907   0.04121   0.04402
 Alpha virt. eigenvalues --    0.04934   0.05749   0.07626   0.08597   0.09325

 Mulliken charges:
               1
     1  Mg   0.830848
     2  C    0.103221
     3  C   -0.232119
     4  C   -0.189156
     5  C   -0.169564
     6  N   -0.606756
     7  C    0.291434
     8  C   -0.142572
     9  C   -0.160318
    10  C    0.340816
    11  C   -0.295565
    12  C   -0.164336
    13  C   -0.257412
    14  C    0.592728
    15  O   -0.469548
    16  O   -0.478948
    17  N   -0.749969
    18  C    0.281375
    19  C    0.123412
    20  C   -0.096764
    21  C    0.417141
    22  C   -0.387324
    23  C    0.242272
    24  O   -0.420104
    25  N   -0.685209
    26  C    0.288069
    27  C   -0.000753
    28  C    0.003127
    29  C    0.313499
    30  C    0.226125
    31  C   -0.239517
    32  C   -0.312841
    33  N   -0.734188
    34  C    0.296336
    35  C    0.007216
    36  C   -0.014809
    37  C    0.322459
    38  C   -0.384159
    39  C    0.376455
    40  O   -0.414974
    41  C   -0.368856
    42  C    0.627053
    43  O   -0.499514
    44  O   -0.438221
    45  C   -0.085143
    46  C    0.022835
    47  C   -0.145918
    48  C    0.158931
    49  C   -0.362975
    50  C   -0.217229
    51  C   -0.164484
    52  C   -0.132497
    53  C   -0.049305
    54  C   -0.309761
    55  C   -0.158790
    56  C   -0.190531
    57  C   -0.194760
    58  C   -0.063926
    59  C   -0.325512
    60  C   -0.163992
    61  C   -0.158343
    62  C   -0.175263
    63  C   -0.045289
    64  C   -0.308432
    65  C   -0.284497
    66  H    0.078259
    67  H    0.143837
    68  H    0.087248
    69  H    0.125294
    70  H    0.105462
    71  H    0.121333
    72  H    0.105022
    73  H    0.120706
    74  H    0.077951
    75  H    0.117883
    76  H    0.132949
    77  H    0.125604
    78  H    0.095958
    79  H    0.167522
    80  H    0.140303
    81  H    0.065718
    82  H    0.120508
    83  H    0.111050
    84  H    0.115258
    85  H    0.104477
    86  H    0.105844
    87  H    0.129161
    88  H    0.147972
    89  H    0.139130
    90  H    0.157084
    91  H    0.122132
    92  H    0.136326
    93  H    0.079483
    94  H    0.159183
    95  H    0.086104
    96  H    0.110889
    97  H    0.063493
    98  H    0.103462
    99  H    0.084131
   100  H    0.103839
   101  H    0.057874
   102  H    0.100002
   103  H    0.075690
   104  H    0.078243
   105  H    0.095750
   106  H    0.097208
   107  H    0.091462
   108  H    0.101467
   109  H    0.086961
   110  H    0.076099
   111  H    0.087918
   112  H    0.082840
   113  H    0.079809
   114  H    0.097986
   115  H    0.088975
   116  H    0.117390
   117  H    0.084189
   118  H    0.065825
   119  H    0.102322
   120  H    0.097960
   121  H    0.075069
   122  H    0.099132
   123  H    0.054310
   124  H    0.091559
   125  H    0.110708
   126  H    0.096806
   127  H    0.104027
   128  H    0.073825
   129  H    0.095369
   130  H    0.116661
   131  H    0.146490
   132  H    0.129870
   133  O   -0.444494
   134  H    0.078917
 Sum of Mulliken charges =   0.00000

 Dipole moment (field-independent basis, Debye):
    X=              2.4484    Y=             -6.2342    Z=             -1.4085  Tot=              6.8442
 Quadrupole moment (field-independent basis, Debye-Ang):
   XX=           -371.4851   YY=           -437.8192   ZZ=           -394.1301
   XY=              9.7382   XZ=             33.6104   YZ=            -37.3807

 Normal termination of Gaussian 09 at Tue Oct  8 11:56:30 2019.
