 Gaussian 09, Revision D.01,
 Gaussian 09:  ES64L-G09RevD.01 24-Apr-2013

 ----------------------------------------------------------------------
 # td=(NStates=1) iop(3/107=0140000000,3/108=0140000000) iop(3/107=0140
 000000,3/108=0140000000) CAM-B3LYP/6-31G(d,p)
 ----------------------------------------------------------------------

 --
 TD
 --
 Symbolic Z-matrix:
 Charge =  0 Multiplicity = 1

                         Standard orientation:
 ---------------------------------------------------------------------
 Center     Atomic      Atomic             Coordinates (Angstroms)
 Number     Number       Type             X           Y           Z
 ---------------------------------------------------------------------
      1         12           0       -5.707556    1.222133    0.281913
      2          6           0       -5.174553   -2.191411   -0.316986
      3          6           0       -3.284801    1.137046    2.636830
      4          6           0       -6.087254    4.573270    0.687020
      5          6           0       -7.976644    1.188196   -2.269039
      6          7           0       -4.370261   -0.310623    1.043230
      7          6           0       -4.312473   -1.668473    0.644601
      8          6           0       -3.289562   -2.352231    1.406334
      9          6           0       -2.841080   -1.438560    2.677564
     10          6           0       -3.578057   -0.086801    2.173863
     11          6           0       -3.436168   -1.820919    4.024477
     12          6           0       -2.010421   -2.765067    0.640655
     13          6           0       -0.926956   -3.676862    1.373520
     14          6           0        0.223995   -3.928379    0.516050
     15          8           0        0.330451   -3.459379   -0.643037
     16          8           0        1.119289   -4.700922    1.107423
     17          7           0       -4.871248    2.671268    1.480561
     18          6           0       -3.929599    2.457002    2.474604
     19          6           0       -3.620055    3.607375    3.164116
     20          6           0       -4.405767    4.526215    2.618876
     21          6           0       -5.173239    3.919495    1.526490
     22          6           0       -2.578557    3.669408    4.298883
     23          6           0       -4.504045    6.027765    2.935924
     24          8           0       -3.831465    6.574038    3.740752
     25          7           0       -6.849319    2.729288   -0.653074
     26          6           0       -6.903921    4.032945   -0.293811
     27          6           0       -7.893106    4.634265   -1.133054
     28          6           0       -8.409844    3.745071   -1.986901
     29          6           0       -7.791944    2.495494   -1.705950
     30          6           0       -8.134756    6.132454   -1.224135
     31          6           0       -9.403118    4.046168   -3.115018
     32          6           0       -8.707394    4.124304   -4.410896
     33          7           0       -6.470248   -0.080210   -0.986743
     34          6           0       -7.368617   -0.003244   -2.037363
     35          6           0       -7.613053   -1.338985   -2.625042
     36          6           0       -6.733566   -2.102672   -2.010696
     37          6           0       -6.054736   -1.363513   -0.999675
     38          6           0       -8.597765   -1.605309   -3.724874
     39          6           0       -6.288082   -3.512512   -2.083399
     40          8           0       -6.673021   -4.437525   -2.706383
     41          6           0       -5.199462   -3.574976   -0.886266
     42          6           0       -5.463840   -4.629964    0.123496
     43          8           0       -5.890338   -4.421425    1.225109
     44          8           0       -5.237487   -5.837863   -0.376021
     45          6           0       -5.400251   -7.030736    0.463883
     46          6           0        2.347790   -5.062943    0.476297
     47          6           0        3.415840   -4.167327    0.843189
     48          6           0        4.116887   -3.259527    0.132162
     49          6           0        3.866174   -3.022732   -1.418893
     50          6           0        5.212436   -2.447270    0.641382
     51          6           0        6.537230   -2.777501    0.029046
     52          6           0        7.696950   -1.890719    0.570174
     53          6           0        9.083051   -2.142125   -0.008691
     54          6           0        9.645747   -3.516582    0.097296
     55          6           0        9.939999   -1.059958    0.537051
     56          6           0       11.413255   -0.940620   -0.149497
     57          6           0       12.186060    0.241458    0.298412
     58          6           0       13.550291    0.479339   -0.510298
     59          6           0       14.503114   -0.721208   -0.233369
     60          6           0       14.250898    1.807179   -0.208575
     61          6           0       15.312596    2.200484   -1.127007
     62          6           0       15.917399    3.622158   -0.693695
     63          6           0       17.166044    4.027303   -1.321399
     64          6           0       17.124632    4.109317   -2.872650
     65          6           0       17.690439    5.235432   -0.763451
     66          1           0       -2.572679    1.104238    3.422269
     67          1           0       -6.075493    5.487284    0.673677
     68          1           0       -8.697662    1.291895   -3.170359
     69          1           0       -3.745587   -3.564625    1.875283
     70          1           0       -1.943304   -1.346979    2.550590
     71          1           0       -3.046112   -2.829394    4.255346
     72          1           0       -3.335247   -1.063054    4.817545
     73          1           0       -4.461159   -1.819786    3.895546
     74          1           0       -2.437778   -3.226747   -0.284528
     75          1           0       -1.450548   -1.810294    0.136380
     76          1           0       -0.402207   -3.263209    2.404768
     77          1           0       -1.443006   -4.495689    1.796345
     78          1           0       -1.486168    3.451358    3.931690
     79          1           0       -2.558736    4.756383    4.657049
     80          1           0       -2.943533    2.947255    5.127681
     81          1           0       -5.355597    6.476332    2.406198
     82          1           0      -10.034183    3.091602   -3.069057
     83          1           0       -9.795791    4.941402   -2.989050
     84          1           0       -9.531939    4.346222   -5.110332
     85          1           0       -8.137526    5.156506   -4.363366
     86          1           0       -8.168885    3.301568   -5.018404
     87          1           0       -8.257603   -0.995184   -4.587973
     88          1           0       -8.348628   -2.693930   -3.769213
     89          1           0       -9.697924   -1.296664   -3.677389
     90          1           0       -4.332894   -4.047167   -1.380998
     91          1           0        2.596221   -5.895755    0.888817
     92          1           0        2.268866   -5.245015   -0.620758
     93          1           0        3.804872   -4.431174    1.979227
     94          1           0        2.802540   -3.155852   -1.740410
     95          1           0        4.151899   -2.038167   -1.749787
     96          1           0        4.531060   -3.729123   -2.012552
     97          1           0        4.985706   -1.370473    0.305757
     98          1           0        5.103545   -2.592784    1.615236
     99          1           0        6.774771   -3.787993    0.389785
    100          1           0        6.834443   -2.900625   -1.149494
    101          1           0        7.394418   -0.915982    0.500572
    102          1           0        7.768954   -2.109820    1.521001
    103          1           0        9.195213   -1.916864   -1.185676
    104          1           0        8.877738   -4.086135   -0.445267
    105          1           0       10.707012   -3.647653   -0.254942
    106          1           0        9.507589   -3.832960    1.194071
    107          1           0        9.402056   -0.200405    0.538524
    108          1           0        9.994873   -1.211961    1.638757
    109          1           0       11.899655   -1.841293    0.127301
    110          1           0       11.227980   -1.168262   -1.252237
    111          1           0       11.527430    0.997916    0.049757
    112          1           0       12.690893    0.200063    1.285023
    113          1           0       13.326711    0.574323   -1.670868
    114          1           0       14.960391   -0.844168    0.799392
    115          1           0       14.044671   -1.728131   -0.413961
    116          1           0       15.429224   -0.712110   -0.931765
    117          1           0       13.490407    2.580508   -0.104847
    118          1           0       14.534810    1.899648    0.812443
    119          1           0       16.175246    1.456656   -1.037912
    120          1           0       14.807525    2.321548   -2.317522
    121          1           0       14.848851    4.324531   -0.922924
    122          1           0       15.815647    3.815615    0.277468
    123          1           0       17.811310    3.399922   -1.229323
    124          1           0       16.378208    4.919711   -3.221663
    125          1           0       18.258270    4.320710   -3.163986
    126          1           0       16.829923    3.145546   -3.427876
    127          1           0       18.043810    5.348741    0.314554
    128          1           0       18.620716    5.470830   -1.178914
    129          1           0       17.023491    6.115336   -0.772299
    130          1           0       -5.273820   -7.968095   -0.274536
    131          1           0       -6.398527   -7.194609    0.745165
    132          1           0       -4.481965   -7.206122    1.152887
    133          8           0       -7.747468    6.930531   -0.407169
    134          1           0       -8.822767    6.387210   -1.971486
 ---------------------------------------------------------------------

 SCF Done:  E(RCAM-B3LYP) =  -3043.37090306     A.U. after   16 cycles

 Excitation energies and oscillator strengths:

 Excited State   1:      Singlet-A      2.0920 eV  592.66 nm  f=0.1620  <S**2>=0.000
     243 -> 246        0.29206
     244 -> 245        0.63709
 This state for optimization and/or second-order correction.
 Total Energy, E(TD-HF/TD-KS) =  -3043.29402326
 Copying the excited state density for this state as the 1-particle RhoCI density.

 The electronic state is 1-A.
 Alpha  occ. eigenvalues --  -46.81049 -19.22814 -19.22814 -19.18848 -19.17245
 Alpha  occ. eigenvalues --  -19.17237 -19.16318 -19.16280 -14.38202 -14.36749
 Alpha  occ. eigenvalues --  -14.35946 -14.35891 -10.35040 -10.34413 -10.32408
 Alpha  occ. eigenvalues --  -10.29884 -10.29861 -10.29408 -10.27400 -10.26550
 Alpha  occ. eigenvalues --  -10.26381 -10.25936 -10.25916 -10.25876 -10.25720
 Alpha  occ. eigenvalues --  -10.25501 -10.25097 -10.24992 -10.24963 -10.24849
 Alpha  occ. eigenvalues --  -10.24568 -10.24492 -10.24473 -10.23653 -10.23650
 Alpha  occ. eigenvalues --  -10.23635 -10.23424 -10.23179 -10.23133 -10.22995
 Alpha  occ. eigenvalues --  -10.22825 -10.22636 -10.22570 -10.22505 -10.22462
 Alpha  occ. eigenvalues --  -10.22439 -10.22092 -10.21896 -10.21811 -10.21766
 Alpha  occ. eigenvalues --  -10.21645 -10.21597 -10.21592 -10.21493 -10.21277
 Alpha  occ. eigenvalues --  -10.21264 -10.21191 -10.21015 -10.20982 -10.20892
 Alpha  occ. eigenvalues --  -10.20449 -10.19533 -10.19469 -10.19226 -10.19216
 Alpha  occ. eigenvalues --  -10.19140  -3.09578  -1.84523  -1.84032  -1.83999
 Alpha  occ. eigenvalues --   -1.13954  -1.13929  -1.10355  -1.08488  -1.07397
 Alpha  occ. eigenvalues --   -1.04944  -1.03081  -1.01441  -1.00816  -0.98277
 Alpha  occ. eigenvalues --   -0.97008  -0.88885  -0.87310  -0.86371  -0.86041
 Alpha  occ. eigenvalues --   -0.85778  -0.84910  -0.84515  -0.84271  -0.83939
 Alpha  occ. eigenvalues --   -0.82940  -0.82715  -0.82569  -0.80898  -0.80118
 Alpha  occ. eigenvalues --   -0.79370  -0.79024  -0.77947  -0.77401  -0.76746
 Alpha  occ. eigenvalues --   -0.75007  -0.74613  -0.73985  -0.73338  -0.72122
 Alpha  occ. eigenvalues --   -0.71972  -0.71046  -0.70615  -0.69986  -0.69934
 Alpha  occ. eigenvalues --   -0.69654  -0.69349  -0.67371  -0.66398  -0.66272
 Alpha  occ. eigenvalues --   -0.65576  -0.65303  -0.64657  -0.63099  -0.62652
 Alpha  occ. eigenvalues --   -0.61440  -0.61137  -0.60837  -0.60230  -0.59561
 Alpha  occ. eigenvalues --   -0.58914  -0.58359  -0.57831  -0.57660  -0.56776
 Alpha  occ. eigenvalues --   -0.56510  -0.55950  -0.55567  -0.54988  -0.54809
 Alpha  occ. eigenvalues --   -0.53911  -0.53460  -0.52944  -0.52690  -0.52528
 Alpha  occ. eigenvalues --   -0.52325  -0.52183  -0.51595  -0.51351  -0.50944
 Alpha  occ. eigenvalues --   -0.50633  -0.50381  -0.50311  -0.49724  -0.48981
 Alpha  occ. eigenvalues --   -0.48813  -0.48583  -0.48316  -0.48130  -0.48022
 Alpha  occ. eigenvalues --   -0.47946  -0.47771  -0.47592  -0.47389  -0.47115
 Alpha  occ. eigenvalues --   -0.46900  -0.46557  -0.46260  -0.45959  -0.45784
 Alpha  occ. eigenvalues --   -0.45487  -0.45167  -0.45030  -0.44909  -0.44626
 Alpha  occ. eigenvalues --   -0.44466  -0.44446  -0.44006  -0.43939  -0.43648
 Alpha  occ. eigenvalues --   -0.43514  -0.43385  -0.43067  -0.43049  -0.42981
 Alpha  occ. eigenvalues --   -0.42707  -0.42476  -0.42229  -0.42153  -0.42066
 Alpha  occ. eigenvalues --   -0.42018  -0.41749  -0.41255  -0.41210  -0.41117
 Alpha  occ. eigenvalues --   -0.40996  -0.40840  -0.40747  -0.40352  -0.40187
 Alpha  occ. eigenvalues --   -0.40056  -0.39809  -0.39761  -0.39525  -0.38997
 Alpha  occ. eigenvalues --   -0.38862  -0.38701  -0.38519  -0.38047  -0.37789
 Alpha  occ. eigenvalues --   -0.37648  -0.37505  -0.37260  -0.37148  -0.37068
 Alpha  occ. eigenvalues --   -0.36646  -0.36211  -0.36073  -0.35768  -0.35680
 Alpha  occ. eigenvalues --   -0.35144  -0.34868  -0.34809  -0.34759  -0.34183
 Alpha  occ. eigenvalues --   -0.34084  -0.33646  -0.33354  -0.33278  -0.32897
 Alpha  occ. eigenvalues --   -0.32864  -0.32292  -0.32101  -0.31680  -0.31101
 Alpha  occ. eigenvalues --   -0.30951  -0.30434  -0.30371  -0.30190  -0.29879
 Alpha  occ. eigenvalues --   -0.29177  -0.28377  -0.28354  -0.27857  -0.27609
 Alpha  occ. eigenvalues --   -0.27607  -0.27269  -0.22507  -0.21446
 Alpha virt. eigenvalues --   -0.07985  -0.05916  -0.01239   0.00581   0.01261
 Alpha virt. eigenvalues --    0.02508   0.03267   0.03731   0.04080   0.04703
 Alpha virt. eigenvalues --    0.05770   0.06208   0.07698   0.08684   0.09086

 Mulliken charges:
               1
     1  Mg   0.823649
     2  C    0.103911
     3  C   -0.165647
     4  C   -0.081398
     5  C   -0.208195
     6  N   -0.633477
     7  C    0.354572
     8  C   -0.196078
     9  C   -0.059107
    10  C    0.254243
    11  C   -0.304914
    12  C   -0.173655
    13  C   -0.266699
    14  C    0.626157
    15  O   -0.496969
    16  O   -0.454597
    17  N   -0.695623
    18  C    0.249331
    19  C    0.085376
    20  C   -0.099243
    21  C    0.348091
    22  C   -0.378240
    23  C    0.267132
    24  O   -0.394563
    25  N   -0.700894
    26  C    0.310681
    27  C   -0.061443
    28  C    0.032256
    29  C    0.267172
    30  C    0.265565
    31  C   -0.203360
    32  C   -0.307470
    33  N   -0.759478
    34  C    0.278097
    35  C    0.048535
    36  C   -0.011635
    37  C    0.355617
    38  C   -0.379745
    39  C    0.386219
    40  O   -0.413534
    41  C   -0.362279
    42  C    0.628879
    43  O   -0.467204
    44  O   -0.448303
    45  C   -0.089417
    46  C    0.045933
    47  C   -0.162272
    48  C    0.137681
    49  C   -0.381289
    50  C   -0.211508
    51  C   -0.192757
    52  C   -0.167210
    53  C   -0.060939
    54  C   -0.295712
    55  C   -0.169119
    56  C   -0.190811
    57  C   -0.157886
    58  C   -0.063738
    59  C   -0.322258
    60  C   -0.166292
    61  C   -0.155297
    62  C   -0.148436
    63  C   -0.006661
    64  C   -0.305689
    65  C   -0.325098
    66  H    0.071225
    67  H    0.058091
    68  H    0.070688
    69  H    0.066938
    70  H    0.094677
    71  H    0.105187
    72  H    0.109027
    73  H    0.137655
    74  H    0.114586
    75  H    0.108596
    76  H    0.119564
    77  H    0.144034
    78  H    0.117684
    79  H    0.150451
    80  H    0.117102
    81  H    0.081900
    82  H    0.106203
    83  H    0.114809
    84  H    0.108100
    85  H    0.094900
    86  H    0.115689
    87  H    0.132435
    88  H    0.146744
    89  H    0.131592
    90  H    0.158221
    91  H    0.114956
    92  H    0.125051
    93  H    0.054771
    94  H    0.141435
    95  H    0.111412
    96  H    0.112803
    97  H    0.100301
    98  H    0.107098
    99  H    0.096234
   100  H    0.086073
   101  H    0.099575
   102  H    0.104667
   103  H    0.048643
   104  H    0.103553
   105  H    0.108766
   106  H    0.082305
   107  H    0.092271
   108  H    0.071132
   109  H    0.100095
   110  H    0.084879
   111  H    0.100530
   112  H    0.099136
   113  H    0.063806
   114  H    0.095204
   115  H    0.098591
   116  H    0.092602
   117  H    0.083835
   118  H    0.089550
   119  H    0.088793
   120  H    0.061220
   121  H    0.028023
   122  H    0.103661
   123  H    0.100691
   124  H    0.097645
   125  H    0.078268
   126  H    0.099541
   127  H    0.085526
   128  H    0.099081
   129  H    0.100924
   130  H    0.110906
   131  H    0.153299
   132  H    0.127723
   133  O   -0.414446
   134  H    0.060815
 Sum of Mulliken charges =   0.00000

 Dipole moment (field-independent basis, Debye):
    X=              2.1365    Y=             -5.9459    Z=             -0.7270  Tot=              6.3598
 Quadrupole moment (field-independent basis, Debye-Ang):
   XX=           -361.2986   YY=           -424.7427   ZZ=           -394.7251
   XY=              6.2367   XZ=             34.4552   YZ=            -33.0489

 Normal termination of Gaussian 09 at Thu Oct  3 11:50:49 2019.
