 Gaussian 09, Revision D.01,
 Gaussian 09:  ES64L-G09RevD.01 24-Apr-2013

 ----------------------------------------------------------------------
 # td=(NStates=1) iop(3/107=0140000000,3/108=0140000000) iop(3/107=0140
 000000,3/108=0140000000) CAM-B3LYP/6-31G(d,p)
 ----------------------------------------------------------------------

 --
 TD
 --
 Symbolic Z-matrix:
 Charge =  0 Multiplicity = 1

                         Standard orientation:
 ---------------------------------------------------------------------
 Center     Atomic      Atomic             Coordinates (Angstroms)
 Number     Number       Type             X           Y           Z
 ---------------------------------------------------------------------
      1         12           0       -5.601864    1.238876    0.271316
      2          6           0       -5.022333   -2.223281   -0.359698
      3          6           0       -3.318696    1.214861    2.781296
      4          6           0       -6.264000    4.515969    0.599742
      5          6           0       -8.122555    1.038419   -2.360343
      6          7           0       -4.386431   -0.329075    1.025764
      7          6           0       -4.251250   -1.578886    0.640309
      8          6           0       -3.108880   -2.302779    1.507349
      9          6           0       -2.901557   -1.218374    2.578680
     10          6           0       -3.628065    0.012367    2.135460
     11          6           0       -3.471022   -1.547539    3.939943
     12          6           0       -1.857584   -2.622370    0.688973
     13          6           0       -0.894280   -3.479204    1.575161
     14          6           0        0.326723   -3.841580    0.696394
     15          8           0        0.424743   -3.430237   -0.470077
     16          8           0        1.053377   -4.770967    1.318373
     17          7           0       -4.810311    2.630846    1.342396
     18          6           0       -3.928602    2.385321    2.434390
     19          6           0       -3.731567    3.613582    3.104826
     20          6           0       -4.535166    4.614526    2.470420
     21          6           0       -5.281549    3.957615    1.399229
     22          6           0       -2.901727    3.875723    4.294840
     23          6           0       -4.775069    5.982940    2.945111
     24          8           0       -4.212774    6.540764    3.789919
     25          7           0       -6.843570    2.588827   -0.776812
     26          6           0       -6.929171    3.902319   -0.416145
     27          6           0       -7.937137    4.554683   -1.262967
     28          6           0       -8.571840    3.664421   -2.094855
     29          6           0       -7.863023    2.367598   -1.771086
     30          6           0       -8.420206    5.862199   -0.998083
     31          6           0       -9.551675    3.816185   -3.190896
     32          6           0       -8.816627    4.159039   -4.588756
     33          7           0       -6.451004   -0.239068   -1.061532
     34          6           0       -7.446904   -0.183607   -1.961282
     35          6           0       -7.605964   -1.390488   -2.698238
     36          6           0       -6.681478   -2.265063   -2.061999
     37          6           0       -6.025779   -1.463845   -1.103709
     38          6           0       -8.472076   -1.609720   -3.766768
     39          6           0       -6.230409   -3.628378   -2.064762
     40          8           0       -6.498243   -4.611013   -2.587921
     41          6           0       -4.995880   -3.598407   -0.871404
     42          6           0       -5.224404   -4.711090    0.119431
     43          8           0       -5.580590   -4.494087    1.299264
     44          8           0       -4.930432   -5.888416   -0.364775
     45          6           0       -5.322317   -7.063423    0.481814
     46          6           0        2.394636   -5.089436    0.670255
     47          6           0        3.381678   -4.069830    0.956126
     48          6           0        4.074090   -3.222384    0.133254
     49          6           0        3.800083   -3.124322   -1.342490
     50          6           0        5.187666   -2.304171    0.661295
     51          6           0        6.538321   -2.584095    0.041540
     52          6           0        7.690332   -1.699431    0.543768
     53          6           0        9.012716   -1.846318   -0.029006
     54          6           0        9.576109   -3.314774    0.198649
     55          6           0       10.032224   -0.817063    0.395472
     56          6           0       11.392190   -0.843911   -0.257056
     57          6           0       12.318832    0.344583    0.212935
     58          6           0       13.691824    0.422663   -0.558746
     59          6           0       14.470413   -0.803545   -0.386619
     60          6           0       14.297783    1.686760   -0.063492
     61          6           0       15.465372    2.160782   -0.979163
     62          6           0       15.985494    3.511258   -0.536104
     63          6           0       17.263732    3.909639   -1.445994
     64          6           0       17.021051    3.950159   -2.936900
     65          6           0       17.822171    5.323616   -0.854414
     66          1           0       -2.583017    1.048771    3.656394
     67          1           0       -6.493487    5.599331    0.690510
     68          1           0       -8.809993    0.967305   -3.101144
     69          1           0       -3.651046   -3.284174    1.936341
     70          1           0       -1.922113   -1.097900    2.621495
     71          1           0       -3.074916   -2.535979    4.291790
     72          1           0       -3.249397   -0.634857    4.606652
     73          1           0       -4.477858   -1.767607    4.111366
     74          1           0       -2.285333   -3.042813   -0.082118
     75          1           0       -1.290686   -1.638753    0.436582
     76          1           0       -0.640744   -2.917938    2.573639
     77          1           0       -1.404483   -4.457350    1.732918
     78          1           0       -1.694486    3.856645    3.998071
     79          1           0       -3.209848    4.810388    4.818924
     80          1           0       -3.039842    2.961214    5.057109
     81          1           0       -5.589411    6.667101    2.282453
     82          1           0      -10.042190    2.787206   -3.409879
     83          1           0      -10.294575    4.731085   -2.760046
     84          1           0       -9.515840    4.440750   -5.427231
     85          1           0       -8.071900    5.019920   -4.383542
     86          1           0       -8.250036    3.332418   -4.951001
     87          1           0       -8.142247   -1.001890   -4.543939
     88          1           0       -8.397084   -2.729691   -4.032536
     89          1           0       -9.512497   -1.613860   -3.535837
     90          1           0       -3.982671   -3.615959   -1.439864
     91          1           0        2.567226   -6.190690    0.786097
     92          1           0        2.168286   -5.202233   -0.484152
     93          1           0        3.486978   -3.998380    1.993137
     94          1           0        2.784990   -3.512161   -1.597993
     95          1           0        3.948048   -2.199978   -1.722909
     96          1           0        4.452848   -3.800553   -1.649034
     97          1           0        4.850657   -1.080270    0.589777
     98          1           0        5.146001   -2.458455    1.734945
     99          1           0        6.871934   -3.675840    0.168136
    100          1           0        6.431396   -2.575464   -1.094529
    101          1           0        7.081387   -0.563100    0.220612
    102          1           0        7.552487   -1.968544    1.695811
    103          1           0        9.007189   -1.838455   -1.078905
    104          1           0        8.852194   -4.075189    0.051124
    105          1           0       10.506275   -3.603326   -0.345931
    106          1           0        9.901482   -3.376004    1.225923
    107          1           0        9.714422    0.202906    0.114564
    108          1           0       10.120876   -0.704498    1.485433
    109          1           0       11.872040   -1.839000   -0.072523
    110          1           0       11.216952   -0.748203   -1.421552
    111          1           0       11.818317    1.126681    0.210038
    112          1           0       12.447956   -0.058405    1.352100
    113          1           0       13.366845    0.649012   -1.581656
    114          1           0       14.945732   -0.665575    0.621410
    115          1           0       13.950388   -1.645201   -0.808203
    116          1           0       15.431545   -0.589788   -1.019305
    117          1           0       13.578808    2.506392   -0.369901
    118          1           0       14.651440    1.685766    0.876306
    119          1           0       16.447398    1.434724   -1.114213
    120          1           0       15.168899    2.275555   -1.867166
    121          1           0       15.144463    4.325091   -0.577771
    122          1           0       16.483905    3.180883    0.506635
    123          1           0       17.877463    3.086103   -1.199897
    124          1           0       16.320584    4.781486   -3.306290
    125          1           0       17.906315    4.358449   -3.322747
    126          1           0       16.747286    2.916893   -3.388816
    127          1           0       17.563763    5.350059    0.247968
    128          1           0       18.873393    5.621454   -1.043957
    129          1           0       17.010344    6.094568   -1.253200
    130          1           0       -4.843214   -7.830498   -0.060258
    131          1           0       -6.344601   -7.046941    0.576323
    132          1           0       -4.858550   -7.177876    1.377349
    133          8           0       -7.792257    6.782005   -0.394399
    134          1           0       -9.573350    6.094161   -1.761584
 ---------------------------------------------------------------------

 SCF Done:  E(RCAM-B3LYP) =  -3043.41190418     A.U. after   16 cycles

 Excitation energies and oscillator strengths:

 Excited State   1:      Singlet-A      1.9949 eV  621.51 nm  f=0.1597  <S**2>=0.000
     243 -> 246        0.30105
     244 -> 245        0.62615
 This state for optimization and/or second-order correction.
 Total Energy, E(TD-HF/TD-KS) =  -3043.33859290
 Copying the excited state density for this state as the 1-particle RhoCI density.

 The electronic state is 1-A.
 Alpha  occ. eigenvalues --  -46.81356 -19.23129 -19.22750 -19.18322 -19.17848
 Alpha  occ. eigenvalues --  -19.16979 -19.16671 -19.15752 -14.38931 -14.37452
 Alpha  occ. eigenvalues --  -14.36611 -14.36148 -10.34806 -10.34530 -10.32144
 Alpha  occ. eigenvalues --  -10.31691 -10.30266 -10.28800 -10.27645 -10.27408
 Alpha  occ. eigenvalues --  -10.26981 -10.26588 -10.26554 -10.26455 -10.26435
 Alpha  occ. eigenvalues --  -10.26071 -10.25771 -10.25677 -10.25144 -10.24957
 Alpha  occ. eigenvalues --  -10.24429 -10.24410 -10.24342 -10.24163 -10.24138
 Alpha  occ. eigenvalues --  -10.24096 -10.24027 -10.23872 -10.23696 -10.23676
 Alpha  occ. eigenvalues --  -10.23401 -10.23344 -10.23118 -10.22917 -10.22800
 Alpha  occ. eigenvalues --  -10.22580 -10.22079 -10.21982 -10.21973 -10.21855
 Alpha  occ. eigenvalues --  -10.21806 -10.21774 -10.21772 -10.21681 -10.21607
 Alpha  occ. eigenvalues --  -10.21468 -10.21455 -10.20887 -10.20745 -10.20688
 Alpha  occ. eigenvalues --  -10.20463 -10.20298 -10.20057 -10.19991 -10.19657
 Alpha  occ. eigenvalues --  -10.19136  -3.09932  -1.84869  -1.84393  -1.84354
 Alpha  occ. eigenvalues --   -1.13383  -1.12026  -1.11817  -1.09981  -1.04593
 Alpha  occ. eigenvalues --   -1.03326  -1.02439  -1.01972  -1.00004  -0.98263
 Alpha  occ. eigenvalues --   -0.97157  -0.87616  -0.86766  -0.86229  -0.86015
 Alpha  occ. eigenvalues --   -0.85389  -0.85315  -0.85159  -0.84459  -0.83178
 Alpha  occ. eigenvalues --   -0.82748  -0.82087  -0.81257  -0.80583  -0.79544
 Alpha  occ. eigenvalues --   -0.78978  -0.78276  -0.77981  -0.77508  -0.77080
 Alpha  occ. eigenvalues --   -0.76058  -0.75052  -0.73691  -0.72954  -0.72016
 Alpha  occ. eigenvalues --   -0.71646  -0.71315  -0.70440  -0.69843  -0.69705
 Alpha  occ. eigenvalues --   -0.69206  -0.68781  -0.67205  -0.66310  -0.65939
 Alpha  occ. eigenvalues --   -0.64908  -0.64504  -0.63895  -0.62493  -0.62189
 Alpha  occ. eigenvalues --   -0.61581  -0.60924  -0.60200  -0.59403  -0.58896
 Alpha  occ. eigenvalues --   -0.58811  -0.58232  -0.57528  -0.57029  -0.57006
 Alpha  occ. eigenvalues --   -0.56527  -0.56075  -0.55467  -0.54586  -0.53995
 Alpha  occ. eigenvalues --   -0.53364  -0.52840  -0.52617  -0.51945  -0.51836
 Alpha  occ. eigenvalues --   -0.51605  -0.51407  -0.50668  -0.50648  -0.50526
 Alpha  occ. eigenvalues --   -0.50268  -0.49909  -0.49842  -0.49702  -0.49411
 Alpha  occ. eigenvalues --   -0.49278  -0.49007  -0.48580  -0.48110  -0.48016
 Alpha  occ. eigenvalues --   -0.47693  -0.47582  -0.47379  -0.47216  -0.46951
 Alpha  occ. eigenvalues --   -0.46667  -0.46494  -0.46384  -0.46178  -0.46149
 Alpha  occ. eigenvalues --   -0.45717  -0.45505  -0.45424  -0.45351  -0.45174
 Alpha  occ. eigenvalues --   -0.44682  -0.44303  -0.43980  -0.43931  -0.43823
 Alpha  occ. eigenvalues --   -0.43687  -0.43379  -0.43152  -0.43009  -0.42930
 Alpha  occ. eigenvalues --   -0.42828  -0.42728  -0.42516  -0.42335  -0.41824
 Alpha  occ. eigenvalues --   -0.41567  -0.41369  -0.41209  -0.40968  -0.40939
 Alpha  occ. eigenvalues --   -0.40843  -0.40760  -0.40599  -0.40378  -0.40328
 Alpha  occ. eigenvalues --   -0.39903  -0.39897  -0.39863  -0.39491  -0.39393
 Alpha  occ. eigenvalues --   -0.39293  -0.38964  -0.38682  -0.38563  -0.38256
 Alpha  occ. eigenvalues --   -0.38221  -0.37761  -0.37557  -0.37216  -0.36946
 Alpha  occ. eigenvalues --   -0.36452  -0.36190  -0.35944  -0.35559  -0.35214
 Alpha  occ. eigenvalues --   -0.35127  -0.35037  -0.34894  -0.34583  -0.34141
 Alpha  occ. eigenvalues --   -0.34036  -0.34014  -0.33635  -0.33410  -0.33256
 Alpha  occ. eigenvalues --   -0.32961  -0.32867  -0.32511  -0.32079  -0.31453
 Alpha  occ. eigenvalues --   -0.30963  -0.29998  -0.29846  -0.29791  -0.29334
 Alpha  occ. eigenvalues --   -0.28665  -0.28168  -0.27463  -0.27280  -0.27244
 Alpha  occ. eigenvalues --   -0.27214  -0.26833  -0.22488  -0.21650
 Alpha virt. eigenvalues --   -0.08733  -0.06750  -0.01346  -0.00358   0.01514
 Alpha virt. eigenvalues --    0.02162   0.03311   0.03633   0.03749   0.04831
 Alpha virt. eigenvalues --    0.05318   0.05934   0.06650   0.08420   0.08654

 Mulliken charges:
               1
     1  Mg   0.834172
     2  C    0.116333
     3  C   -0.168688
     4  C   -0.169242
     5  C   -0.150089
     6  N   -0.645292
     7  C    0.296419
     8  C   -0.179640
     9  C   -0.129346
    10  C    0.334630
    11  C   -0.311069
    12  C   -0.129915
    13  C   -0.275385
    14  C    0.614487
    15  O   -0.473965
    16  O   -0.464365
    17  N   -0.785727
    18  C    0.344525
    19  C    0.048159
    20  C   -0.033525
    21  C    0.321191
    22  C   -0.378972
    23  C    0.236849
    24  O   -0.374724
    25  N   -0.685789
    26  C    0.351899
    27  C    0.006348
    28  C    0.080316
    29  C    0.226115
    30  C    0.225841
    31  C   -0.246508
    32  C   -0.310180
    33  N   -0.688600
    34  C    0.257951
    35  C    0.055079
    36  C    0.023766
    37  C    0.302165
    38  C   -0.410423
    39  C    0.333108
    40  O   -0.388619
    41  C   -0.392301
    42  C    0.626027
    43  O   -0.510416
    44  O   -0.438039
    45  C   -0.090834
    46  C   -0.031892
    47  C   -0.118867
    48  C    0.116311
    49  C   -0.366700
    50  C   -0.208700
    51  C   -0.186102
    52  C   -0.128533
    53  C   -0.034832
    54  C   -0.344087
    55  C   -0.168449
    56  C   -0.195873
    57  C   -0.135562
    58  C   -0.047738
    59  C   -0.300141
    60  C   -0.161845
    61  C   -0.174663
    62  C   -0.172921
    63  C   -0.041422
    64  C   -0.309088
    65  C   -0.323051
    66  H    0.114125
    67  H    0.153071
    68  H    0.075287
    69  H    0.120719
    70  H    0.099777
    71  H    0.098510
    72  H    0.086700
    73  H    0.137278
    74  H    0.110104
    75  H    0.106474
    76  H    0.124312
    77  H    0.137377
    78  H    0.106100
    79  H    0.160643
    80  H    0.092611
    81  H    0.037912
    82  H    0.108466
    83  H    0.099767
    84  H    0.115093
    85  H    0.116013
    86  H    0.123786
    87  H    0.140763
    88  H    0.132240
    89  H    0.141677
    90  H    0.151436
    91  H    0.128289
    92  H    0.110025
    93  H    0.086002
    94  H    0.141107
    95  H    0.122399
    96  H    0.136287
    97  H    0.073231
    98  H    0.103108
    99  H    0.090704
   100  H    0.090920
   101  H    0.043906
   102  H    0.081375
   103  H    0.098165
   104  H    0.104845
   105  H    0.104122
   106  H    0.105397
   107  H    0.087070
   108  H    0.085632
   109  H    0.089256
   110  H    0.061430
   111  H    0.086709
   112  H    0.058651
   113  H    0.077932
   114  H    0.104730
   115  H    0.118145
   116  H    0.085049
   117  H    0.087982
   118  H    0.096169
   119  H    0.049796
   120  H    0.104539
   121  H    0.078156
   122  H    0.072607
   123  H    0.093535
   124  H    0.089612
   125  H    0.114715
   126  H    0.096708
   127  H    0.104094
   128  H    0.105813
   129  H    0.084840
   130  H    0.131111
   131  H    0.149657
   132  H    0.141684
   133  O   -0.433376
   134  H   -0.001939
 Sum of Mulliken charges =   0.00000

 Dipole moment (field-independent basis, Debye):
    X=              2.8972    Y=             -6.7915    Z=             -1.8602  Tot=              7.6144
 Quadrupole moment (field-independent basis, Debye-Ang):
   XX=           -366.6407   YY=           -437.6312   ZZ=           -391.9906
   XY=             21.3936   XZ=             20.6735   YZ=            -28.4894

 Normal termination of Gaussian 09 at Fri Oct  4 11:30:54 2019.
