 Gaussian 09, Revision D.01,
 Gaussian 09:  ES64L-G09RevD.01 24-Apr-2013

 ----------------------------------------------------------------------
 # td=(NStates=1) iop(3/107=0140000000,3/108=0140000000) iop(3/107=0140
 000000,3/108=0140000000) CAM-B3LYP/6-31G(d,p)
 ----------------------------------------------------------------------

 --
 TD
 --
 Symbolic Z-matrix:
 Charge =  0 Multiplicity = 1

                         Standard orientation:
 ---------------------------------------------------------------------
 Center     Atomic      Atomic             Coordinates (Angstroms)
 Number     Number       Type             X           Y           Z
 ---------------------------------------------------------------------
      1         12           0       -5.592953    1.249052    0.267563
      2          6           0       -5.110611   -2.121868   -0.305521
      3          6           0       -3.294561    1.146155    2.697423
      4          6           0       -6.156082    4.576785    0.816866
      5          6           0       -7.993469    1.212359   -2.413628
      6          7           0       -4.364506   -0.243478    1.088813
      7          6           0       -4.343292   -1.578672    0.678794
      8          6           0       -3.188940   -2.327976    1.410948
      9          6           0       -3.054235   -1.390289    2.652613
     10          6           0       -3.575040    0.008714    2.091545
     11          6           0       -3.541367   -1.761056    4.026458
     12          6           0       -1.992007   -2.632348    0.660184
     13          6           0       -1.048896   -3.625841    1.419072
     14          6           0        0.185471   -3.999734    0.524892
     15          8           0        0.472712   -3.455891   -0.561524
     16          8           0        1.004893   -4.818966    1.134635
     17          7           0       -4.806933    2.664938    1.504456
     18          6           0       -3.867891    2.430905    2.454958
     19          6           0       -3.474068    3.712752    3.167002
     20          6           0       -4.326238    4.628786    2.576917
     21          6           0       -5.096746    3.902301    1.531929
     22          6           0       -2.496720    3.797332    4.337028
     23          6           0       -4.432942    6.029729    2.903987
     24          8           0       -3.736449    6.533841    3.727340
     25          7           0       -6.733945    2.658700   -0.724850
     26          6           0       -6.847275    3.932580   -0.245133
     27          6           0       -7.790706    4.602411   -1.209807
     28          6           0       -8.327621    3.608608   -2.054930
     29          6           0       -7.651962    2.420470   -1.739092
     30          6           0       -8.211109    6.037795   -1.210240
     31          6           0       -9.230341    3.866031   -3.147465
     32          6           0       -8.524839    4.016304   -4.522219
     33          7           0       -6.467684   -0.085874   -1.026361
     34          6           0       -7.378793   -0.010069   -2.020405
     35          6           0       -7.654230   -1.281382   -2.665488
     36          6           0       -6.691721   -2.109867   -1.984064
     37          6           0       -5.984021   -1.372292   -1.037282
     38          6           0       -8.490332   -1.639061   -3.864557
     39          6           0       -6.255880   -3.496619   -2.003102
     40          8           0       -6.598467   -4.438494   -2.661347
     41          6           0       -5.215242   -3.568345   -0.851521
     42          6           0       -5.284854   -4.575583    0.190469
     43          8           0       -5.713306   -4.368927    1.316839
     44          8           0       -5.109261   -5.794735   -0.329416
     45          6           0       -5.424733   -6.934254    0.449626
     46          6           0        2.255013   -5.099982    0.546488
     47          6           0        3.370553   -4.076817    0.845735
     48          6           0        3.950627   -3.216644    0.105125
     49          6           0        3.480106   -3.155577   -1.331624
     50          6           0        5.095242   -2.438203    0.666700
     51          6           0        6.470593   -2.809140    0.062052
     52          6           0        7.498626   -1.832397    0.581382
     53          6           0        8.908993   -2.070284   -0.030620
     54          6           0        9.679911   -3.413303    0.371097
     55          6           0        9.848198   -0.917271    0.458346
     56          6           0       11.268384   -0.940447   -0.280808
     57          6           0       12.127038    0.248094    0.313413
     58          6           0       13.372709    0.483296   -0.629549
     59          6           0       14.367815   -0.739083   -0.557370
     60          6           0       14.001507    1.766460   -0.231838
     61          6           0       15.432947    2.074814   -0.857424
     62          6           0       15.915101    3.484181   -0.571283
     63          6           0       17.186315    3.870806   -1.456327
     64          6           0       16.954106    4.000912   -2.863007
     65          6           0       17.936618    5.139617   -0.828328
     66          1           0       -2.748817    0.995398    3.697128
     67          1           0       -6.431531    5.688497    1.030697
     68          1           0       -8.993773    1.064958   -3.103608
     69          1           0       -3.568181   -3.398471    1.802812
     70          1           0       -1.879964   -0.975586    2.584418
     71          1           0       -2.830551   -2.495884    4.394772
     72          1           0       -3.468679   -1.020889    4.790390
     73          1           0       -4.539688   -2.089188    3.946083
     74          1           0       -2.148197   -3.161613   -0.317227
     75          1           0       -1.289530   -1.786927    0.290892
     76          1           0       -0.919256   -3.366235    2.509390
     77          1           0       -1.472084   -4.614082    1.426486
     78          1           0       -1.624989    3.360599    4.058617
     79          1           0       -2.555357    4.740007    4.648642
     80          1           0       -2.923695    3.245932    5.234499
     81          1           0       -4.794052    6.853420    2.124025
     82          1           0       -9.992005    3.108109   -3.262718
     83          1           0      -10.080913    4.581529   -2.929532
     84          1           0       -9.500063    4.142507   -5.284215
     85          1           0       -7.787174    4.751822   -4.631701
     86          1           0       -8.121096    3.039713   -4.596309
     87          1           0       -7.909407   -1.269971   -4.837985
     88          1           0       -8.682231   -2.702294   -3.876451
     89          1           0       -9.453735   -0.908289   -3.773797
     90          1           0       -4.171631   -3.696429   -1.418424
     91          1           0        2.687157   -6.194568    0.837024
     92          1           0        2.157094   -5.291601   -0.500792
     93          1           0        3.839484   -4.482609    1.831670
     94          1           0        2.494586   -3.230662   -1.533968
     95          1           0        3.744388   -2.196835   -1.726916
     96          1           0        4.149835   -3.647204   -2.030678
     97          1           0        5.094358   -1.387668    0.524552
     98          1           0        5.133919   -2.559417    1.753711
     99          1           0        6.740345   -3.798271    0.496505
    100          1           0        6.390715   -2.741595   -1.163982
    101          1           0        7.087080   -0.824410    0.304191
    102          1           0        7.568774   -1.789856    1.569124
    103          1           0        8.899425   -2.011498   -1.165084
    104          1           0        9.119119   -4.437359   -0.043218
    105          1           0       10.703410   -3.423671   -0.160255
    106          1           0        9.596612   -3.455940    1.478392
    107          1           0        9.317214    0.013204   -0.053307
    108          1           0        9.882671   -1.117334    1.462489
    109          1           0       11.740558   -1.851830   -0.050751
    110          1           0       11.208542   -0.688767   -1.130107
    111          1           0       11.466033    1.261427    0.168586
    112          1           0       12.264134    0.099147    1.244433
    113          1           0       12.919654    0.658797   -1.676504
    114          1           0       14.889097   -0.731154    0.637348
    115          1           0       13.922982   -1.636894   -0.630997
    116          1           0       15.291391   -0.844931   -1.311522
    117          1           0       13.356939    2.692347   -0.418631
    118          1           0       14.074704    1.799635    0.879634
    119          1           0       16.087129    1.418725   -0.506221
    120          1           0       15.273171    1.951522   -1.873915
    121          1           0       15.029145    4.180229   -0.933904
    122          1           0       16.077320    3.688947    0.635482
    123          1           0       17.846491    3.004171   -1.179341
    124          1           0       16.143896    4.830574   -3.167083
    125          1           0       17.914046    4.403104   -3.388136
    126          1           0       16.624277    3.063326   -3.214443
    127          1           0       18.451836    5.003728    0.213581
    128          1           0       18.850614    5.349460   -1.670628
    129          1           0       17.126443    5.921721   -0.768287
    130          1           0       -4.660167   -7.660412   -0.124468
    131          1           0       -6.477181   -6.970535    0.794428
    132          1           0       -4.852201   -6.826629    1.349217
    133          8           0       -7.644547    6.960987   -0.531177
    134          1           0       -9.060785    6.301040   -1.902585
 ---------------------------------------------------------------------

 SCF Done:  E(RCAM-B3LYP) =  -3043.38605630     A.U. after   16 cycles

 Excitation energies and oscillator strengths:

 Excited State   1:      Singlet-A      2.0576 eV  602.57 nm  f=0.2013  <S**2>=0.000
     243 -> 246       -0.26373
     244 -> 245        0.64981
 This state for optimization and/or second-order correction.
 Total Energy, E(TD-HF/TD-KS) =  -3043.31044143
 Copying the excited state density for this state as the 1-particle RhoCI density.

 The electronic state is 1-A.
 Alpha  occ. eigenvalues --  -46.81619 -19.23666 -19.22637 -19.17198 -19.17084
 Alpha  occ. eigenvalues --  -19.16996 -19.16822 -19.16477 -14.38700 -14.37549
 Alpha  occ. eigenvalues --  -14.36980 -14.36330 -10.35857 -10.35063 -10.31194
 Alpha  occ. eigenvalues --  -10.30372 -10.30138 -10.28423 -10.28344 -10.27684
 Alpha  occ. eigenvalues --  -10.27411 -10.26999 -10.26769 -10.26511 -10.26290
 Alpha  occ. eigenvalues --  -10.26140 -10.26015 -10.25479 -10.25379 -10.25148
 Alpha  occ. eigenvalues --  -10.25136 -10.25032 -10.24962 -10.24713 -10.24589
 Alpha  occ. eigenvalues --  -10.24509 -10.23641 -10.23565 -10.23506 -10.23199
 Alpha  occ. eigenvalues --  -10.23110 -10.22994 -10.22862 -10.22740 -10.22720
 Alpha  occ. eigenvalues --  -10.22713 -10.22615 -10.22509 -10.22442 -10.22384
 Alpha  occ. eigenvalues --  -10.22254 -10.22102 -10.21860 -10.21723 -10.21687
 Alpha  occ. eigenvalues --  -10.21155 -10.21122 -10.21055 -10.21010 -10.20999
 Alpha  occ. eigenvalues --  -10.20586 -10.20473 -10.20365 -10.18969 -10.18869
 Alpha  occ. eigenvalues --  -10.18594  -3.10203  -1.85150  -1.84680  -1.84599
 Alpha  occ. eigenvalues --   -1.15359  -1.14384  -1.08407  -1.07936  -1.05043
 Alpha  occ. eigenvalues --   -1.03732  -1.02795  -1.02689  -1.00725  -0.99862
 Alpha  occ. eigenvalues --   -0.98623  -0.89553  -0.86637  -0.85953  -0.85833
 Alpha  occ. eigenvalues --   -0.85151  -0.84604  -0.84111  -0.83821  -0.82995
 Alpha  occ. eigenvalues --   -0.82670  -0.82575  -0.81483  -0.80697  -0.80239
 Alpha  occ. eigenvalues --   -0.78830  -0.78098  -0.77659  -0.77562  -0.77021
 Alpha  occ. eigenvalues --   -0.75894  -0.75021  -0.74234  -0.73427  -0.72546
 Alpha  occ. eigenvalues --   -0.72195  -0.70168  -0.70005  -0.69663  -0.69539
 Alpha  occ. eigenvalues --   -0.69075  -0.68540  -0.67257  -0.66911  -0.66181
 Alpha  occ. eigenvalues --   -0.65639  -0.64992  -0.64062  -0.62317  -0.61957
 Alpha  occ. eigenvalues --   -0.61770  -0.61084  -0.60471  -0.59773  -0.59347
 Alpha  occ. eigenvalues --   -0.58954  -0.57993  -0.57909  -0.56863  -0.56741
 Alpha  occ. eigenvalues --   -0.56489  -0.56206  -0.55996  -0.55562  -0.54615
 Alpha  occ. eigenvalues --   -0.54102  -0.53721  -0.52758  -0.52560  -0.52208
 Alpha  occ. eigenvalues --   -0.51538  -0.51488  -0.51396  -0.51274  -0.50710
 Alpha  occ. eigenvalues --   -0.50523  -0.50162  -0.49878  -0.49690  -0.49491
 Alpha  occ. eigenvalues --   -0.49269  -0.48826  -0.48581  -0.48307  -0.48031
 Alpha  occ. eigenvalues --   -0.47833  -0.47544  -0.47108  -0.46884  -0.46673
 Alpha  occ. eigenvalues --   -0.46442  -0.46140  -0.46129  -0.46088  -0.45857
 Alpha  occ. eigenvalues --   -0.45487  -0.45332  -0.45149  -0.45025  -0.44777
 Alpha  occ. eigenvalues --   -0.44562  -0.44480  -0.43939  -0.43718  -0.43598
 Alpha  occ. eigenvalues --   -0.43433  -0.43310  -0.42939  -0.42787  -0.42641
 Alpha  occ. eigenvalues --   -0.42618  -0.42380  -0.42343  -0.42207  -0.42109
 Alpha  occ. eigenvalues --   -0.41766  -0.41739  -0.41308  -0.41136  -0.41012
 Alpha  occ. eigenvalues --   -0.40835  -0.40521  -0.40470  -0.40170  -0.40053
 Alpha  occ. eigenvalues --   -0.39787  -0.39701  -0.39270  -0.38994  -0.38949
 Alpha  occ. eigenvalues --   -0.38716  -0.38583  -0.38345  -0.38139  -0.37999
 Alpha  occ. eigenvalues --   -0.37654  -0.37557  -0.37440  -0.36990  -0.36572
 Alpha  occ. eigenvalues --   -0.36313  -0.36248  -0.35764  -0.35674  -0.35395
 Alpha  occ. eigenvalues --   -0.35191  -0.35116  -0.34862  -0.34815  -0.34691
 Alpha  occ. eigenvalues --   -0.34400  -0.34099  -0.33534  -0.33248  -0.32921
 Alpha  occ. eigenvalues --   -0.32575  -0.32418  -0.32195  -0.31742  -0.31337
 Alpha  occ. eigenvalues --   -0.31047  -0.30887  -0.30597  -0.30226  -0.29622
 Alpha  occ. eigenvalues --   -0.29173  -0.28009  -0.27749  -0.27643  -0.27227
 Alpha  occ. eigenvalues --   -0.27148  -0.27108  -0.23039  -0.21706
 Alpha virt. eigenvalues --   -0.08656  -0.06541  -0.01646  -0.00686   0.00678
 Alpha virt. eigenvalues --    0.02193   0.02598   0.03491   0.04240   0.05043
 Alpha virt. eigenvalues --    0.05327   0.05741   0.07267   0.07966   0.08319

 Mulliken charges:
               1
     1  Mg   0.818716
     2  C    0.095561
     3  C   -0.192253
     4  C   -0.170268
     5  C   -0.162223
     6  N   -0.653719
     7  C    0.279642
     8  C   -0.145805
     9  C   -0.152329
    10  C    0.373358
    11  C   -0.313591
    12  C   -0.163572
    13  C   -0.268977
    14  C    0.583139
    15  O   -0.482877
    16  O   -0.415524
    17  N   -0.675726
    18  C    0.260798
    19  C    0.039793
    20  C   -0.044752
    21  C    0.343735
    22  C   -0.352474
    23  C    0.206828
    24  O   -0.389611
    25  N   -0.714543
    26  C    0.313520
    27  C   -0.046976
    28  C    0.056787
    29  C    0.307890
    30  C    0.230451
    31  C   -0.283722
    32  C   -0.282784
    33  N   -0.727459
    34  C    0.266056
    35  C    0.043967
    36  C   -0.032759
    37  C    0.317912
    38  C   -0.356809
    39  C    0.367388
    40  O   -0.446502
    41  C   -0.314741
    42  C    0.617029
    43  O   -0.482899
    44  O   -0.433572
    45  C   -0.095504
    46  C   -0.008032
    47  C   -0.143045
    48  C    0.179009
    49  C   -0.396842
    50  C   -0.243246
    51  C   -0.164056
    52  C   -0.160971
    53  C   -0.073113
    54  C   -0.308157
    55  C   -0.168618
    56  C   -0.149079
    57  C   -0.174850
    58  C   -0.045109
    59  C   -0.292876
    60  C   -0.178467
    61  C   -0.167498
    62  C   -0.168853
    63  C   -0.041399
    64  C   -0.288820
    65  C   -0.294450
    66  H    0.086057
    67  H    0.152894
    68  H    0.107411
    69  H    0.107759
    70  H    0.073678
    71  H    0.116660
    72  H    0.118956
    73  H    0.140482
    74  H    0.111705
    75  H    0.119484
    76  H    0.138405
    77  H    0.133729
    78  H    0.135033
    79  H    0.160296
    80  H    0.117767
    81  H    0.072954
    82  H    0.106366
    83  H    0.101391
    84  H    0.080857
    85  H    0.132035
    86  H    0.121155
    87  H    0.131488
    88  H    0.158760
    89  H    0.095143
    90  H    0.152441
    91  H    0.093478
    92  H    0.126202
    93  H    0.066804
    94  H    0.165108
    95  H    0.097516
    96  H    0.114161
    97  H    0.102548
    98  H    0.100240
    99  H    0.098618
   100  H    0.074322
   101  H    0.083864
   102  H    0.097994
   103  H    0.070780
   104  H    0.070808
   105  H    0.109966
   106  H    0.100664
   107  H    0.078171
   108  H    0.092898
   109  H    0.100529
   110  H    0.088076
   111  H    0.062058
   112  H    0.099254
   113  H    0.075211
   114  H    0.055250
   115  H    0.117178
   116  H    0.089974
   117  H    0.078194
   118  H    0.081550
   119  H    0.108549
   120  H    0.098008
   121  H    0.064431
   122  H    0.065863
   123  H    0.083899
   124  H    0.082152
   125  H    0.093837
   126  H    0.113741
   127  H    0.095074
   128  H    0.063119
   129  H    0.104768
   130  H    0.127729
   131  H    0.150194
   132  H    0.126866
   133  O   -0.453394
   134  H    0.078719
 Sum of Mulliken charges =   0.00000

 Dipole moment (field-independent basis, Debye):
    X=              1.5406    Y=             -6.1645    Z=              0.1540  Tot=              6.3560
 Quadrupole moment (field-independent basis, Debye-Ang):
   XX=           -384.3531   YY=           -446.9886   ZZ=           -389.4794
   XY=             -0.2420   XZ=             13.7245   YZ=            -29.1629

 Normal termination of Gaussian 09 at Wed Oct  9 02:37:12 2019.
