 Gaussian 09, Revision D.01,
 Gaussian 09:  ES64L-G09RevD.01 24-Apr-2013

 ----------------------------------------------------------------------
 # td=(NStates=1) iop(3/107=0140000000,3/108=0140000000) iop(3/107=0140
 000000,3/108=0140000000) CAM-B3LYP/6-31G(d,p)
 ----------------------------------------------------------------------

 --
 TD
 --
 Symbolic Z-matrix:
 Charge =  0 Multiplicity = 1

                         Standard orientation:
 ---------------------------------------------------------------------
 Center     Atomic      Atomic             Coordinates (Angstroms)
 Number     Number       Type             X           Y           Z
 ---------------------------------------------------------------------
      1         12           0       -5.722396    1.234566    0.120078
      2          6           0       -5.128604   -2.200649   -0.234804
      3          6           0       -3.360238    1.298267    2.700951
      4          6           0       -6.445037    4.457656    0.659221
      5          6           0       -8.082521    1.044085   -2.242287
      6          7           0       -4.390901   -0.322862    1.028415
      7          6           0       -4.252429   -1.672011    0.761291
      8          6           0       -3.080089   -2.312472    1.601333
      9          6           0       -2.731610   -1.268669    2.631107
     10          6           0       -3.515537    0.045792    2.080505
     11          6           0       -3.291510   -1.618483    3.997409
     12          6           0       -1.876272   -2.726273    0.612018
     13          6           0       -0.927827   -3.624211    1.341584
     14          6           0        0.358121   -3.889798    0.525934
     15          8           0        0.609180   -3.383867   -0.551678
     16          8           0        1.141214   -4.677618    1.252267
     17          7           0       -5.050064    2.605993    1.397605
     18          6           0       -4.128817    2.409737    2.465657
     19          6           0       -3.865684    3.737380    3.091581
     20          6           0       -4.611206    4.612540    2.457739
     21          6           0       -5.408241    3.948629    1.442254
     22          6           0       -2.995303    3.826480    4.197213
     23          6           0       -4.751141    5.995321    2.771634
     24          8           0       -4.179009    6.587669    3.649384
     25          7           0       -6.955678    2.547779   -0.746436
     26          6           0       -7.056263    3.928395   -0.409610
     27          6           0       -8.107499    4.530349   -1.240009
     28          6           0       -8.630632    3.577962   -2.084080
     29          6           0       -7.869114    2.384194   -1.737558
     30          6           0       -8.646327    5.936555   -1.118390
     31          6           0       -9.661388    3.664446   -3.158600
     32          6           0       -8.968677    4.018396   -4.566868
     33          7           0       -6.377018   -0.119021   -1.107811
     34          6           0       -7.402547   -0.099915   -2.039122
     35          6           0       -7.590365   -1.446337   -2.597281
     36          6           0       -6.648863   -2.213442   -1.934165
     37          6           0       -5.953323   -1.394821   -1.110437
     38          6           0       -8.532471   -1.759118   -3.744442
     39          6           0       -6.178850   -3.582667   -1.932817
     40          8           0       -6.467603   -4.622316   -2.562840
     41          6           0       -4.987959   -3.571174   -0.825554
     42          6           0       -5.265341   -4.683862    0.269433
     43          8           0       -5.720219   -4.353838    1.439160
     44          8           0       -5.008374   -5.953562   -0.203357
     45          6           0       -5.271290   -7.064223    0.560150
     46          6           0        2.430703   -5.063778    0.511082
     47          6           0        3.505309   -4.030723    0.930958
     48          6           0        4.162538   -3.126922    0.098185
     49          6           0        3.801443   -3.110095   -1.350887
     50          6           0        5.261069   -2.255069    0.638593
     51          6           0        6.616995   -2.580188    0.077517
     52          6           0        7.724866   -1.691642    0.638487
     53          6           0        9.065036   -1.857048   -0.053718
     54          6           0        9.669667   -3.286120    0.236245
     55          6           0       10.077395   -0.855306    0.439488
     56          6           0       11.316972   -0.850683   -0.302507
     57          6           0       12.300783    0.271466    0.169415
     58          6           0       13.598096    0.549305   -0.645430
     59          6           0       14.458199   -0.780137   -0.588585
     60          6           0       14.316326    1.835303   -0.078935
     61          6           0       15.474054    2.240773   -0.982661
     62          6           0       16.111704    3.539945   -0.586838
     63          6           0       17.387105    3.854615   -1.296850
     64          6           0       17.308262    4.120732   -2.801513
     65          6           0       18.062692    5.108006   -0.650760
     66          1           0       -2.457279    1.351585    3.399877
     67          1           0       -6.702101    5.573292    0.797572
     68          1           0       -8.803546    0.956601   -3.022875
     69          1           0       -3.364410   -3.165833    1.918499
     70          1           0       -1.710580   -1.134177    2.608932
     71          1           0       -3.090289   -2.538067    4.212324
     72          1           0       -2.838274   -0.960225    4.832306
     73          1           0       -4.489226   -1.577549    4.073983
     74          1           0       -2.400470   -3.274107   -0.152184
     75          1           0       -1.091464   -1.923020    0.121004
     76          1           0       -0.566220   -3.354561    2.471395
     77          1           0       -1.342970   -4.646562    1.444298
     78          1           0       -2.146061    3.651756    3.703829
     79          1           0       -2.695504    4.811705    4.647373
     80          1           0       -3.058063    3.141195    5.025979
     81          1           0       -5.541047    6.397790    1.939818
     82          1           0      -10.096991    2.485329   -3.159661
     83          1           0      -10.306873    4.597595   -3.185408
     84          1           0       -9.624819    3.879580   -5.257398
     85          1           0       -8.518936    5.088071   -4.542223
     86          1           0       -8.093294    3.373265   -4.908308
     87          1           0       -8.407599   -1.427781   -4.774076
     88          1           0       -8.346825   -3.006481   -3.969887
     89          1           0       -9.635666   -1.563716   -3.285725
     90          1           0       -4.127815   -3.862474   -1.228270
     91          1           0        2.474599   -6.115866    0.886433
     92          1           0        2.149113   -4.962603   -0.634312
     93          1           0        3.633092   -4.119591    2.055871
     94          1           0        2.797265   -3.472024   -1.825692
     95          1           0        3.868249   -2.001760   -1.577518
     96          1           0        4.621244   -3.761613   -1.920137
     97          1           0        5.038164   -1.255707    0.253123
     98          1           0        5.373635   -2.250691    1.721594
     99          1           0        6.795693   -3.616444    0.423080
    100          1           0        6.715066   -2.711768   -1.137674
    101          1           0        7.372606   -0.622914    0.393104
    102          1           0        7.778692   -1.619988    1.834541
    103          1           0        8.922067   -1.795280   -1.114018
    104          1           0        8.958899   -4.045115   -0.237482
    105          1           0       10.571354   -3.355921   -0.464526
    106          1           0        9.843631   -3.486299    1.192318
    107          1           0        9.494295    0.100768    0.452132
    108          1           0       10.319244   -1.005996    1.425687
    109          1           0       11.796702   -1.860265   -0.247821
    110          1           0       11.267860   -0.832836   -1.470013
    111          1           0       12.052300    1.229017    0.058173
    112          1           0       12.414465    0.149790    1.258316
    113          1           0       13.415314    0.715737   -1.660073
    114          1           0       14.786099   -1.225878    0.405739
    115          1           0       13.856700   -1.740771   -1.143826
    116          1           0       15.422317   -0.616191   -1.217413
    117          1           0       13.708399    2.550966   -0.285473
    118          1           0       14.634978    1.588037    0.865282
    119          1           0       16.371653    1.415481   -0.850193
    120          1           0       15.072117    2.244507   -2.087190
    121          1           0       15.454326    4.486514   -0.465144
    122          1           0       16.262181    3.625855    0.587945
    123          1           0       18.136160    3.198191   -1.138165
    124          1           0       16.577580    5.113731   -2.904203
    125          1           0       18.248670    4.240365   -3.353494
    126          1           0       16.719886    3.129350   -3.113511
    127          1           0       18.314361    4.982129    0.377215
    128          1           0       18.958966    5.488266   -1.041841
    129          1           0       17.457846    6.073737   -0.746159
    130          1           0       -4.947489   -7.836413   -0.003720
    131          1           0       -6.355457   -6.839266    0.934583
    132          1           0       -4.664633   -7.053294    1.476278
    133          8           0       -8.038078    6.789681   -0.399014
    134          1           0       -9.550557    6.188658   -1.661373
 ---------------------------------------------------------------------

 SCF Done:  E(RCAM-B3LYP) =  -3043.40745237     A.U. after   16 cycles

 Excitation energies and oscillator strengths:

 Excited State   1:      Singlet-A      1.9879 eV  623.71 nm  f=0.1542  <S**2>=0.000
     243 -> 246        0.27885
     244 -> 245        0.62893
 This state for optimization and/or second-order correction.
 Total Energy, E(TD-HF/TD-KS) =  -3043.33439970
 Copying the excited state density for this state as the 1-particle RhoCI density.

 The electronic state is 1-A.
 Alpha  occ. eigenvalues --  -46.80139 -19.23402 -19.22155 -19.17657 -19.17637
 Alpha  occ. eigenvalues --  -19.17446 -19.17059 -19.16745 -14.38909 -14.36805
 Alpha  occ. eigenvalues --  -14.36604 -14.36204 -10.36370 -10.34479 -10.32041
 Alpha  occ. eigenvalues --  -10.31242 -10.29564 -10.28982 -10.27832 -10.27640
 Alpha  occ. eigenvalues --  -10.27207 -10.26466 -10.26418 -10.26388 -10.25962
 Alpha  occ. eigenvalues --  -10.25723 -10.25677 -10.25597 -10.25558 -10.25297
 Alpha  occ. eigenvalues --  -10.24697 -10.24527 -10.24320 -10.24297 -10.23957
 Alpha  occ. eigenvalues --  -10.23721 -10.23626 -10.23485 -10.23470 -10.23465
 Alpha  occ. eigenvalues --  -10.23337 -10.23220 -10.23133 -10.22947 -10.22829
 Alpha  occ. eigenvalues --  -10.22743 -10.22568 -10.22453 -10.22389 -10.22271
 Alpha  occ. eigenvalues --  -10.22255 -10.22190 -10.22135 -10.21978 -10.21822
 Alpha  occ. eigenvalues --  -10.21651 -10.21384 -10.21270 -10.21135 -10.20757
 Alpha  occ. eigenvalues --  -10.20301 -10.20070 -10.19561 -10.19533 -10.19299
 Alpha  occ. eigenvalues --  -10.19089  -3.09011  -1.83920  -1.83493  -1.83446
 Alpha  occ. eigenvalues --   -1.13080  -1.12740  -1.06848  -1.05402  -1.04313
 Alpha  occ. eigenvalues --   -1.04249  -1.02311  -1.00872  -0.98779  -0.97951
 Alpha  occ. eigenvalues --   -0.96926  -0.88543  -0.86799  -0.85872  -0.85702
 Alpha  occ. eigenvalues --   -0.85620  -0.85121  -0.84591  -0.84007  -0.83350
 Alpha  occ. eigenvalues --   -0.83210  -0.82893  -0.81579  -0.80609  -0.80009
 Alpha  occ. eigenvalues --   -0.78768  -0.78347  -0.77901  -0.77783  -0.76490
 Alpha  occ. eigenvalues --   -0.75472  -0.74933  -0.73541  -0.72873  -0.72183
 Alpha  occ. eigenvalues --   -0.71222  -0.70760  -0.70064  -0.69753  -0.69479
 Alpha  occ. eigenvalues --   -0.68920  -0.68657  -0.67209  -0.66750  -0.66081
 Alpha  occ. eigenvalues --   -0.65773  -0.64551  -0.64324  -0.62431  -0.61982
 Alpha  occ. eigenvalues --   -0.61872  -0.60792  -0.60587  -0.59683  -0.59030
 Alpha  occ. eigenvalues --   -0.58944  -0.58580  -0.58199  -0.57408  -0.56636
 Alpha  occ. eigenvalues --   -0.55901  -0.55615  -0.55248  -0.54889  -0.54305
 Alpha  occ. eigenvalues --   -0.53911  -0.53476  -0.52706  -0.52456  -0.52069
 Alpha  occ. eigenvalues --   -0.51806  -0.51661  -0.51302  -0.50746  -0.50331
 Alpha  occ. eigenvalues --   -0.50267  -0.49712  -0.49667  -0.49349  -0.49113
 Alpha  occ. eigenvalues --   -0.48814  -0.48629  -0.48420  -0.48326  -0.47740
 Alpha  occ. eigenvalues --   -0.47658  -0.47549  -0.47208  -0.46984  -0.46726
 Alpha  occ. eigenvalues --   -0.46548  -0.46392  -0.46270  -0.45933  -0.45601
 Alpha  occ. eigenvalues --   -0.45503  -0.45371  -0.45161  -0.44923  -0.44677
 Alpha  occ. eigenvalues --   -0.44338  -0.44286  -0.44026  -0.43893  -0.43522
 Alpha  occ. eigenvalues --   -0.43390  -0.43143  -0.42925  -0.42906  -0.42514
 Alpha  occ. eigenvalues --   -0.42340  -0.42200  -0.41952  -0.41575  -0.41291
 Alpha  occ. eigenvalues --   -0.41134  -0.40974  -0.40848  -0.40696  -0.40522
 Alpha  occ. eigenvalues --   -0.40298  -0.40201  -0.39971  -0.39920  -0.39663
 Alpha  occ. eigenvalues --   -0.39636  -0.39427  -0.39383  -0.39017  -0.38885
 Alpha  occ. eigenvalues --   -0.38750  -0.38510  -0.38402  -0.38342  -0.37987
 Alpha  occ. eigenvalues --   -0.37917  -0.37854  -0.37546  -0.37389  -0.37005
 Alpha  occ. eigenvalues --   -0.36883  -0.36774  -0.36576  -0.36534  -0.35847
 Alpha  occ. eigenvalues --   -0.35720  -0.35551  -0.35069  -0.34940  -0.34849
 Alpha  occ. eigenvalues --   -0.34811  -0.34327  -0.33637  -0.33368  -0.32950
 Alpha  occ. eigenvalues --   -0.32618  -0.32530  -0.32109  -0.31828  -0.31616
 Alpha  occ. eigenvalues --   -0.31381  -0.30374  -0.30279  -0.30202  -0.29775
 Alpha  occ. eigenvalues --   -0.28852  -0.28479  -0.28069  -0.27809  -0.27615
 Alpha  occ. eigenvalues --   -0.26795  -0.26727  -0.22647  -0.20841
 Alpha virt. eigenvalues --   -0.07945  -0.06446  -0.01874  -0.00839   0.00434
 Alpha virt. eigenvalues --    0.01656   0.02237   0.04072   0.04377   0.04691
 Alpha virt. eigenvalues --    0.04912   0.06008   0.07368   0.08488   0.09298

 Mulliken charges:
               1
     1  Mg   0.841681
     2  C    0.034446
     3  C   -0.185487
     4  C   -0.207739
     5  C   -0.205971
     6  N   -0.595287
     7  C    0.294614
     8  C   -0.089715
     9  C   -0.125039
    10  C    0.290331
    11  C   -0.298713
    12  C   -0.190864
    13  C   -0.264241
    14  C    0.608075
    15  O   -0.480983
    16  O   -0.468736
    17  N   -0.707040
    18  C    0.290271
    19  C    0.067157
    20  C   -0.003053
    21  C    0.306399
    22  C   -0.401182
    23  C    0.256426
    24  O   -0.424750
    25  N   -0.684552
    26  C    0.302349
    27  C   -0.064559
    28  C    0.097235
    29  C    0.294083
    30  C    0.247070
    31  C   -0.257748
    32  C   -0.313941
    33  N   -0.731821
    34  C    0.297502
    35  C    0.038331
    36  C    0.060496
    37  C    0.306902
    38  C   -0.384364
    39  C    0.360429
    40  O   -0.470944
    41  C   -0.300316
    42  C    0.588765
    43  O   -0.489837
    44  O   -0.429169
    45  C   -0.074802
    46  C   -0.025624
    47  C   -0.119568
    48  C    0.131196
    49  C   -0.362501
    50  C   -0.219984
    51  C   -0.171250
    52  C   -0.162969
    53  C   -0.059658
    54  C   -0.312820
    55  C   -0.143005
    56  C   -0.187015
    57  C   -0.151623
    58  C   -0.087271
    59  C   -0.301855
    60  C   -0.151732
    61  C   -0.182830
    62  C   -0.155913
    63  C   -0.039977
    64  C   -0.283177
    65  C   -0.334738
    66  H    0.095457
    67  H    0.147598
    68  H    0.069367
    69  H    0.107146
    70  H    0.110096
    71  H    0.126514
    72  H    0.094478
    73  H    0.112434
    74  H    0.112751
    75  H    0.117188
    76  H    0.117033
    77  H    0.129338
    78  H    0.146288
    79  H    0.146759
    80  H    0.133073
    81  H    0.040676
    82  H    0.098020
    83  H    0.123583
    84  H    0.130068
    85  H    0.107183
    86  H    0.106594
    87  H    0.147509
    88  H    0.116566
    89  H    0.115300
    90  H    0.150610
    91  H    0.124958
    92  H    0.127851
    93  H    0.081999
    94  H    0.148512
    95  H    0.106942
    96  H    0.104413
    97  H    0.101940
    98  H    0.112103
    99  H    0.102088
   100  H    0.076997
   101  H    0.077290
   102  H    0.073041
   103  H    0.089573
   104  H    0.086399
   105  H    0.094630
   106  H    0.114695
   107  H    0.078543
   108  H    0.098011
   109  H    0.097428
   110  H    0.067650
   111  H    0.093512
   112  H    0.079315
   113  H    0.092352
   114  H    0.098161
   115  H    0.064705
   116  H    0.083132
   117  H    0.108484
   118  H    0.106708
   119  H    0.073299
   120  H    0.085773
   121  H    0.080431
   122  H    0.074932
   123  H    0.103661
   124  H    0.074877
   125  H    0.111851
   126  H    0.080141
   127  H    0.097559
   128  H    0.100622
   129  H    0.080934
   130  H    0.134973
   131  H    0.127839
   132  H    0.114633
   133  O   -0.433764
   134  H    0.089783
 Sum of Mulliken charges =   0.00000

 Dipole moment (field-independent basis, Debye):
    X=              3.3772    Y=             -5.1143    Z=             -1.3476  Tot=              6.2752
 Quadrupole moment (field-independent basis, Debye-Ang):
   XX=           -374.6255   YY=           -437.8962   ZZ=           -391.2495
   XY=              7.0811   XZ=             37.1385   YZ=            -33.6811

 Normal termination of Gaussian 09 at Tue Oct  8 19:50:13 2019.
