 Gaussian 09, Revision D.01,
 Gaussian 09:  ES64L-G09RevD.01 24-Apr-2013

 ----------------------------------------------------------------------
 # td=(NStates=1) iop(3/107=0140000000,3/108=0140000000) iop(3/107=0140
 000000,3/108=0140000000) CAM-B3LYP/6-31G(d,p)
 ----------------------------------------------------------------------

 --
 TD
 --
 Symbolic Z-matrix:
 Charge =  0 Multiplicity = 1

                         Standard orientation:
 ---------------------------------------------------------------------
 Center     Atomic      Atomic             Coordinates (Angstroms)
 Number     Number       Type             X           Y           Z
 ---------------------------------------------------------------------
      1         12           0       -5.562726    1.294163    0.064735
      2          6           0       -5.006124   -2.096693   -0.410734
      3          6           0       -3.438769    1.164476    2.739929
      4          6           0       -6.267577    4.567761    0.684037
      5          6           0       -8.051463    1.092334   -2.330939
      6          7           0       -4.411971   -0.293121    1.063208
      7          6           0       -4.234843   -1.628111    0.668422
      8          6           0       -3.223216   -2.384289    1.424374
      9          6           0       -2.991343   -1.349610    2.636310
     10          6           0       -3.652633   -0.146643    2.150609
     11          6           0       -3.676293   -1.921067    4.070613
     12          6           0       -1.946831   -2.598091    0.576033
     13          6           0       -0.991498   -3.389063    1.442530
     14          6           0        0.293004   -3.836129    0.656742
     15          8           0        0.446013   -3.610031   -0.514265
     16          8           0        1.149375   -4.702932    1.392965
     17          7           0       -4.912168    2.621515    1.443026
     18          6           0       -4.086092    2.348432    2.574390
     19          6           0       -3.819031    3.553247    3.276115
     20          6           0       -4.538305    4.549843    2.601795
     21          6           0       -5.297085    3.966047    1.573039
     22          6           0       -2.895627    3.714715    4.441233
     23          6           0       -4.620631    5.934660    2.964405
     24          8           0       -4.122695    6.479130    3.901911
     25          7           0       -6.902466    2.638000   -0.688673
     26          6           0       -7.018954    3.998866   -0.341726
     27          6           0       -7.973579    4.675986   -1.179494
     28          6           0       -8.399873    3.649649   -2.057256
     29          6           0       -7.726461    2.468503   -1.816081
     30          6           0       -8.288225    6.063695   -1.142866
     31          6           0       -9.451475    3.759119   -3.127926
     32          6           0       -8.837197    4.004824   -4.538577
     33          7           0       -6.248883   -0.138310   -1.259369
     34          6           0       -7.340541   -0.014200   -2.205383
     35          6           0       -7.658174   -1.386073   -2.766103
     36          6           0       -6.768801   -2.176316   -2.081240
     37          6           0       -5.960310   -1.383270   -1.178846
     38          6           0       -8.603648   -1.626561   -3.904503
     39          6           0       -6.317190   -3.509476   -2.073513
     40          8           0       -6.727987   -4.445899   -2.701392
     41          6           0       -5.096758   -3.534360   -0.992405
     42          6           0       -5.186623   -4.611597    0.117579
     43          8           0       -5.599131   -4.430721    1.257112
     44          8           0       -4.890414   -5.896635   -0.342606
     45          6           0       -5.248680   -6.938130    0.482680
     46          6           0        2.359225   -4.978155    0.656127
     47          6           0        3.483426   -4.089511    1.003393
     48          6           0        4.063094   -3.279935    0.150086
     49          6           0        3.710171   -2.972307   -1.255878
     50          6           0        5.129947   -2.382174    0.632676
     51          6           0        6.557978   -2.711780    0.051217
     52          6           0        7.650877   -1.797344    0.613293
     53          6           0        8.999029   -2.063934   -0.033325
     54          6           0        9.522314   -3.522166    0.206023
     55          6           0       10.081452   -1.068369    0.598746
     56          6           0       11.320236   -0.908720   -0.287013
     57          6           0       12.292026    0.241225    0.128160
     58          6           0       13.681482    0.388398   -0.652898
     59          6           0       14.642304   -0.811203   -0.536558
     60          6           0       14.281933    1.775271   -0.215008
     61          6           0       15.662974    2.071495   -0.966187
     62          6           0       16.097681    3.579262   -0.573506
     63          6           0       17.265566    4.037557   -1.365077
     64          6           0       17.091276    4.196445   -2.900213
     65          6           0       17.992052    5.382094   -0.760168
     66          1           0       -2.870120    1.064039    3.529319
     67          1           0       -6.249969    5.678616    0.865336
     68          1           0       -8.786998    1.017047   -3.009806
     69          1           0       -3.751885   -3.260990    1.853703
     70          1           0       -1.856129   -1.076085    2.965434
     71          1           0       -3.095129   -2.641167    4.554152
     72          1           0       -3.857060   -0.995364    4.750684
     73          1           0       -4.593904   -2.303028    3.691887
     74          1           0       -2.160169   -3.066711   -0.257698
     75          1           0       -1.488130   -1.736453    0.323382
     76          1           0       -0.812842   -2.903225    2.479417
     77          1           0       -1.619424   -4.340623    1.594921
     78          1           0       -1.914986    3.512740    3.984366
     79          1           0       -2.789728    4.689348    4.886789
     80          1           0       -3.093313    2.747629    5.146104
     81          1           0       -5.202153    6.420716    2.224428
     82          1           0      -10.166588    2.954963   -3.033484
     83          1           0       -9.971120    4.725172   -2.897446
     84          1           0       -9.735452    4.309699   -5.207857
     85          1           0       -8.001517    4.999054   -4.452395
     86          1           0       -8.263069    3.254057   -4.914032
     87          1           0       -8.412122   -0.897041   -4.692496
     88          1           0       -8.475044   -2.739958   -4.341138
     89          1           0       -9.642413   -1.492723   -3.655421
     90          1           0       -4.220019   -3.846623   -1.657147
     91          1           0        2.577355   -6.045477    1.006546
     92          1           0        2.191940   -5.200397   -0.347523
     93          1           0        3.955410   -4.039373    2.062100
     94          1           0        2.694000   -3.367905   -1.747590
     95          1           0        3.447845   -1.947130   -1.547456
     96          1           0        4.603668   -3.463366   -2.066747
     97          1           0        4.753830   -1.200612    0.502580
     98          1           0        5.062675   -2.343110    1.805881
     99          1           0        6.881886   -3.634381    0.455757
    100          1           0        6.516201   -2.522605   -0.874148
    101          1           0        7.338178   -0.698566    0.399705
    102          1           0        7.689335   -2.192940    1.782117
    103          1           0        9.123974   -1.665003   -1.192027
    104          1           0        8.866145   -4.209801   -0.168808
    105          1           0       10.313441   -3.764715   -0.423759
    106          1           0        9.715913   -3.780311    1.290575
    107          1           0        9.344604   -0.202233    0.737461
    108          1           0       10.279443   -1.291194    1.603235
    109          1           0       11.812275   -1.917486   -0.225277
    110          1           0       11.027851   -0.721898   -1.272247
    111          1           0       11.736712    1.373193    0.060780
    112          1           0       12.506916   -0.016937    1.046687
    113          1           0       13.252383    0.494792   -1.621180
    114          1           0       14.485544   -0.963694    0.584127
    115          1           0       14.280615   -1.739252   -1.162298
    116          1           0       15.744963   -0.451819   -0.920393
    117          1           0       13.464473    2.577415   -0.265438
    118          1           0       14.426219    1.795977    1.130558
    119          1           0       16.521813    1.326210   -0.807935
    120          1           0       15.211444    2.202906   -2.066366
    121          1           0       15.323006    4.267664   -0.667588
    122          1           0       16.341152    3.568329    0.542180
    123          1           0       18.237704    3.337158   -1.265245
    124          1           0       16.355499    4.820865   -3.031989
    125          1           0       18.029829    4.484572   -3.341042
    126          1           0       16.975870    3.248901   -3.521582
    127          1           0       18.144394    5.289132    0.196596
    128          1           0       18.885517    5.627628   -1.328362
    129          1           0       17.358473    6.267768   -0.931160
    130          1           0       -5.082087   -8.006551   -0.003810
    131          1           0       -6.355629   -7.071313    0.567911
    132          1           0       -4.844832   -6.881310    1.463927
    133          8           0       -7.844547    6.905548   -0.317832
    134          1           0       -8.755614    6.457787   -1.823862
 ---------------------------------------------------------------------

 SCF Done:  E(RCAM-B3LYP) =  -3043.40178070     A.U. after   16 cycles

 Excitation energies and oscillator strengths:

 Excited State   1:      Singlet-A      1.9739 eV  628.12 nm  f=0.1533  <S**2>=0.000
     243 -> 246        0.24546
     244 -> 245        0.64801
 This state for optimization and/or second-order correction.
 Total Energy, E(TD-HF/TD-KS) =  -3043.32924203
 Copying the excited state density for this state as the 1-particle RhoCI density.

 The electronic state is 1-A.
 Alpha  occ. eigenvalues --  -46.81767 -19.23168 -19.21959 -19.18723 -19.18639
 Alpha  occ. eigenvalues --  -19.18265 -19.16316 -19.15423 -14.39401 -14.37535
 Alpha  occ. eigenvalues --  -14.36765 -14.35912 -10.36724 -10.36002 -10.32123
 Alpha  occ. eigenvalues --  -10.28404 -10.28372 -10.27933 -10.27590 -10.27566
 Alpha  occ. eigenvalues --  -10.27359 -10.27022 -10.26775 -10.26742 -10.26732
 Alpha  occ. eigenvalues --  -10.26548 -10.26139 -10.26051 -10.25967 -10.25929
 Alpha  occ. eigenvalues --  -10.25605 -10.25214 -10.24870 -10.24609 -10.24461
 Alpha  occ. eigenvalues --  -10.24135 -10.23861 -10.23831 -10.23733 -10.23666
 Alpha  occ. eigenvalues --  -10.23552 -10.23437 -10.23395 -10.23379 -10.23239
 Alpha  occ. eigenvalues --  -10.23161 -10.23134 -10.22879 -10.22753 -10.22746
 Alpha  occ. eigenvalues --  -10.22644 -10.22452 -10.22399 -10.22109 -10.21790
 Alpha  occ. eigenvalues --  -10.21687 -10.21455 -10.21449 -10.20912 -10.20807
 Alpha  occ. eigenvalues --  -10.20695 -10.20193 -10.19795 -10.19654 -10.19018
 Alpha  occ. eigenvalues --  -10.18885  -3.10239  -1.85180  -1.84708  -1.84642
 Alpha  occ. eigenvalues --   -1.13871  -1.12493  -1.08962  -1.07263  -1.05745
 Alpha  occ. eigenvalues --   -1.05122  -1.03571  -1.01566  -1.00616  -0.98099
 Alpha  occ. eigenvalues --   -0.97243  -0.88521  -0.86892  -0.86527  -0.85780
 Alpha  occ. eigenvalues --   -0.84567  -0.84545  -0.84003  -0.83462  -0.83305
 Alpha  occ. eigenvalues --   -0.82544  -0.82337  -0.81224  -0.80047  -0.79597
 Alpha  occ. eigenvalues --   -0.79304  -0.77561  -0.77406  -0.77287  -0.76081
 Alpha  occ. eigenvalues --   -0.75805  -0.74832  -0.74414  -0.72661  -0.72517
 Alpha  occ. eigenvalues --   -0.71599  -0.71091  -0.70611  -0.70351  -0.69683
 Alpha  occ. eigenvalues --   -0.69345  -0.69214  -0.68341  -0.67225  -0.66786
 Alpha  occ. eigenvalues --   -0.66115  -0.64877  -0.64710  -0.62935  -0.62325
 Alpha  occ. eigenvalues --   -0.62103  -0.61470  -0.60197  -0.59593  -0.59111
 Alpha  occ. eigenvalues --   -0.58879  -0.57824  -0.57610  -0.57371  -0.56958
 Alpha  occ. eigenvalues --   -0.56714  -0.55900  -0.55443  -0.55393  -0.54980
 Alpha  occ. eigenvalues --   -0.54064  -0.53727  -0.53386  -0.52682  -0.52481
 Alpha  occ. eigenvalues --   -0.52245  -0.52133  -0.51683  -0.51243  -0.50860
 Alpha  occ. eigenvalues --   -0.50299  -0.49994  -0.49563  -0.49454  -0.49337
 Alpha  occ. eigenvalues --   -0.49156  -0.48450  -0.48355  -0.48018  -0.47803
 Alpha  occ. eigenvalues --   -0.47514  -0.47140  -0.47088  -0.46869  -0.46741
 Alpha  occ. eigenvalues --   -0.46582  -0.46448  -0.46180  -0.46088  -0.46001
 Alpha  occ. eigenvalues --   -0.45840  -0.45482  -0.45425  -0.44988  -0.44837
 Alpha  occ. eigenvalues --   -0.44790  -0.44625  -0.44485  -0.44296  -0.44158
 Alpha  occ. eigenvalues --   -0.44081  -0.43689  -0.43275  -0.42993  -0.42890
 Alpha  occ. eigenvalues --   -0.42664  -0.42615  -0.42187  -0.42090  -0.41942
 Alpha  occ. eigenvalues --   -0.41685  -0.41479  -0.41347  -0.41001  -0.40941
 Alpha  occ. eigenvalues --   -0.40737  -0.40630  -0.40367  -0.40148  -0.39945
 Alpha  occ. eigenvalues --   -0.39758  -0.39605  -0.39518  -0.39320  -0.39157
 Alpha  occ. eigenvalues --   -0.39036  -0.38853  -0.38722  -0.37946  -0.37767
 Alpha  occ. eigenvalues --   -0.37662  -0.37623  -0.37457  -0.37146  -0.37097
 Alpha  occ. eigenvalues --   -0.36974  -0.36759  -0.36729  -0.36202  -0.35683
 Alpha  occ. eigenvalues --   -0.35597  -0.35333  -0.35201  -0.34941  -0.34882
 Alpha  occ. eigenvalues --   -0.34389  -0.34113  -0.33719  -0.33420  -0.33384
 Alpha  occ. eigenvalues --   -0.32845  -0.32691  -0.32683  -0.31997  -0.31589
 Alpha  occ. eigenvalues --   -0.31519  -0.31441  -0.30994  -0.30366  -0.29709
 Alpha  occ. eigenvalues --   -0.29372  -0.28767  -0.27888  -0.27544  -0.27173
 Alpha  occ. eigenvalues --   -0.26781  -0.26731  -0.23966  -0.20972
 Alpha virt. eigenvalues --   -0.08291  -0.07549  -0.02278  -0.00377   0.00262
 Alpha virt. eigenvalues --    0.01257   0.02367   0.02903   0.03503   0.03754
 Alpha virt. eigenvalues --    0.04903   0.05837   0.07781   0.08173   0.09331

 Mulliken charges:
               1
     1  Mg   0.830014
     2  C    0.070052
     3  C   -0.176813
     4  C   -0.175569
     5  C   -0.132833
     6  N   -0.606968
     7  C    0.285653
     8  C   -0.177194
     9  C   -0.197182
    10  C    0.373742
    11  C   -0.318170
    12  C   -0.132719
    13  C   -0.275545
    14  C    0.598054
    15  O   -0.437950
    16  O   -0.482500
    17  N   -0.714470
    18  C    0.310062
    19  C    0.059928
    20  C   -0.036634
    21  C    0.296118
    22  C   -0.375234
    23  C    0.269427
    24  O   -0.424527
    25  N   -0.683269
    26  C    0.279735
    27  C    0.024661
    28  C   -0.010769
    29  C    0.262046
    30  C    0.263958
    31  C   -0.246532
    32  C   -0.288756
    33  N   -0.722882
    34  C    0.226933
    35  C    0.077867
    36  C    0.026451
    37  C    0.341526
    38  C   -0.396062
    39  C    0.347094
    40  O   -0.435740
    41  C   -0.337546
    42  C    0.612558
    43  O   -0.464598
    44  O   -0.437283
    45  C   -0.087521
    46  C   -0.000112
    47  C   -0.139242
    48  C    0.202146
    49  C   -0.369405
    50  C   -0.249254
    51  C   -0.135554
    52  C   -0.180585
    53  C   -0.049268
    54  C   -0.324821
    55  C   -0.164958
    56  C   -0.190973
    57  C   -0.164301
    58  C   -0.059201
    59  C   -0.293611
    60  C   -0.143459
    61  C   -0.177090
    62  C   -0.164060
    63  C   -0.055443
    64  C   -0.306621
    65  C   -0.322784
    66  H    0.047743
    67  H    0.138594
    68  H    0.073107
    69  H    0.147005
    70  H    0.097917
    71  H    0.130150
    72  H    0.108672
    73  H    0.141627
    74  H    0.128575
    75  H    0.129030
    76  H    0.126097
    77  H    0.133519
    78  H    0.131343
    79  H    0.163703
    80  H    0.102493
    81  H    0.060846
    82  H    0.115679
    83  H    0.106997
    84  H    0.104861
    85  H    0.072733
    86  H    0.127923
    87  H    0.139754
    88  H    0.144186
    89  H    0.144925
    90  H    0.153898
    91  H    0.096366
    92  H    0.138201
    93  H    0.081820
    94  H    0.118449
    95  H    0.127892
    96  H    0.076750
    97  H    0.068492
    98  H    0.075983
    99  H    0.113290
   100  H    0.107654
   101  H    0.086348
   102  H    0.066859
   103  H    0.060743
   104  H    0.107968
   105  H    0.109732
   106  H    0.100037
   107  H    0.068816
   108  H    0.092436
   109  H    0.093509
   110  H    0.094679
   111  H    0.054321
   112  H    0.101214
   113  H    0.090536
   114  H    0.104206
   115  H    0.097466
   116  H    0.088807
   117  H    0.095652
   118  H    0.016381
   119  H    0.106630
   120  H    0.092720
   121  H    0.099196
   122  H    0.086911
   123  H    0.056237
   124  H    0.112656
   125  H    0.102728
   126  H    0.090300
   127  H    0.113122
   128  H    0.099810
   129  H    0.088238
   130  H    0.107999
   131  H    0.116974
   132  H    0.127511
   133  O   -0.456091
   134  H    0.057061
 Sum of Mulliken charges =   0.00000

 Dipole moment (field-independent basis, Debye):
    X=              1.5449    Y=             -6.1132    Z=             -2.7964  Tot=              6.8977
 Quadrupole moment (field-independent basis, Debye-Ang):
   XX=           -384.8780   YY=           -452.2278   ZZ=           -392.2222
   XY=             22.4444   XZ=             25.6536   YZ=            -34.6623

 Normal termination of Gaussian 09 at Thu Oct  3 22:11:24 2019.
