 Gaussian 09, Revision D.01,
 Gaussian 09:  ES64L-G09RevD.01 24-Apr-2013

 ----------------------------------------------------------------------
 # td=(NStates=1) iop(3/107=0140000000,3/108=0140000000) iop(3/107=0140
 000000,3/108=0140000000) CAM-B3LYP/6-31G(d,p)
 ----------------------------------------------------------------------

 --
 TD
 --
 Symbolic Z-matrix:
 Charge =  0 Multiplicity = 1

                         Standard orientation:
 ---------------------------------------------------------------------
 Center     Atomic      Atomic             Coordinates (Angstroms)
 Number     Number       Type             X           Y           Z
 ---------------------------------------------------------------------
      1         12           0       -5.798574    1.249632    0.224643
      2          6           0       -4.972669   -2.151534   -0.451070
      3          6           0       -3.442807    1.253721    2.646464
      4          6           0       -6.316974    4.583668    0.738279
      5          6           0       -7.959361    1.198590   -2.425034
      6          7           0       -4.443445   -0.317768    1.078993
      7          6           0       -4.259344   -1.606440    0.645520
      8          6           0       -3.375289   -2.336964    1.498263
      9          6           0       -2.941362   -1.354980    2.635980
     10          6           0       -3.570850   -0.002445    2.131915
     11          6           0       -3.466371   -1.695641    3.938721
     12          6           0       -2.109336   -2.767253    0.673801
     13          6           0       -1.045301   -3.537584    1.536566
     14          6           0        0.243815   -3.870264    0.729546
     15          8           0        0.439746   -3.375152   -0.407404
     16          8           0        1.087826   -4.738327    1.429110
     17          7           0       -4.973426    2.633021    1.444608
     18          6           0       -4.046682    2.417150    2.467277
     19          6           0       -3.828407    3.635231    3.234305
     20          6           0       -4.609274    4.633330    2.537783
     21          6           0       -5.371484    3.929875    1.564152
     22          6           0       -2.793685    3.755877    4.267056
     23          6           0       -4.679149    6.053564    2.852094
     24          8           0       -3.951660    6.670684    3.658411
     25          7           0       -6.946760    2.570916   -0.640141
     26          6           0       -6.989060    3.908881   -0.309314
     27          6           0       -7.888088    4.538962   -1.280736
     28          6           0       -8.427616    3.601904   -2.081791
     29          6           0       -7.755521    2.407438   -1.733687
     30          6           0       -8.318254    6.024292   -1.192075
     31          6           0       -9.387757    3.687846   -3.133530
     32          6           0       -8.747020    3.910059   -4.472163
     33          7           0       -6.337926   -0.118890   -1.262113
     34          6           0       -7.298629   -0.071495   -2.119980
     35          6           0       -7.641766   -1.353580   -2.699963
     36          6           0       -6.567677   -2.192015   -2.186236
     37          6           0       -5.864096   -1.351114   -1.132292
     38          6           0       -8.521612   -1.707727   -3.751423
     39          6           0       -6.081208   -3.557989   -2.118242
     40          8           0       -6.402872   -4.583679   -2.717046
     41          6           0       -5.007032   -3.641736   -1.003621
     42          6           0       -5.334477   -4.660890    0.033008
     43          8           0       -5.803265   -4.448039    1.123729
     44          8           0       -4.948604   -5.865550   -0.413323
     45          6           0       -5.318697   -6.967022    0.456230
     46          6           0        2.313020   -5.097446    0.772786
     47          6           0        3.351335   -4.006969    1.052289
     48          6           0        4.021202   -3.192297    0.247820
     49          6           0        3.641543   -3.058885   -1.253376
     50          6           0        5.171698   -2.372845    0.770236
     51          6           0        6.496590   -2.620687    0.142918
     52          6           0        7.677852   -1.781138    0.603891
     53          6           0        9.104139   -1.935469   -0.060235
     54          6           0        9.724789   -3.330791    0.197376
     55          6           0       10.038040   -0.909626    0.425446
     56          6           0       11.313738   -0.897673   -0.231325
     57          6           0       12.304265    0.323073    0.141002
     58          6           0       13.639969    0.402765   -0.640226
     59          6           0       14.584396   -0.815200   -0.384656
     60          6           0       14.346792    1.735801   -0.141374
     61          6           0       15.497972    2.075269   -1.103762
     62          6           0       16.179130    3.407923   -0.549132
     63          6           0       17.397120    3.889339   -1.394667
     64          6           0       17.112367    4.191160   -2.901255
     65          6           0       17.950860    5.146054   -0.826916
     66          1           0       -2.758670    1.338845    3.586325
     67          1           0       -6.426636    5.740814    0.674976
     68          1           0       -8.612179    1.165742   -3.287416
     69          1           0       -3.837467   -3.207793    1.931485
     70          1           0       -1.889104   -1.349517    2.730762
     71          1           0       -3.028604   -2.559221    4.352522
     72          1           0       -3.477693   -1.015855    4.615152
     73          1           0       -4.473131   -1.984867    3.895369
     74          1           0       -2.163215   -3.372890   -0.285115
     75          1           0       -1.382774   -2.022634    0.069036
     76          1           0       -0.940355   -3.049500    2.540956
     77          1           0       -1.597390   -4.562576    1.617748
     78          1           0       -1.799126    3.383900    4.060685
     79          1           0       -2.688828    4.942751    4.499278
     80          1           0       -3.105170    3.267377    5.255795
     81          1           0       -5.450946    6.687378    2.157444
     82          1           0      -10.306697    3.019527   -2.934438
     83          1           0       -9.716443    4.964601   -2.741488
     84          1           0       -9.485068    3.606875   -5.327465
     85          1           0       -8.195683    4.837705   -4.485277
     86          1           0       -7.738152    3.296881   -4.510904
     87          1           0       -8.410615   -0.987319   -4.639605
     88          1           0       -8.634397   -2.796739   -3.859197
     89          1           0       -9.579226   -1.225354   -3.471682
     90          1           0       -4.217310   -4.035887   -1.562159
     91          1           0        2.701034   -5.935687    1.459875
     92          1           0        2.122619   -5.225341   -0.332957
     93          1           0        3.587556   -3.988187    2.165177
     94          1           0        2.662853   -3.222956   -1.475545
     95          1           0        3.927169   -2.018870   -1.621006
     96          1           0        4.251210   -3.684704   -1.814886
     97          1           0        4.704194   -1.236152    0.783881
     98          1           0        5.165262   -2.627443    1.897558
     99          1           0        6.314347   -3.811330    0.263375
    100          1           0        6.279351   -2.662840   -0.965590
    101          1           0        7.209224   -0.613536    0.514069
    102          1           0        7.743903   -1.937955    1.739712
    103          1           0        8.865523   -1.804537   -1.160929
    104          1           0        8.723749   -4.030188    0.301495
    105          1           0       10.529496   -3.604520   -0.574325
    106          1           0       10.102663   -3.281288    1.274816
    107          1           0        9.358570   -0.001033    0.213520
    108          1           0       10.234851   -1.072797    1.442217
    109          1           0       11.959827   -1.878265   -0.214001
    110          1           0       11.102757   -0.740134   -1.260609
    111          1           0       11.709710    1.419373    0.104798
    112          1           0       12.423831    0.324526    1.283375
    113          1           0       13.243805    0.813821   -1.576199
    114          1           0       14.718108   -0.735917    0.639890
    115          1           0       14.018965   -1.758330   -0.796585
    116          1           0       15.425597   -0.781926   -1.060789
    117          1           0       13.699604    2.603705   -0.267974
    118          1           0       14.654943    1.637440    0.777407
    119          1           0       16.287939    1.221749   -1.289247
    120          1           0       15.049250    2.231658   -2.210468
    121          1           0       15.361083    4.140122   -0.569871
    122          1           0       16.420152    3.197427    0.475337
    123          1           0       18.142987    3.057466   -1.122036
    124          1           0       16.155011    4.958626   -2.850092
    125          1           0       17.953420    4.520437   -3.485789
    126          1           0       16.706982    3.267131   -3.453942
    127          1           0       18.225346    5.165477    0.249793
    128          1           0       18.923771    5.473452   -1.297670
    129          1           0       17.304550    5.978700   -1.125527
    130          1           0       -4.967477   -7.947541   -0.041109
    131          1           0       -6.334684   -6.868159    0.935915
    132          1           0       -4.453648   -6.845053    1.196244
    133          8           0       -7.871355    6.879517   -0.352011
    134          1           0       -9.247932    6.342735   -1.826804
 ---------------------------------------------------------------------

 SCF Done:  E(RCAM-B3LYP) =  -3043.44430084     A.U. after   16 cycles

 Excitation energies and oscillator strengths:

 Excited State   1:      Singlet-A      1.9495 eV  635.97 nm  f=0.2208  <S**2>=0.000
     243 -> 246        0.24794
     244 -> 245        0.65543
 This state for optimization and/or second-order correction.
 Total Energy, E(TD-HF/TD-KS) =  -3043.37265672
 Copying the excited state density for this state as the 1-particle RhoCI density.

 The electronic state is 1-A.
 Alpha  occ. eigenvalues --  -46.81623 -19.23289 -19.23019 -19.18861 -19.18657
 Alpha  occ. eigenvalues --  -19.17477 -19.16734 -19.16481 -14.39257 -14.36895
 Alpha  occ. eigenvalues --  -14.36858 -14.36597 -10.36891 -10.35172 -10.32835
 Alpha  occ. eigenvalues --  -10.31049 -10.30670 -10.29083 -10.28979 -10.27752
 Alpha  occ. eigenvalues --  -10.27447 -10.26608 -10.26568 -10.26229 -10.26202
 Alpha  occ. eigenvalues --  -10.25976 -10.25901 -10.25670 -10.25335 -10.25300
 Alpha  occ. eigenvalues --  -10.25002 -10.24840 -10.24681 -10.24430 -10.24128
 Alpha  occ. eigenvalues --  -10.24089 -10.24038 -10.24022 -10.23974 -10.23958
 Alpha  occ. eigenvalues --  -10.23954 -10.23841 -10.23704 -10.23154 -10.23044
 Alpha  occ. eigenvalues --  -10.22993 -10.22976 -10.22913 -10.22867 -10.22613
 Alpha  occ. eigenvalues --  -10.22331 -10.22261 -10.22140 -10.22089 -10.22071
 Alpha  occ. eigenvalues --  -10.22048 -10.21738 -10.21570 -10.21244 -10.20765
 Alpha  occ. eigenvalues --  -10.20647 -10.19954 -10.19773 -10.19697 -10.19285
 Alpha  occ. eigenvalues --  -10.19258  -3.10254  -1.85179  -1.84730  -1.84664
 Alpha  occ. eigenvalues --   -1.14340  -1.12124  -1.05951  -1.05548  -1.04637
 Alpha  occ. eigenvalues --   -1.04635  -1.04426  -1.02247  -1.00164  -0.99525
 Alpha  occ. eigenvalues --   -0.98617  -0.88419  -0.87028  -0.86432  -0.86038
 Alpha  occ. eigenvalues --   -0.85440  -0.85259  -0.84264  -0.84213  -0.83286
 Alpha  occ. eigenvalues --   -0.82614  -0.82603  -0.81918  -0.80778  -0.80106
 Alpha  occ. eigenvalues --   -0.79020  -0.78282  -0.77665  -0.77419  -0.76411
 Alpha  occ. eigenvalues --   -0.75280  -0.75106  -0.74547  -0.73136  -0.72280
 Alpha  occ. eigenvalues --   -0.71614  -0.70655  -0.70004  -0.69741  -0.69293
 Alpha  occ. eigenvalues --   -0.69148  -0.68977  -0.67349  -0.66704  -0.65940
 Alpha  occ. eigenvalues --   -0.65567  -0.64825  -0.64446  -0.63131  -0.61624
 Alpha  occ. eigenvalues --   -0.61234  -0.60881  -0.60127  -0.59178  -0.58685
 Alpha  occ. eigenvalues --   -0.58370  -0.58269  -0.57554  -0.57227  -0.57195
 Alpha  occ. eigenvalues --   -0.56291  -0.56031  -0.55818  -0.55619  -0.54492
 Alpha  occ. eigenvalues --   -0.54133  -0.53822  -0.52975  -0.52916  -0.52346
 Alpha  occ. eigenvalues --   -0.51788  -0.51535  -0.50911  -0.50766  -0.50594
 Alpha  occ. eigenvalues --   -0.50047  -0.49914  -0.49599  -0.49476  -0.49250
 Alpha  occ. eigenvalues --   -0.48994  -0.48552  -0.48315  -0.48089  -0.47743
 Alpha  occ. eigenvalues --   -0.47519  -0.47481  -0.47387  -0.47059  -0.46630
 Alpha  occ. eigenvalues --   -0.46497  -0.46467  -0.46348  -0.45989  -0.45851
 Alpha  occ. eigenvalues --   -0.45690  -0.45508  -0.45323  -0.45153  -0.44641
 Alpha  occ. eigenvalues --   -0.44582  -0.44320  -0.44235  -0.43858  -0.43816
 Alpha  occ. eigenvalues --   -0.43611  -0.43181  -0.43126  -0.42957  -0.42848
 Alpha  occ. eigenvalues --   -0.42421  -0.42293  -0.42252  -0.41766  -0.41595
 Alpha  occ. eigenvalues --   -0.41509  -0.41317  -0.40959  -0.40735  -0.40666
 Alpha  occ. eigenvalues --   -0.40461  -0.40441  -0.40375  -0.40202  -0.39998
 Alpha  occ. eigenvalues --   -0.39899  -0.39825  -0.39742  -0.39627  -0.39492
 Alpha  occ. eigenvalues --   -0.39082  -0.38939  -0.38829  -0.38393  -0.38234
 Alpha  occ. eigenvalues --   -0.37998  -0.37649  -0.37606  -0.37129  -0.37090
 Alpha  occ. eigenvalues --   -0.36550  -0.36299  -0.35795  -0.35567  -0.35491
 Alpha  occ. eigenvalues --   -0.35045  -0.34971  -0.34346  -0.34161  -0.34022
 Alpha  occ. eigenvalues --   -0.33865  -0.33576  -0.33211  -0.33130  -0.33054
 Alpha  occ. eigenvalues --   -0.32719  -0.32616  -0.32499  -0.31752  -0.31571
 Alpha  occ. eigenvalues --   -0.31510  -0.31285  -0.31163  -0.30384  -0.29638
 Alpha  occ. eigenvalues --   -0.29278  -0.28222  -0.27724  -0.27498  -0.27374
 Alpha  occ. eigenvalues --   -0.27231  -0.27010  -0.22929  -0.21340
 Alpha virt. eigenvalues --   -0.08835  -0.06670  -0.02230  -0.01465   0.00054
 Alpha virt. eigenvalues --    0.01484   0.02545   0.03194   0.04212   0.04570
 Alpha virt. eigenvalues --    0.05029   0.05600   0.06045   0.08330   0.08417

 Mulliken charges:
               1
     1  Mg   0.846710
     2  C    0.057546
     3  C   -0.209109
     4  C   -0.183302
     5  C   -0.186214
     6  N   -0.634641
     7  C    0.351408
     8  C   -0.177025
     9  C   -0.127396
    10  C    0.311846
    11  C   -0.312478
    12  C   -0.214269
    13  C   -0.259679
    14  C    0.606856
    15  O   -0.465243
    16  O   -0.457666
    17  N   -0.729723
    18  C    0.334665
    19  C    0.071903
    20  C   -0.015974
    21  C    0.327019
    22  C   -0.420749
    23  C    0.234944
    24  O   -0.433619
    25  N   -0.748860
    26  C    0.314358
    27  C   -0.062365
    28  C    0.081640
    29  C    0.327537
    30  C    0.245398
    31  C   -0.238853
    32  C   -0.297502
    33  N   -0.721075
    34  C    0.296637
    35  C    0.067329
    36  C   -0.027660
    37  C    0.326364
    38  C   -0.398224
    39  C    0.338713
    40  O   -0.474867
    41  C   -0.279005
    42  C    0.639558
    43  O   -0.481913
    44  O   -0.442625
    45  C   -0.093630
    46  C   -0.003693
    47  C   -0.133707
    48  C    0.123578
    49  C   -0.379926
    50  C   -0.209043
    51  C   -0.164920
    52  C   -0.169017
    53  C   -0.054879
    54  C   -0.305555
    55  C   -0.135575
    56  C   -0.177492
    57  C   -0.176264
    58  C   -0.065779
    59  C   -0.300375
    60  C   -0.169125
    61  C   -0.182755
    62  C   -0.166535
    63  C   -0.044777
    64  C   -0.301473
    65  C   -0.299139
    66  H    0.075254
    67  H    0.157501
    68  H    0.083556
    69  H    0.140973
    70  H    0.111138
    71  H    0.108974
    72  H    0.120812
    73  H    0.123483
    74  H    0.114697
    75  H    0.121549
    76  H    0.131890
    77  H    0.124993
    78  H    0.135213
    79  H    0.151594
    80  H    0.118782
    81  H    0.066301
    82  H    0.126711
    83  H    0.039141
    84  H    0.114049
    85  H    0.132834
    86  H    0.097542
    87  H    0.137650
    88  H    0.158636
    89  H    0.102382
    90  H    0.167243
    91  H    0.123099
    92  H    0.127159
    93  H    0.075308
    94  H    0.149286
    95  H    0.102508
    96  H    0.122835
    97  H    0.067073
    98  H    0.084835
    99  H    0.081248
   100  H    0.095558
   101  H    0.071199
   102  H    0.089079
   103  H    0.080193
   104  H    0.084176
   105  H    0.111119
   106  H    0.095736
   107  H    0.080288
   108  H    0.092379
   109  H    0.081683
   110  H    0.094125
   111  H    0.053132
   112  H    0.066558
   113  H    0.092848
   114  H    0.121785
   115  H    0.091257
   116  H    0.117092
   117  H    0.094339
   118  H    0.096079
   119  H    0.072421
   120  H    0.068631
   121  H    0.084852
   122  H    0.097094
   123  H    0.075658
   124  H    0.081556
   125  H    0.116378
   126  H    0.094555
   127  H    0.092798
   128  H    0.086160
   129  H    0.096705
   130  H    0.130477
   131  H    0.153012
   132  H    0.115504
   133  O   -0.434195
   134  H    0.093209
 Sum of Mulliken charges =   0.00000

 Dipole moment (field-independent basis, Debye):
    X=              1.1877    Y=             -5.7947    Z=             -0.9673  Tot=              5.9937
 Quadrupole moment (field-independent basis, Debye-Ang):
   XX=           -363.6868   YY=           -443.5293   ZZ=           -393.4808
   XY=              8.5728   XZ=             20.9426   YZ=            -38.9210

 Normal termination of Gaussian 09 at Thu Oct  3 14:02:49 2019.
