 Gaussian 09, Revision D.01,
 Gaussian 09:  ES64L-G09RevD.01 24-Apr-2013

 ----------------------------------------------------------------------
 # td=(NStates=1) iop(3/107=0140000000,3/108=0140000000) iop(3/107=0140
 000000,3/108=0140000000) CAM-B3LYP/6-31G(d,p)
 ----------------------------------------------------------------------

 --
 TD
 --
 Symbolic Z-matrix:
 Charge =  0 Multiplicity = 1

                         Standard orientation:
 ---------------------------------------------------------------------
 Center     Atomic      Atomic             Coordinates (Angstroms)
 Number     Number       Type             X           Y           Z
 ---------------------------------------------------------------------
      1         12           0       -5.594267    1.208625    0.220802
      2          6           0       -5.112569   -2.199192   -0.248091
      3          6           0       -3.229024    1.264591    2.722435
      4          6           0       -6.237033    4.543359    0.575187
      5          6           0       -8.084646    1.071553   -2.292900
      6          7           0       -4.397978   -0.259537    0.986569
      7          6           0       -4.280061   -1.595000    0.675144
      8          6           0       -3.209090   -2.288877    1.501398
      9          6           0       -2.859893   -1.174238    2.508131
     10          6           0       -3.506106    0.006822    2.028415
     11          6           0       -3.445036   -1.764796    3.947473
     12          6           0       -1.940774   -2.632882    0.596028
     13          6           0       -0.989061   -3.438958    1.381357
     14          6           0        0.333351   -3.767902    0.530886
     15          8           0        0.443887   -3.403468   -0.672277
     16          8           0        1.201889   -4.628338    1.042418
     17          7           0       -4.893015    2.640294    1.422292
     18          6           0       -3.912593    2.398893    2.311841
     19          6           0       -3.578685    3.668787    3.058586
     20          6           0       -4.392499    4.645071    2.492650
     21          6           0       -5.219802    3.964629    1.464220
     22          6           0       -2.660822    3.927664    4.108590
     23          6           0       -4.513690    6.061656    2.774232
     24          8           0       -3.900626    6.589168    3.699465
     25          7           0       -6.836842    2.651744   -0.717865
     26          6           0       -6.962077    3.909957   -0.454578
     27          6           0       -7.929606    4.601401   -1.195024
     28          6           0       -8.486057    3.640184   -2.096592
     29          6           0       -7.828373    2.282413   -1.661803
     30          6           0       -8.276851    6.025114   -1.140419
     31          6           0       -9.583953    3.702174   -3.160382
     32          6           0       -9.036725    3.906232   -4.553028
     33          7           0       -6.446580   -0.157290   -1.038580
     34          6           0       -7.371116   -0.063441   -1.998525
     35          6           0       -7.611263   -1.367762   -2.640113
     36          6           0       -6.763767   -2.239925   -1.986721
     37          6           0       -6.091966   -1.457355   -1.046570
     38          6           0       -8.737796   -1.800296   -3.642190
     39          6           0       -6.247943   -3.629604   -1.805249
     40          8           0       -6.619252   -4.603637   -2.352231
     41          6           0       -5.150653   -3.604172   -0.741004
     42          6           0       -5.431721   -4.673471    0.236617
     43          8           0       -5.951664   -4.432584    1.416343
     44          8           0       -5.087260   -5.876916   -0.164979
     45          6           0       -5.557542   -6.985590    0.625908
     46          6           0        2.511243   -4.924285    0.407995
     47          6           0        3.490826   -4.093592    0.812310
     48          6           0        4.030608   -3.122798    0.068763
     49          6           0        3.660242   -2.928911   -1.451704
     50          6           0        5.190573   -2.262376    0.658537
     51          6           0        6.598013   -2.592359   -0.042276
     52          6           0        7.678224   -1.759902    0.624279
     53          6           0        9.077012   -1.963213    0.019031
     54          6           0        9.691837   -3.362156    0.315811
     55          6           0        9.930765   -0.807241    0.537721
     56          6           0       11.305996   -0.797683   -0.167953
     57          6           0       12.174729    0.403658    0.175824
     58          6           0       13.556450    0.448643   -0.512623
     59          6           0       14.375192   -0.795758   -0.128431
     60          6           0       14.213074    1.712460   -0.148508
     61          6           0       15.434564    2.016399   -0.983577
     62          6           0       16.071022    3.391549   -0.757948
     63          6           0       17.435492    3.775686   -1.344590
     64          6           0       17.347797    3.779501   -2.930458
     65          6           0       18.053425    5.024824   -0.849042
     66          1           0       -2.333416    1.348659    3.520318
     67          1           0       -6.532775    5.640632    0.587967
     68          1           0       -8.832345    0.959357   -3.308975
     69          1           0       -3.627175   -3.188032    1.815274
     70          1           0       -1.648381   -1.083624    2.802287
     71          1           0       -2.968244   -2.481457    4.422745
     72          1           0       -3.445195   -0.903882    4.581958
     73          1           0       -4.589573   -1.886883    3.911341
     74          1           0       -2.276470   -3.307562   -0.290530
     75          1           0       -1.393518   -1.720548    0.237498
     76          1           0       -0.682736   -2.699051    2.230468
     77          1           0       -1.366853   -4.322021    1.669660
     78          1           0       -1.616156    3.948501    3.789773
     79          1           0       -2.839961    4.947384    4.452512
     80          1           0       -2.898416    3.261843    4.855421
     81          1           0       -5.001460    6.698258    2.058632
     82          1           0      -10.128410    2.765509   -2.988798
     83          1           0      -10.240416    4.560542   -2.779233
     84          1           0       -9.517992    4.535262   -5.389594
     85          1           0       -8.352646    4.857754   -4.396250
     86          1           0       -8.395073    3.117151   -4.890147
     87          1           0       -8.538660   -1.269188   -4.616341
     88          1           0       -8.501101   -2.849820   -3.851933
     89          1           0       -9.702018   -1.611827   -3.110017
     90          1           0       -4.240385   -3.999381   -1.482550
     91          1           0        2.605328   -5.933397    0.682391
     92          1           0        2.096490   -4.978436   -0.590908
     93          1           0        3.659240   -4.075192    1.829818
     94          1           0        2.704938   -3.239628   -1.837678
     95          1           0        3.901700   -1.969764   -1.663927
     96          1           0        4.599698   -3.413310   -2.105078
     97          1           0        4.765530   -1.264627    0.474871
     98          1           0        5.435976   -2.421352    1.712538
     99          1           0        6.748501   -3.607758    0.253570
    100          1           0        6.506264   -2.507617   -1.152365
    101          1           0        7.616788   -0.630369    0.454641
    102          1           0        7.731996   -1.957484    1.561559
    103          1           0        8.919915   -1.909013   -0.963201
    104          1           0        8.982916   -4.005767   -0.172101
    105          1           0       10.677287   -3.499722   -0.293607
    106          1           0        9.899721   -3.604491    1.403329
    107          1           0        9.336816    0.207148    0.489105
    108          1           0        9.980111   -0.870215    1.545242
    109          1           0       11.762687   -1.819753    0.135373
    110          1           0       11.175744   -0.923294   -1.290320
    111          1           0       11.597948    1.325393   -0.325706
    112          1           0       12.292203    0.587310    1.230408
    113          1           0       13.404465    0.495908   -1.677642
    114          1           0       14.524040   -0.838178    1.093502
    115          1           0       13.987003   -1.838939   -0.428925
    116          1           0       15.437405   -0.723840   -0.507272
    117          1           0       13.455972    2.422069   -0.428797
    118          1           0       14.601988    1.601582    0.848790
    119          1           0       16.305193    1.361779   -0.887255
    120          1           0       15.089198    1.923620   -2.002519
    121          1           0       15.142611    4.005739   -0.879539
    122          1           0       16.034186    3.567899    0.401277
    123          1           0       18.030132    2.685064   -1.257571
    124          1           0       16.521287    4.611013   -3.229765
    125          1           0       18.341337    4.061998   -3.356456
    126          1           0       17.128751    2.924231   -3.387010
    127          1           0       18.119084    4.904317    0.247610
    128          1           0       18.975605    5.208096   -1.098434
    129          1           0       17.412558    5.754280   -1.105032
    130          1           0       -5.051543   -7.798045    0.174633
    131          1           0       -6.598465   -7.122317    0.749425
    132          1           0       -5.314685   -6.912994    1.662119
    133          8           0       -7.868865    6.774985   -0.300653
    134          1           0       -8.997165    6.439942   -1.776217
 ---------------------------------------------------------------------

 SCF Done:  E(RCAM-B3LYP) =  -3043.47263001     A.U. after   16 cycles

 Excitation energies and oscillator strengths:

 Excited State   1:      Singlet-A      2.0189 eV  614.12 nm  f=0.1772  <S**2>=0.000
     243 -> 246        0.24818
     244 -> 245        0.65392
 This state for optimization and/or second-order correction.
 Total Energy, E(TD-HF/TD-KS) =  -3043.39843770
 Copying the excited state density for this state as the 1-particle RhoCI density.

 The electronic state is 1-A.
 Alpha  occ. eigenvalues --  -46.81079 -19.24377 -19.20905 -19.17135 -19.17042
 Alpha  occ. eigenvalues --  -19.16372 -19.16233 -19.15448 -14.39409 -14.37031
 Alpha  occ. eigenvalues --  -14.36569 -14.36255 -10.35640 -10.34644 -10.31419
 Alpha  occ. eigenvalues --  -10.29880 -10.29382 -10.28254 -10.27015 -10.26967
 Alpha  occ. eigenvalues --  -10.26778 -10.26707 -10.26492 -10.25951 -10.25686
 Alpha  occ. eigenvalues --  -10.25632 -10.25623 -10.25480 -10.25281 -10.25141
 Alpha  occ. eigenvalues --  -10.25117 -10.24593 -10.24559 -10.24527 -10.24248
 Alpha  occ. eigenvalues --  -10.23923 -10.23693 -10.23528 -10.23397 -10.23360
 Alpha  occ. eigenvalues --  -10.23277 -10.23163 -10.23058 -10.22991 -10.22691
 Alpha  occ. eigenvalues --  -10.22588 -10.22412 -10.22083 -10.22046 -10.21910
 Alpha  occ. eigenvalues --  -10.21899 -10.21625 -10.21573 -10.21431 -10.21352
 Alpha  occ. eigenvalues --  -10.21308 -10.20978 -10.20334 -10.20313 -10.20161
 Alpha  occ. eigenvalues --  -10.19900 -10.19872 -10.19806 -10.19776 -10.19585
 Alpha  occ. eigenvalues --  -10.18371  -3.09761  -1.84697  -1.84230  -1.84182
 Alpha  occ. eigenvalues --   -1.14441  -1.11724  -1.09593  -1.08451  -1.05769
 Alpha  occ. eigenvalues --   -1.01241  -1.01184  -1.00508  -1.00067  -0.99641
 Alpha  occ. eigenvalues --   -0.98899  -0.88846  -0.86722  -0.86233  -0.85559
 Alpha  occ. eigenvalues --   -0.85209  -0.84727  -0.84156  -0.83667  -0.83462
 Alpha  occ. eigenvalues --   -0.83264  -0.82315  -0.81385  -0.80848  -0.79949
 Alpha  occ. eigenvalues --   -0.79180  -0.78780  -0.77895  -0.77025  -0.76851
 Alpha  occ. eigenvalues --   -0.75197  -0.75004  -0.73865  -0.73462  -0.72110
 Alpha  occ. eigenvalues --   -0.71940  -0.71703  -0.70700  -0.69994  -0.69675
 Alpha  occ. eigenvalues --   -0.69379  -0.68697  -0.67385  -0.66325  -0.66320
 Alpha  occ. eigenvalues --   -0.65674  -0.64575  -0.64302  -0.63061  -0.61749
 Alpha  occ. eigenvalues --   -0.61347  -0.61159  -0.60781  -0.60341  -0.59236
 Alpha  occ. eigenvalues --   -0.58303  -0.58157  -0.58071  -0.57485  -0.57203
 Alpha  occ. eigenvalues --   -0.57016  -0.56026  -0.55347  -0.55070  -0.54753
 Alpha  occ. eigenvalues --   -0.53777  -0.53104  -0.52685  -0.52261  -0.52187
 Alpha  occ. eigenvalues --   -0.51897  -0.51680  -0.51550  -0.50971  -0.50693
 Alpha  occ. eigenvalues --   -0.50325  -0.49795  -0.49690  -0.49586  -0.49090
 Alpha  occ. eigenvalues --   -0.48795  -0.48673  -0.48369  -0.48180  -0.48146
 Alpha  occ. eigenvalues --   -0.47713  -0.47475  -0.47218  -0.47210  -0.46960
 Alpha  occ. eigenvalues --   -0.46917  -0.46425  -0.46139  -0.46066  -0.45877
 Alpha  occ. eigenvalues --   -0.45607  -0.45442  -0.45356  -0.45021  -0.44744
 Alpha  occ. eigenvalues --   -0.44618  -0.44279  -0.44189  -0.44110  -0.43785
 Alpha  occ. eigenvalues --   -0.43458  -0.43313  -0.43282  -0.43085  -0.42799
 Alpha  occ. eigenvalues --   -0.42588  -0.42480  -0.42435  -0.42127  -0.41877
 Alpha  occ. eigenvalues --   -0.41754  -0.41598  -0.41467  -0.41378  -0.41031
 Alpha  occ. eigenvalues --   -0.40774  -0.40648  -0.40552  -0.40269  -0.40127
 Alpha  occ. eigenvalues --   -0.39985  -0.39634  -0.39449  -0.39188  -0.39155
 Alpha  occ. eigenvalues --   -0.39013  -0.38863  -0.38332  -0.38286  -0.37992
 Alpha  occ. eigenvalues --   -0.37956  -0.37835  -0.37811  -0.37551  -0.37369
 Alpha  occ. eigenvalues --   -0.37228  -0.36795  -0.36352  -0.35369  -0.35275
 Alpha  occ. eigenvalues --   -0.34936  -0.34753  -0.34472  -0.34339  -0.34306
 Alpha  occ. eigenvalues --   -0.34088  -0.33735  -0.33631  -0.33445  -0.33253
 Alpha  occ. eigenvalues --   -0.33032  -0.32787  -0.31927  -0.31509  -0.31163
 Alpha  occ. eigenvalues --   -0.31022  -0.30520  -0.29592  -0.29030  -0.28819
 Alpha  occ. eigenvalues --   -0.28366  -0.28197  -0.28065  -0.27918  -0.27658
 Alpha  occ. eigenvalues --   -0.27454  -0.27162  -0.22589  -0.20802
 Alpha virt. eigenvalues --   -0.07806  -0.05955  -0.01425  -0.00364   0.00233
 Alpha virt. eigenvalues --    0.02148   0.02414   0.03572   0.04080   0.04333
 Alpha virt. eigenvalues --    0.04501   0.05798   0.07137   0.08538   0.08581

 Mulliken charges:
               1
     1  Mg   0.826909
     2  C    0.099038
     3  C   -0.188997
     4  C   -0.205953
     5  C   -0.170512
     6  N   -0.661120
     7  C    0.309049
     8  C   -0.125466
     9  C   -0.183388
    10  C    0.365653
    11  C   -0.321794
    12  C   -0.164497
    13  C   -0.236938
    14  C    0.567828
    15  O   -0.497076
    16  O   -0.474273
    17  N   -0.726067
    18  C    0.356763
    19  C    0.032016
    20  C   -0.017910
    21  C    0.288088
    22  C   -0.416420
    23  C    0.240944
    24  O   -0.425648
    25  N   -0.680023
    26  C    0.368352
    27  C   -0.032280
    28  C   -0.007346
    29  C    0.237161
    30  C    0.256124
    31  C   -0.236292
    32  C   -0.312029
    33  N   -0.711548
    34  C    0.301403
    35  C   -0.071154
    36  C    0.073993
    37  C    0.254467
    38  C   -0.370208
    39  C    0.361338
    40  O   -0.430187
    41  C   -0.335912
    42  C    0.635674
    43  O   -0.534740
    44  O   -0.416769
    45  C   -0.095491
    46  C    0.000803
    47  C   -0.092665
    48  C    0.105550
    49  C   -0.359142
    50  C   -0.229801
    51  C   -0.193626
    52  C   -0.152989
    53  C   -0.058362
    54  C   -0.318230
    55  C   -0.169774
    56  C   -0.174457
    57  C   -0.157264
    58  C   -0.050308
    59  C   -0.304583
    60  C   -0.149531
    61  C   -0.186912
    62  C   -0.160033
    63  C   -0.055153
    64  C   -0.298927
    65  C   -0.294242
    66  H    0.112233
    67  H    0.140025
    68  H    0.102093
    69  H    0.128200
    70  H    0.086190
    71  H    0.129148
    72  H    0.106042
    73  H    0.123225
    74  H    0.100005
    75  H    0.120102
    76  H    0.107425
    77  H    0.136616
    78  H    0.127406
    79  H    0.170323
    80  H    0.126346
    81  H    0.096117
    82  H    0.119581
    83  H    0.107949
    84  H    0.116850
    85  H    0.092614
    86  H    0.127127
    87  H    0.120022
    88  H    0.149602
    89  H    0.137148
    90  H    0.156164
    91  H    0.115081
    92  H    0.128026
    93  H    0.081783
    94  H    0.161439
    95  H    0.123675
    96  H    0.080927
    97  H    0.106057
    98  H    0.100651
    99  H    0.112204
   100  H    0.092739
   101  H    0.082165
   102  H    0.095695
   103  H    0.092848
   104  H    0.105695
   105  H    0.092342
   106  H    0.099119
   107  H    0.062563
   108  H    0.100872
   109  H    0.086373
   110  H    0.084489
   111  H    0.066624
   112  H    0.095107
   113  H    0.064701
   114  H    0.067461
   115  H    0.100074
   116  H    0.100844
   117  H    0.094496
   118  H    0.095349
   119  H    0.086710
   120  H    0.088920
   121  H    0.075901
   122  H    0.061826
   123  H    0.051861
   124  H    0.069648
   125  H    0.090588
   126  H    0.116333
   127  H    0.097757
   128  H    0.115601
   129  H    0.119398
   130  H    0.128611
   131  H    0.145295
   132  H    0.137445
   133  O   -0.409094
   134  H    0.070131
 Sum of Mulliken charges =   0.00000

 Dipole moment (field-independent basis, Debye):
    X=              3.1185    Y=             -4.3970    Z=             -1.2638  Tot=              5.5368
 Quadrupole moment (field-independent basis, Debye-Ang):
   XX=           -376.3046   YY=           -427.6199   ZZ=           -393.4741
   XY=              4.9746   XZ=             27.4259   YZ=            -35.3581

 Normal termination of Gaussian 09 at Tue Oct  8 18:33:08 2019.
