 Gaussian 09, Revision D.01,
 Gaussian 09:  ES64L-G09RevD.01 24-Apr-2013

 ----------------------------------------------------------------------
 # td=(NStates=1) iop(3/107=0140000000,3/108=0140000000) iop(3/107=0140
 000000,3/108=0140000000) CAM-B3LYP/6-31G(d,p)
 ----------------------------------------------------------------------

 --
 TD
 --
 Symbolic Z-matrix:
 Charge =  0 Multiplicity = 1

                         Standard orientation:
 ---------------------------------------------------------------------
 Center     Atomic      Atomic             Coordinates (Angstroms)
 Number     Number       Type             X           Y           Z
 ---------------------------------------------------------------------
      1         12           0       -5.604325    1.199357    0.208592
      2          6           0       -4.965135   -2.070200   -0.411884
      3          6           0       -3.467853    1.164599    2.824096
      4          6           0       -6.211593    4.527547    0.649662
      5          6           0       -7.991978    1.262196   -2.420438
      6          7           0       -4.397001   -0.306285    1.067013
      7          6           0       -4.244533   -1.621642    0.693983
      8          6           0       -3.217535   -2.373811    1.527460
      9          6           0       -3.029959   -1.432404    2.722243
     10          6           0       -3.603921   -0.075313    2.261445
     11          6           0       -3.665811   -1.846851    4.111776
     12          6           0       -1.994055   -2.673202    0.711852
     13          6           0       -1.084359   -3.643289    1.495234
     14          6           0        0.259465   -3.976774    0.653347
     15          8           0        0.533176   -3.397538   -0.395076
     16          8           0        1.016490   -4.875318    1.299146
     17          7           0       -4.913578    2.605891    1.475014
     18          6           0       -4.057331    2.478281    2.509938
     19          6           0       -3.779750    3.735788    3.208544
     20          6           0       -4.554524    4.641843    2.527003
     21          6           0       -5.207281    3.986096    1.462421
     22          6           0       -2.887626    3.881050    4.350383
     23          6           0       -4.754783    5.964126    2.945789
     24          8           0       -4.093156    6.449988    3.799901
     25          7           0       -6.818320    2.582783   -0.711562
     26          6           0       -6.843601    3.901914   -0.367993
     27          6           0       -7.813569    4.654688   -1.256299
     28          6           0       -8.405856    3.686488   -2.090643
     29          6           0       -7.684307    2.381817   -1.711829
     30          6           0       -8.233770    6.063128   -1.190323
     31          6           0       -9.372882    3.888965   -3.192768
     32          6           0       -8.764618    4.097516   -4.636975
     33          7           0       -6.348962   -0.080411   -1.138424
     34          6           0       -7.347767    0.071479   -2.028967
     35          6           0       -7.572456   -1.367158   -2.715843
     36          6           0       -6.627365   -2.210874   -1.988762
     37          6           0       -5.937599   -1.364726   -1.127188
     38          6           0       -8.529228   -1.752161   -3.746929
     39          6           0       -6.097793   -3.508495   -2.069098
     40          8           0       -6.501170   -4.520674   -2.632449
     41          6           0       -5.028489   -3.514612   -0.994805
     42          6           0       -5.285172   -4.591677    0.019138
     43          8           0       -5.587218   -4.449386    1.162215
     44          8           0       -5.133951   -5.818414   -0.583963
     45          6           0       -5.277491   -6.868716    0.373103
     46          6           0        2.288632   -5.057010    0.533347
     47          6           0        3.393680   -4.055583    1.009603
     48          6           0        4.105749   -3.298707    0.127044
     49          6           0        3.830914   -3.280661   -1.254041
     50          6           0        5.162005   -2.414171    0.668056
     51          6           0        6.561121   -2.791673    0.077896
     52          6           0        7.671381   -1.727535    0.494891
     53          6           0        9.094513   -2.033442   -0.184482
     54          6           0        9.502050   -3.468678    0.022721
     55          6           0        9.974655   -0.951378    0.415644
     56          6           0       11.404427   -0.947917   -0.312177
     57          6           0       12.195252    0.281874    0.248329
     58          6           0       13.566889    0.480162   -0.358352
     59          6           0       14.595602   -0.671808   -0.152396
     60          6           0       14.220456    1.834204   -0.080235
     61          6           0       15.504601    2.108398   -0.870471
     62          6           0       15.985417    3.633492   -0.690149
     63          6           0       17.198159    3.944925   -1.467908
     64          6           0       17.056307    4.057304   -2.960443
     65          6           0       17.790208    5.386398   -0.868317
     66          1           0       -2.879573    1.344273    3.823279
     67          1           0       -6.439955    5.514841    0.745665
     68          1           0       -8.783736    0.994297   -3.273962
     69          1           0       -3.916891   -3.279049    1.757079
     70          1           0       -2.072337   -1.206881    2.961783
     71          1           0       -3.122732   -2.721316    4.482805
     72          1           0       -3.607878   -0.958489    4.705461
     73          1           0       -4.592677   -2.218086    3.988345
     74          1           0       -2.201014   -3.040384   -0.466982
     75          1           0       -1.413038   -1.656365    0.622056
     76          1           0       -0.734467   -3.222742    2.463609
     77          1           0       -1.627241   -4.587351    1.923337
     78          1           0       -1.743410    3.761552    4.089939
     79          1           0       -3.025556    4.902266    4.848073
     80          1           0       -3.203418    3.071308    4.961127
     81          1           0       -5.633757    6.506682    2.345623
     82          1           0      -10.061124    2.871788   -3.139681
     83          1           0      -10.042554    4.619485   -2.741867
     84          1           0       -9.557636    4.133837   -5.425709
     85          1           0       -8.265731    5.194581   -4.359142
     86          1           0       -7.954498    3.281401   -4.871307
     87          1           0       -8.590545   -1.192209   -4.514731
     88          1           0       -8.637858   -2.938061   -4.019484
     89          1           0       -9.679007   -1.535835   -3.575456
     90          1           0       -4.105265   -3.932002   -1.244891
     91          1           0        2.604313   -6.045557    0.866718
     92          1           0        2.140509   -4.907300   -0.457515
     93          1           0        3.353729   -3.775899    2.066989
     94          1           0        2.863578   -3.708168   -1.520683
     95          1           0        4.099242   -2.293164   -1.913134
     96          1           0        4.416781   -4.033496   -1.747299
     97          1           0        4.994160   -1.225574    0.595494
     98          1           0        5.309297   -2.535823    1.629877
     99          1           0        6.770814   -3.812746    0.471601
    100          1           0        6.356658   -2.840455   -1.057302
    101          1           0        7.330045   -0.764304    0.355175
    102          1           0        7.846185   -1.963567    1.476741
    103          1           0        9.227488   -2.067503   -1.255810
    104          1           0        8.787139   -4.135264   -0.344360
    105          1           0       10.453426   -3.552839   -0.434223
    106          1           0        9.604066   -3.667142    1.164989
    107          1           0        9.388940    0.117707    0.472277
    108          1           0       10.133486   -1.033948    1.434852
    109          1           0       12.033293   -1.879046   -0.121383
    110          1           0       11.398471   -0.946120   -1.571835
    111          1           0       11.716286    1.103030    0.040807
    112          1           0       12.304180    0.103794    1.479334
    113          1           0       13.301765    0.360750   -1.469175
    114          1           0       14.633822   -0.796177    0.876345
    115          1           0       14.129271   -1.695868   -0.409115
    116          1           0       15.498357   -0.546115   -0.669900
    117          1           0       13.562378    2.647419   -0.241875
    118          1           0       14.572712    1.764014    0.923289
    119          1           0       16.187615    1.460892   -0.574748
    120          1           0       15.381929    1.791775   -1.974437
    121          1           0       15.198258    4.407827   -0.995585
    122          1           0       16.119892    3.924468    0.229901
    123          1           0       17.932600    3.177532   -1.213192
    124          1           0       16.554380    4.906988   -2.964494
    125          1           0       18.051936    4.357213   -3.346229
    126          1           0       16.595105    3.276101   -3.336477
    127          1           0       17.704867    5.387786    0.238880
    128          1           0       18.704535    5.608744   -1.295691
    129          1           0       17.225301    6.262149   -1.198872
    130          1           0       -5.169072   -7.764492   -0.347037
    131          1           0       -6.394257   -6.823213    0.894157
    132          1           0       -4.457263   -6.977118    1.231855
    133          8           0       -7.742887    6.846481   -0.445055
    134          1           0       -8.836657    6.395082   -2.030427
 ---------------------------------------------------------------------

 SCF Done:  E(RCAM-B3LYP) =  -3043.43899926     A.U. after   16 cycles

 Excitation energies and oscillator strengths:

 Excited State   1:      Singlet-A      1.9167 eV  646.85 nm  f=0.2573  <S**2>=0.000
     243 -> 246        0.20730
     244 -> 245        0.66857
 This state for optimization and/or second-order correction.
 Total Energy, E(TD-HF/TD-KS) =  -3043.36856070
 Copying the excited state density for this state as the 1-particle RhoCI density.

 The electronic state is 1-A.
 Alpha  occ. eigenvalues --  -46.80930 -19.23390 -19.22941 -19.18385 -19.17512
 Alpha  occ. eigenvalues --  -19.17503 -19.16480 -19.16426 -14.38553 -14.37447
 Alpha  occ. eigenvalues --  -14.36889 -14.36683 -10.35577 -10.35309 -10.30620
 Alpha  occ. eigenvalues --  -10.30313 -10.29415 -10.29361 -10.27465 -10.27461
 Alpha  occ. eigenvalues --  -10.27321 -10.27175 -10.27119 -10.26710 -10.26270
 Alpha  occ. eigenvalues --  -10.25954 -10.25868 -10.25481 -10.25343 -10.25305
 Alpha  occ. eigenvalues --  -10.25112 -10.24946 -10.24826 -10.24742 -10.24265
 Alpha  occ. eigenvalues --  -10.24103 -10.23792 -10.23689 -10.23671 -10.23464
 Alpha  occ. eigenvalues --  -10.23446 -10.23276 -10.23089 -10.22691 -10.22253
 Alpha  occ. eigenvalues --  -10.21921 -10.21863 -10.21854 -10.21767 -10.21586
 Alpha  occ. eigenvalues --  -10.21343 -10.21221 -10.21149 -10.21070 -10.21044
 Alpha  occ. eigenvalues --  -10.20915 -10.20834 -10.20821 -10.20326 -10.20308
 Alpha  occ. eigenvalues --  -10.19736 -10.19726 -10.19600 -10.19591 -10.19498
 Alpha  occ. eigenvalues --  -10.17455  -3.09646  -1.84578  -1.84117  -1.84067
 Alpha  occ. eigenvalues --   -1.14532  -1.13243  -1.09028  -1.08342  -1.06497
 Alpha  occ. eigenvalues --   -1.06049  -1.04394  -1.00751  -0.99642  -0.98943
 Alpha  occ. eigenvalues --   -0.97436  -0.89569  -0.86779  -0.85347  -0.85298
 Alpha  occ. eigenvalues --   -0.85240  -0.84507  -0.84394  -0.83803  -0.83420
 Alpha  occ. eigenvalues --   -0.83395  -0.82713  -0.81445  -0.80096  -0.79453
 Alpha  occ. eigenvalues --   -0.78747  -0.78149  -0.77680  -0.76919  -0.76447
 Alpha  occ. eigenvalues --   -0.75399  -0.75127  -0.74014  -0.72376  -0.72099
 Alpha  occ. eigenvalues --   -0.72024  -0.71604  -0.71175  -0.70387  -0.69223
 Alpha  occ. eigenvalues --   -0.69053  -0.68716  -0.67546  -0.66446  -0.66323
 Alpha  occ. eigenvalues --   -0.65825  -0.65071  -0.64597  -0.62668  -0.62049
 Alpha  occ. eigenvalues --   -0.61621  -0.60665  -0.60566  -0.59431  -0.59314
 Alpha  occ. eigenvalues --   -0.58947  -0.58452  -0.57531  -0.57183  -0.56907
 Alpha  occ. eigenvalues --   -0.56397  -0.55882  -0.55632  -0.55116  -0.54725
 Alpha  occ. eigenvalues --   -0.54149  -0.54047  -0.52521  -0.52325  -0.51809
 Alpha  occ. eigenvalues --   -0.51621  -0.51013  -0.50914  -0.50819  -0.50605
 Alpha  occ. eigenvalues --   -0.50318  -0.49645  -0.49351  -0.49073  -0.48943
 Alpha  occ. eigenvalues --   -0.48790  -0.48693  -0.48495  -0.48178  -0.47966
 Alpha  occ. eigenvalues --   -0.47613  -0.47487  -0.47268  -0.47253  -0.46739
 Alpha  occ. eigenvalues --   -0.46668  -0.46472  -0.46244  -0.45893  -0.45638
 Alpha  occ. eigenvalues --   -0.45409  -0.45249  -0.45175  -0.45091  -0.44908
 Alpha  occ. eigenvalues --   -0.44684  -0.44566  -0.44377  -0.43951  -0.43817
 Alpha  occ. eigenvalues --   -0.43581  -0.43498  -0.43035  -0.42826  -0.42642
 Alpha  occ. eigenvalues --   -0.42569  -0.42501  -0.42321  -0.42157  -0.42075
 Alpha  occ. eigenvalues --   -0.41788  -0.41546  -0.41397  -0.41169  -0.40898
 Alpha  occ. eigenvalues --   -0.40879  -0.40668  -0.40539  -0.40242  -0.40120
 Alpha  occ. eigenvalues --   -0.40047  -0.39751  -0.39724  -0.39573  -0.39370
 Alpha  occ. eigenvalues --   -0.39204  -0.38934  -0.38776  -0.38613  -0.38483
 Alpha  occ. eigenvalues --   -0.38378  -0.38253  -0.38021  -0.37960  -0.37386
 Alpha  occ. eigenvalues --   -0.36803  -0.36584  -0.36393  -0.36186  -0.35983
 Alpha  occ. eigenvalues --   -0.35726  -0.35515  -0.35324  -0.34961  -0.34740
 Alpha  occ. eigenvalues --   -0.34597  -0.33852  -0.33846  -0.33407  -0.33347
 Alpha  occ. eigenvalues --   -0.33312  -0.33221  -0.31834  -0.31739  -0.31676
 Alpha  occ. eigenvalues --   -0.31445  -0.30998  -0.30595  -0.29959  -0.29795
 Alpha  occ. eigenvalues --   -0.28796  -0.28264  -0.27850  -0.27741  -0.27555
 Alpha  occ. eigenvalues --   -0.27044  -0.26108  -0.22822  -0.20855
 Alpha virt. eigenvalues --   -0.08655  -0.05685  -0.01650  -0.00407   0.00730
 Alpha virt. eigenvalues --    0.03032   0.03478   0.03742   0.04008   0.04402
 Alpha virt. eigenvalues --    0.04832   0.06266   0.07529   0.07806   0.08888

 Mulliken charges:
               1
     1  Mg   0.824096
     2  C    0.053255
     3  C   -0.207283
     4  C   -0.136942
     5  C   -0.150787
     6  N   -0.624934
     7  C    0.299706
     8  C   -0.150878
     9  C   -0.140087
    10  C    0.317727
    11  C   -0.306305
    12  C   -0.153494
    13  C   -0.271143
    14  C    0.611486
    15  O   -0.473660
    16  O   -0.460543
    17  N   -0.691772
    18  C    0.282829
    19  C    0.076750
    20  C   -0.002566
    21  C    0.268491
    22  C   -0.392075
    23  C    0.231165
    24  O   -0.411896
    25  N   -0.692489
    26  C    0.300726
    27  C   -0.032119
    28  C    0.012991
    29  C    0.307066
    30  C    0.245604
    31  C   -0.251990
    32  C   -0.283892
    33  N   -0.735302
    34  C    0.265158
    35  C    0.030035
    36  C    0.035399
    37  C    0.323048
    38  C   -0.401712
    39  C    0.360887
    40  O   -0.465003
    41  C   -0.322110
    42  C    0.618899
    43  O   -0.455035
    44  O   -0.429431
    45  C   -0.080663
    46  C    0.002907
    47  C   -0.176771
    48  C    0.194336
    49  C   -0.401474
    50  C   -0.221438
    51  C   -0.206999
    52  C   -0.170920
    53  C   -0.058426
    54  C   -0.310406
    55  C   -0.155275
    56  C   -0.188030
    57  C   -0.138961
    58  C   -0.067694
    59  C   -0.323734
    60  C   -0.166093
    61  C   -0.192714
    62  C   -0.147996
    63  C   -0.073668
    64  C   -0.283775
    65  C   -0.351602
    66  H    0.068251
    67  H    0.114399
    68  H    0.107173
    69  H    0.138318
    70  H    0.112853
    71  H    0.105547
    72  H    0.115783
    73  H    0.136059
    74  H    0.105215
    75  H    0.116473
    76  H    0.134883
    77  H    0.117216
    78  H    0.118384
    79  H    0.160889
    80  H    0.122639
    81  H    0.055671
    82  H    0.076367
    83  H    0.121757
    84  H    0.124568
    85  H    0.096806
    86  H    0.118945
    87  H    0.140594
    88  H    0.148045
    89  H    0.109371
    90  H    0.157238
    91  H    0.122111
    92  H    0.130173
    93  H    0.091117
    94  H    0.140793
    95  H    0.108217
    96  H    0.128255
    97  H    0.076295
    98  H    0.104941
    99  H    0.098670
   100  H    0.083989
   101  H    0.099530
   102  H    0.106181
   103  H    0.088217
   104  H    0.117527
   105  H    0.105029
   106  H    0.072320
   107  H    0.066127
   108  H    0.106218
   109  H    0.098805
   110  H    0.059922
   111  H    0.106647
   112  H    0.047414
   113  H    0.065444
   114  H    0.108881
   115  H    0.081233
   116  H    0.112617
   117  H    0.092233
   118  H    0.094869
   119  H    0.108522
   120  H    0.074163
   121  H    0.066324
   122  H    0.098361
   123  H    0.079002
   124  H    0.113306
   125  H    0.092766
   126  H    0.105806
   127  H    0.098910
   128  H    0.108214
   129  H    0.097709
   130  H    0.121445
   131  H    0.116879
   132  H    0.110460
   133  O   -0.396113
   134  H    0.064557
 Sum of Mulliken charges =   0.00000

 Dipole moment (field-independent basis, Debye):
    X=              1.2792    Y=             -4.2714    Z=             -1.1566  Tot=              4.6064
 Quadrupole moment (field-independent basis, Debye-Ang):
   XX=           -366.3237   YY=           -437.0287   ZZ=           -391.2726
   XY=              1.1831   XZ=             28.0898   YZ=            -32.3137

 Normal termination of Gaussian 09 at Wed Oct  9 06:00:30 2019.
