 Gaussian 09, Revision D.01,
 Gaussian 09:  ES64L-G09RevD.01 24-Apr-2013

 ----------------------------------------------------------------------
 # td=(NStates=1) iop(3/107=0140000000,3/108=0140000000) iop(3/107=0140
 000000,3/108=0140000000) CAM-B3LYP/6-31G(d,p)
 ----------------------------------------------------------------------

 --
 TD
 --
 Symbolic Z-matrix:
 Charge =  0 Multiplicity = 1

                         Standard orientation:
 ---------------------------------------------------------------------
 Center     Atomic      Atomic             Coordinates (Angstroms)
 Number     Number       Type             X           Y           Z
 ---------------------------------------------------------------------
      1         12           0       -5.649738    1.221531    0.209316
      2          6           0       -5.048169   -2.123352   -0.379939
      3          6           0       -3.629174    1.115195    2.875788
      4          6           0       -6.243367    4.550733    0.700859
      5          6           0       -8.105726    1.172920   -2.271514
      6          7           0       -4.455357   -0.373792    1.151496
      7          6           0       -4.322092   -1.681500    0.762371
      8          6           0       -3.356999   -2.347579    1.544288
      9          6           0       -2.986032   -1.358006    2.653279
     10          6           0       -3.755600   -0.066549    2.194401
     11          6           0       -3.459613   -1.859160    4.062339
     12          6           0       -1.995489   -2.699416    0.655324
     13          6           0       -0.885170   -3.490881    1.420958
     14          6           0        0.381960   -3.811042    0.688655
     15          8           0        0.551691   -3.402786   -0.454121
     16          8           0        1.097852   -4.737528    1.261075
     17          7           0       -5.088452    2.560838    1.509749
     18          6           0       -4.217296    2.347204    2.610301
     19          6           0       -3.865798    3.640043    3.244048
     20          6           0       -4.635937    4.601624    2.643696
     21          6           0       -5.357619    3.892498    1.562464
     22          6           0       -2.802092    3.755105    4.368872
     23          6           0       -4.795817    5.994039    2.884768
     24          8           0       -4.148226    6.533143    3.873300
     25          7           0       -7.019379    2.653399   -0.624516
     26          6           0       -6.886932    3.973357   -0.311672
     27          6           0       -7.884336    4.572159   -1.331612
     28          6           0       -8.452595    3.650673   -2.139927
     29          6           0       -7.795729    2.350553   -1.726318
     30          6           0       -8.251839    6.103306   -1.316324
     31          6           0       -9.236352    3.840989   -3.317898
     32          6           0       -8.444965    3.957584   -4.708306
     33          7           0       -6.424444   -0.142455   -1.019873
     34          6           0       -7.510423   -0.051195   -1.956505
     35          6           0       -7.621303   -1.334038   -2.741494
     36          6           0       -6.653601   -2.200387   -2.176660
     37          6           0       -5.920817   -1.364793   -1.126611
     38          6           0       -8.617546   -1.552933   -3.853076
     39          6           0       -6.155420   -3.516076   -2.146681
     40          8           0       -6.502815   -4.465016   -2.735213
     41          6           0       -5.000531   -3.534143   -0.979055
     42          6           0       -5.243321   -4.702231    0.097829
     43          8           0       -5.856612   -4.513123    1.156100
     44          8           0       -4.920060   -5.921966   -0.361026
     45          6           0       -5.208033   -7.058939    0.530571
     46          6           0        2.266947   -5.019628    0.505243
     47          6           0        3.506843   -4.098755    0.896804
     48          6           0        4.047594   -3.183322    0.167819
     49          6           0        3.677016   -3.104519   -1.417286
     50          6           0        5.066763   -2.222016    0.618669
     51          6           0        6.459471   -2.572423    0.016762
     52          6           0        7.610202   -1.777239    0.623879
     53          6           0        8.967906   -1.965465   -0.028750
     54          6           0        9.513848   -3.356636    0.248552
     55          6           0        9.967841   -0.818264    0.426326
     56          6           0       11.303507   -0.772489   -0.258669
     57          6           0       12.280928    0.362053    0.131202
     58          6           0       13.540112    0.541902   -0.639997
     59          6           0       14.508338   -0.731924   -0.474622
     60          6           0       14.315342    1.758831   -0.117244
     61          6           0       15.485674    2.188425   -1.015658
     62          6           0       16.147973    3.540231   -0.641997
     63          6           0       17.445110    3.777255   -1.246751
     64          6           0       17.404016    3.922420   -2.723898
     65          6           0       18.186007    4.946799   -0.698140
     66          1           0       -2.977593    0.979641    3.740712
     67          1           0       -6.413271    5.822096    0.526789
     68          1           0       -8.916312    1.260632   -3.064557
     69          1           0       -3.735806   -3.236911    1.963114
     70          1           0       -1.869579   -1.100424    2.706519
     71          1           0       -2.788781   -2.567580    4.372120
     72          1           0       -3.340133   -0.989543    4.645071
     73          1           0       -4.480452   -2.236544    4.099954
     74          1           0       -2.399212   -3.097145   -0.333384
     75          1           0       -1.677411   -1.673136    0.421206
     76          1           0       -0.607926   -3.069220    2.398876
     77          1           0       -1.237920   -4.458392    1.775007
     78          1           0       -1.977204    3.366618    3.690822
     79          1           0       -2.426278    4.786153    4.645002
     80          1           0       -3.231471    2.991499    5.050511
     81          1           0       -5.516099    6.586589    2.320764
     82          1           0       -9.809482    2.931151   -3.488931
     83          1           0      -10.235541    4.550910   -3.289569
     84          1           0       -9.017494    4.100032   -5.512425
     85          1           0       -7.817036    4.935735   -4.620475
     86          1           0       -7.804460    3.186685   -4.924004
     87          1           0       -8.590016   -0.869435   -4.667729
     88          1           0       -8.430289   -2.620031   -4.151417
     89          1           0       -9.662464   -1.372897   -3.407298
     90          1           0       -4.043630   -3.699509   -1.325521
     91          1           0        2.513375   -6.105882    0.966723
     92          1           0        2.188909   -5.005562   -0.507017
     93          1           0        3.714463   -4.042607    2.069819
     94          1           0        2.772727   -3.450746   -1.816304
     95          1           0        3.937192   -2.086515   -1.697887
     96          1           0        4.646402   -3.607775   -1.894560
     97          1           0        4.713318   -1.266365    0.265829
     98          1           0        4.989709   -2.535528    1.704437
     99          1           0        6.803590   -3.530111    0.257091
    100          1           0        6.255146   -2.498648   -1.118140
    101          1           0        7.426994   -0.886097    0.468504
    102          1           0        7.649945   -1.752711    1.732608
    103          1           0        8.821277   -1.861224   -1.116831
    104          1           0        8.771581   -4.048113   -0.294296
    105          1           0       10.487148   -3.482261    0.006035
    106          1           0        9.535273   -3.527990    1.252313
    107          1           0        9.559534    0.114581    0.178656
    108          1           0       10.196484   -0.806546    1.429425
    109          1           0       11.907234   -1.662694   -0.014150
    110          1           0       11.268889   -0.965398   -1.208416
    111          1           0       11.703545    1.390787   -0.073239
    112          1           0       12.501398    0.274150    1.345936
    113          1           0       13.353851    0.728413   -1.715869
    114          1           0       14.881609   -0.624305    0.589521
    115          1           0       13.857413   -1.567464   -0.623783
    116          1           0       15.446781   -0.737808   -1.204121
    117          1           0       13.509042    2.516842   -0.080178
    118          1           0       14.733880    1.660788    1.013619
    119          1           0       16.464799    1.421162   -0.767093
    120          1           0       15.469096    2.138949   -2.197661
    121          1           0       15.379104    4.269409   -1.062198
    122          1           0       16.157656    3.894418    0.424549
    123          1           0       17.991966    2.864265   -1.216396
    124          1           0       16.375883    4.612426   -3.012485
    125          1           0       18.408875    4.628023   -3.068411
    126          1           0       17.280420    2.916227   -3.365679
    127          1           0       18.511820    4.761627    0.376919
    128          1           0       19.135227    5.212377   -1.152147
    129          1           0       17.733689    5.960014   -0.906312
    130          1           0       -4.538421   -7.981272    0.108806
    131          1           0       -6.228501   -7.372021    0.649212
    132          1           0       -4.674753   -6.888408    1.628260
    133          8           0       -7.873167    6.919627   -0.485937
    134          1           0       -9.112758    6.493502   -1.926235
 ---------------------------------------------------------------------

 SCF Done:  E(RCAM-B3LYP) =  -3043.42911216     A.U. after   16 cycles

 Excitation energies and oscillator strengths:

 Excited State   1:      Singlet-A      1.9974 eV  620.74 nm  f=0.2377  <S**2>=0.000
     243 -> 246        0.24188
     244 -> 245        0.65904
 This state for optimization and/or second-order correction.
 Total Energy, E(TD-HF/TD-KS) =  -3043.35571032
 Copying the excited state density for this state as the 1-particle RhoCI density.

 The electronic state is 1-A.
 Alpha  occ. eigenvalues --  -46.81424 -19.24174 -19.23811 -19.18087 -19.17046
 Alpha  occ. eigenvalues --  -19.16976 -19.16561 -19.15821 -14.38732 -14.37520
 Alpha  occ. eigenvalues --  -14.37230 -14.36305 -10.35651 -10.34982 -10.31390
 Alpha  occ. eigenvalues --  -10.30996 -10.30140 -10.29553 -10.28549 -10.27310
 Alpha  occ. eigenvalues --  -10.27092 -10.26853 -10.26775 -10.26725 -10.26255
 Alpha  occ. eigenvalues --  -10.26211 -10.26047 -10.25979 -10.25230 -10.24879
 Alpha  occ. eigenvalues --  -10.24818 -10.24674 -10.24479 -10.24476 -10.24214
 Alpha  occ. eigenvalues --  -10.24066 -10.24027 -10.23836 -10.23615 -10.23479
 Alpha  occ. eigenvalues --  -10.23477 -10.23444 -10.23369 -10.23198 -10.23046
 Alpha  occ. eigenvalues --  -10.23042 -10.22831 -10.22762 -10.22675 -10.22233
 Alpha  occ. eigenvalues --  -10.22191 -10.21944 -10.21866 -10.21796 -10.21777
 Alpha  occ. eigenvalues --  -10.21762 -10.21716 -10.21154 -10.21037 -10.20681
 Alpha  occ. eigenvalues --  -10.20537 -10.20425 -10.19653 -10.19387 -10.18923
 Alpha  occ. eigenvalues --  -10.18863  -3.10077  -1.85003  -1.84535  -1.84508
 Alpha  occ. eigenvalues --   -1.16422  -1.13071  -1.09630  -1.07143  -1.04801
 Alpha  occ. eigenvalues --   -1.03606  -1.01917  -1.01629  -0.99319  -0.98787
 Alpha  occ. eigenvalues --   -0.97750  -0.87963  -0.86829  -0.86093  -0.85869
 Alpha  occ. eigenvalues --   -0.85490  -0.85256  -0.84344  -0.84043  -0.83552
 Alpha  occ. eigenvalues --   -0.83424  -0.83005  -0.82082  -0.80507  -0.80128
 Alpha  occ. eigenvalues --   -0.78463  -0.77929  -0.77479  -0.76743  -0.76473
 Alpha  occ. eigenvalues --   -0.75630  -0.75434  -0.74531  -0.72598  -0.72297
 Alpha  occ. eigenvalues --   -0.71982  -0.71099  -0.70503  -0.69886  -0.69649
 Alpha  occ. eigenvalues --   -0.69328  -0.69072  -0.67830  -0.67415  -0.66737
 Alpha  occ. eigenvalues --   -0.65840  -0.65494  -0.63674  -0.63614  -0.62724
 Alpha  occ. eigenvalues --   -0.62484  -0.60714  -0.60559  -0.60476  -0.60214
 Alpha  occ. eigenvalues --   -0.59055  -0.58058  -0.57464  -0.57315  -0.56853
 Alpha  occ. eigenvalues --   -0.56616  -0.55665  -0.55050  -0.54561  -0.54460
 Alpha  occ. eigenvalues --   -0.53429  -0.53099  -0.52761  -0.52555  -0.52229
 Alpha  occ. eigenvalues --   -0.52031  -0.51944  -0.51193  -0.50922  -0.50364
 Alpha  occ. eigenvalues --   -0.50119  -0.49875  -0.49592  -0.49394  -0.49207
 Alpha  occ. eigenvalues --   -0.48781  -0.48465  -0.48407  -0.48142  -0.47885
 Alpha  occ. eigenvalues --   -0.47845  -0.47550  -0.47104  -0.46938  -0.46808
 Alpha  occ. eigenvalues --   -0.46721  -0.46534  -0.46416  -0.46244  -0.45978
 Alpha  occ. eigenvalues --   -0.45579  -0.45451  -0.45141  -0.44949  -0.44711
 Alpha  occ. eigenvalues --   -0.44587  -0.44556  -0.44183  -0.44053  -0.43985
 Alpha  occ. eigenvalues --   -0.43790  -0.43640  -0.43254  -0.43081  -0.43032
 Alpha  occ. eigenvalues --   -0.42748  -0.42596  -0.42436  -0.42267  -0.41981
 Alpha  occ. eigenvalues --   -0.41754  -0.41679  -0.41408  -0.41168  -0.41002
 Alpha  occ. eigenvalues --   -0.40933  -0.40505  -0.40413  -0.40196  -0.40003
 Alpha  occ. eigenvalues --   -0.39737  -0.39726  -0.39537  -0.39461  -0.39392
 Alpha  occ. eigenvalues --   -0.39055  -0.38796  -0.38631  -0.38311  -0.38292
 Alpha  occ. eigenvalues --   -0.37975  -0.37827  -0.37518  -0.37349  -0.37066
 Alpha  occ. eigenvalues --   -0.36863  -0.36503  -0.36253  -0.35931  -0.35819
 Alpha  occ. eigenvalues --   -0.35398  -0.35099  -0.35088  -0.35015  -0.34857
 Alpha  occ. eigenvalues --   -0.34612  -0.34385  -0.33688  -0.33671  -0.33168
 Alpha  occ. eigenvalues --   -0.33126  -0.32925  -0.32015  -0.31608  -0.31338
 Alpha  occ. eigenvalues --   -0.30905  -0.30830  -0.30522  -0.30407  -0.29727
 Alpha  occ. eigenvalues --   -0.28714  -0.28122  -0.27925  -0.27895  -0.27809
 Alpha  occ. eigenvalues --   -0.27508  -0.26894  -0.23109  -0.20960
 Alpha virt. eigenvalues --   -0.08341  -0.05767  -0.02252  -0.01061   0.00508
 Alpha virt. eigenvalues --    0.02590   0.02781   0.03641   0.04346   0.05136
 Alpha virt. eigenvalues --    0.05311   0.06220   0.08219   0.08460   0.09493

 Mulliken charges:
               1
     1  Mg   0.828436
     2  C    0.083920
     3  C   -0.193008
     4  C   -0.190528
     5  C   -0.164507
     6  N   -0.639668
     7  C    0.327993
     8  C   -0.172791
     9  C   -0.174106
    10  C    0.369811
    11  C   -0.310499
    12  C   -0.170327
    13  C   -0.280852
    14  C    0.607870
    15  O   -0.485786
    16  O   -0.420297
    17  N   -0.720760
    18  C    0.300397
    19  C    0.005573
    20  C    0.033734
    21  C    0.299882
    22  C   -0.342702
    23  C    0.206743
    24  O   -0.462135
    25  N   -0.717346
    26  C    0.341784
    27  C   -0.093000
    28  C    0.079415
    29  C    0.321389
    30  C    0.248107
    31  C   -0.288551
    32  C   -0.306372
    33  N   -0.721249
    34  C    0.241500
    35  C    0.023700
    36  C    0.040085
    37  C    0.285197
    38  C   -0.379988
    39  C    0.342304
    40  O   -0.421440
    41  C   -0.325433
    42  C    0.595349
    43  O   -0.475761
    44  O   -0.428439
    45  C   -0.083793
    46  C    0.009336
    47  C   -0.158845
    48  C    0.150385
    49  C   -0.368265
    50  C   -0.226414
    51  C   -0.182967
    52  C   -0.148441
    53  C   -0.079281
    54  C   -0.302590
    55  C   -0.175341
    56  C   -0.188795
    57  C   -0.155896
    58  C   -0.059780
    59  C   -0.303504
    60  C   -0.151256
    61  C   -0.171987
    62  C   -0.152980
    63  C   -0.011650
    64  C   -0.281942
    65  C   -0.329498
    66  H    0.082397
    67  H    0.147581
    68  H    0.090202
    69  H    0.128877
    70  H    0.099896
    71  H    0.118500
    72  H    0.107735
    73  H    0.131241
    74  H    0.109880
    75  H    0.119860
    76  H    0.130717
    77  H    0.138994
    78  H    0.122946
    79  H    0.164334
    80  H    0.133674
    81  H    0.107755
    82  H    0.110803
    83  H    0.099743
    84  H    0.125264
    85  H    0.099486
    86  H    0.124544
    87  H    0.136394
    88  H    0.146102
    89  H    0.126083
    90  H    0.146925
    91  H    0.092776
    92  H    0.141473
    93  H    0.057260
    94  H    0.147474
    95  H    0.105714
    96  H    0.096626
    97  H    0.114926
    98  H    0.092250
    99  H    0.112909
   100  H    0.082848
   101  H    0.096983
   102  H    0.083387
   103  H    0.079987
   104  H    0.089789
   105  H    0.105242
   106  H    0.107986
   107  H    0.094522
   108  H    0.094942
   109  H    0.084031
   110  H    0.097477
   111  H    0.064359
   112  H    0.062807
   113  H    0.090676
   114  H    0.096855
   115  H    0.102363
   116  H    0.092336
   117  H    0.086581
   118  H    0.080039
   119  H    0.049352
   120  H    0.091867
   121  H    0.078841
   122  H    0.086792
   123  H    0.098680
   124  H    0.058544
   125  H    0.071540
   126  H    0.089465
   127  H    0.093200
   128  H    0.103330
   129  H    0.101983
   130  H    0.113273
   131  H    0.156101
   132  H    0.108937
   133  O   -0.406457
   134  H    0.075861
 Sum of Mulliken charges =   0.00000

 Dipole moment (field-independent basis, Debye):
    X=              2.2961    Y=             -4.6210    Z=             -1.7952  Tot=              5.4634
 Quadrupole moment (field-independent basis, Debye-Ang):
   XX=           -387.2772   YY=           -440.0997   ZZ=           -394.2210
   XY=              9.7752   XZ=             32.3237   YZ=            -41.2822

 Normal termination of Gaussian 09 at Mon Oct  7 23:36:36 2019.
