 Gaussian 09, Revision D.01,
 Gaussian 09:  ES64L-G09RevD.01 24-Apr-2013

 ----------------------------------------------------------------------
 # td=(NStates=1) iop(3/107=0140000000,3/108=0140000000) iop(3/107=0140
 000000,3/108=0140000000) CAM-B3LYP/6-31G(d,p)
 ----------------------------------------------------------------------

 --
 TD
 --
 Symbolic Z-matrix:
 Charge =  0 Multiplicity = 1

                         Standard orientation:
 ---------------------------------------------------------------------
 Center     Atomic      Atomic             Coordinates (Angstroms)
 Number     Number       Type             X           Y           Z
 ---------------------------------------------------------------------
      1         12           0       -5.777672    1.212634    0.291667
      2          6           0       -5.049122   -2.122118   -0.353339
      3          6           0       -3.636332    1.159467    2.714439
      4          6           0       -6.324171    4.475892    0.623169
      5          6           0       -8.084384    1.102068   -2.315004
      6          7           0       -4.456742   -0.334704    0.991804
      7          6           0       -4.276143   -1.611512    0.730904
      8          6           0       -3.262178   -2.236355    1.562694
      9          6           0       -3.042235   -1.241174    2.684423
     10          6           0       -3.686922   -0.086606    2.070514
     11          6           0       -3.572953   -1.705946    4.048331
     12          6           0       -2.082762   -2.656277    0.640853
     13          6           0       -1.074337   -3.543651    1.501023
     14          6           0        0.290807   -3.831202    0.719290
     15          8           0        0.365821   -3.311424   -0.425948
     16          8           0        1.049739   -4.701392    1.338439
     17          7           0       -5.076041    2.622478    1.529289
     18          6           0       -4.111088    2.463134    2.429602
     19          6           0       -3.767954    3.697404    3.196434
     20          6           0       -4.650069    4.604674    2.589051
     21          6           0       -5.493584    3.908210    1.508093
     22          6           0       -2.817212    3.929975    4.212997
     23          6           0       -4.723858    6.067927    2.856964
     24          8           0       -4.221125    6.525578    3.788695
     25          7           0       -6.965382    2.621716   -0.757501
     26          6           0       -7.046962    3.942832   -0.508067
     27          6           0       -7.899389    4.566396   -1.345008
     28          6           0       -8.462187    3.609576   -2.161531
     29          6           0       -7.827990    2.361721   -1.669613
     30          6           0       -8.380254    5.984786   -1.275019
     31          6           0       -9.584675    3.624515   -3.165594
     32          6           0       -8.950968    4.152150   -4.526202
     33          7           0       -6.356843   -0.155792   -1.141741
     34          6           0       -7.305160   -0.079057   -2.139773
     35          6           0       -7.606850   -1.361325   -2.698523
     36          6           0       -6.603906   -2.175103   -2.140902
     37          6           0       -5.872656   -1.413155   -1.125418
     38          6           0       -8.591909   -1.790860   -3.791653
     39          6           0       -6.148703   -3.560142   -1.936527
     40          8           0       -6.488472   -4.487351   -2.627082
     41          6           0       -5.046006   -3.555538   -0.891338
     42          6           0       -5.338659   -4.627915    0.184755
     43          8           0       -5.540902   -4.614979    1.408408
     44          8           0       -5.077284   -5.833513   -0.439662
     45          6           0       -5.173817   -7.131400    0.317215
     46          6           0        2.245192   -4.991302    0.645678
     47          6           0        3.368325   -4.026944    1.031324
     48          6           0        4.223346   -3.202153    0.264347
     49          6           0        3.795595   -3.160502   -1.265310
     50          6           0        5.280831   -2.239961    0.728563
     51          6           0        6.626631   -2.596033   -0.006591
     52          6           0        7.660898   -1.728454    0.668028
     53          6           0        9.067989   -1.860483   -0.134473
     54          6           0        9.647308   -3.203828   -0.027215
     55          6           0        9.959901   -0.810903    0.323532
     56          6           0       11.304060   -0.709404   -0.427941
     57          6           0       12.322193    0.330464    0.133125
     58          6           0       13.661080    0.489444   -0.639382
     59          6           0       14.468201   -0.771233   -0.356124
     60          6           0       14.406151    1.714975   -0.053016
     61          6           0       15.696673    2.050068   -0.934721
     62          6           0       16.248648    3.517080   -0.584119
     63          6           0       17.557953    3.732894   -1.392985
     64          6           0       17.349172    4.050514   -2.918795
     65          6           0       18.285427    5.013255   -0.652554
     66          1           0       -2.757588    1.311220    3.521720
     67          1           0       -6.822987    5.484530    0.919744
     68          1           0       -8.899922    1.379938   -3.034472
     69          1           0       -3.678030   -3.186442    2.079014
     70          1           0       -1.978917   -1.213536    2.912003
     71          1           0       -2.991670   -2.591999    4.356174
     72          1           0       -3.308550   -0.831698    4.662976
     73          1           0       -4.549076   -1.925796    4.004161
     74          1           0       -2.547330   -3.399106   -0.227855
     75          1           0       -1.603968   -1.764127    0.359336
     76          1           0       -0.976974   -3.118856    2.583736
     77          1           0       -1.390209   -4.696366    1.542071
     78          1           0       -1.688536    3.670005    3.959986
     79          1           0       -2.790942    4.910728    4.516121
     80          1           0       -2.854326    3.197067    5.116078
     81          1           0       -5.503151    6.535333    2.102994
     82          1           0       -9.885420    2.603450   -3.232810
     83          1           0      -10.448077    4.360447   -2.778701
     84          1           0       -9.677833    4.753918   -5.445438
     85          1           0       -7.994293    4.887543   -4.244327
     86          1           0       -8.596179    3.336177   -5.100486
     87          1           0       -8.478463   -1.245012   -4.749737
     88          1           0       -8.355148   -2.821411   -4.085159
     89          1           0       -9.531808   -2.000275   -3.192185
     90          1           0       -4.060894   -3.781407   -1.401162
     91          1           0        2.306978   -6.017035    1.059143
     92          1           0        2.033559   -5.024433   -0.485236
     93          1           0        3.588511   -3.857931    2.192467
     94          1           0        2.711757   -3.496119   -1.365636
     95          1           0        3.926982   -2.081282   -1.559299
     96          1           0        4.394125   -4.003984   -1.805930
     97          1           0        5.077434   -1.322426    0.595194
     98          1           0        5.329813   -2.505677    1.729161
     99          1           0        6.865492   -3.587369    0.334923
    100          1           0        6.703111   -2.539080   -0.956470
    101          1           0        7.585868   -0.704897    0.891350
    102          1           0        8.094270   -2.155798    1.680438
    103          1           0        9.099008   -1.776998   -1.162921
    104          1           0        9.088099   -4.025237   -0.579786
    105          1           0       10.673374   -3.365897   -0.558621
    106          1           0        9.987750   -3.538846    1.015909
    107          1           0        9.420873    0.226013    0.433920
    108          1           0       10.273592   -1.004921    1.385920
    109          1           0       11.706890   -1.610140   -0.100183
    110          1           0       11.267869   -0.710945   -1.470499
    111          1           0       11.768395    1.222432    0.241875
    112          1           0       12.464120    0.001382    1.104295
    113          1           0       13.456897    0.418883   -1.604086
    114          1           0       14.901770   -0.727719    0.626477
    115          1           0       14.029274   -1.658822   -0.727806
    116          1           0       15.450138   -0.742676   -1.014197
    117          1           0       13.661343    2.457823   -0.174572
    118          1           0       14.574154    1.461548    1.048324
    119          1           0       16.463426    1.357639   -0.782636
    120          1           0       15.441952    2.021389   -2.063531
    121          1           0       15.468916    4.248750   -0.770959
    122          1           0       16.543908    3.777834    0.574584
    123          1           0       18.136379    2.732278   -1.071689
    124          1           0       16.701260    5.080372   -3.030510
    125          1           0       18.234855    4.282501   -3.504263
    126          1           0       16.835398    3.248387   -3.546549
    127          1           0       18.508282    4.867590    0.334216
    128          1           0       19.274074    5.396221   -1.117816
    129          1           0       17.629262    5.915929   -0.557044
    130          1           0       -5.192730   -7.945976   -0.438759
    131          1           0       -6.124045   -6.874898    1.027164
    132          1           0       -4.173573   -7.178537    1.165029
    133          8           0       -7.849454    6.759628   -0.518809
    134          1           0       -9.233891    6.253166   -1.872150
 ---------------------------------------------------------------------

 SCF Done:  E(RCAM-B3LYP) =  -3043.39698780     A.U. after   15 cycles

 Excitation energies and oscillator strengths:

 Excited State   1:      Singlet-A      2.1341 eV  580.97 nm  f=0.1298  <S**2>=0.000
     243 -> 245       -0.13757
     243 -> 246        0.31878
     244 -> 245        0.59869
     244 -> 246        0.10787
 This state for optimization and/or second-order correction.
 Total Energy, E(TD-HF/TD-KS) =  -3043.31856200
 Copying the excited state density for this state as the 1-particle RhoCI density.

 The electronic state is 1-A.
 Alpha  occ. eigenvalues --  -46.82073 -19.24691 -19.21489 -19.18025 -19.17573
 Alpha  occ. eigenvalues --  -19.17325 -19.17221 -19.16077 -14.38694 -14.36613
 Alpha  occ. eigenvalues --  -14.35719 -14.35629 -10.35959 -10.35862 -10.30550
 Alpha  occ. eigenvalues --  -10.30404 -10.30288 -10.30099 -10.29381 -10.27035
 Alpha  occ. eigenvalues --  -10.26947 -10.26667 -10.26055 -10.25766 -10.25675
 Alpha  occ. eigenvalues --  -10.25656 -10.24981 -10.24813 -10.24758 -10.24738
 Alpha  occ. eigenvalues --  -10.24628 -10.24579 -10.24520 -10.24512 -10.24346
 Alpha  occ. eigenvalues --  -10.24242 -10.24071 -10.23388 -10.23379 -10.23353
 Alpha  occ. eigenvalues --  -10.23242 -10.23018 -10.22992 -10.22947 -10.22942
 Alpha  occ. eigenvalues --  -10.22737 -10.22384 -10.22264 -10.22110 -10.21850
 Alpha  occ. eigenvalues --  -10.21696 -10.21667 -10.21469 -10.21458 -10.21427
 Alpha  occ. eigenvalues --  -10.21380 -10.21087 -10.21002 -10.20863 -10.20647
 Alpha  occ. eigenvalues --  -10.20398 -10.20358 -10.20006 -10.19684 -10.19110
 Alpha  occ. eigenvalues --  -10.18916  -3.10535  -1.85481  -1.85014  -1.84924
 Alpha  occ. eigenvalues --   -1.16026  -1.11159  -1.10756  -1.07830  -1.06906
 Alpha  occ. eigenvalues --   -1.03975  -1.02978  -1.02719  -1.01966  -1.00086
 Alpha  occ. eigenvalues --   -0.99094  -0.88803  -0.86960  -0.86251  -0.85262
 Alpha  occ. eigenvalues --   -0.84879  -0.84264  -0.84214  -0.83620  -0.83175
 Alpha  occ. eigenvalues --   -0.82348  -0.81847  -0.81499  -0.80519  -0.79039
 Alpha  occ. eigenvalues --   -0.78441  -0.77755  -0.76786  -0.76144  -0.75876
 Alpha  occ. eigenvalues --   -0.74762  -0.74483  -0.73837  -0.72401  -0.71507
 Alpha  occ. eigenvalues --   -0.71477  -0.70434  -0.70382  -0.69526  -0.69253
 Alpha  occ. eigenvalues --   -0.68899  -0.68816  -0.67406  -0.66573  -0.66142
 Alpha  occ. eigenvalues --   -0.65399  -0.65187  -0.63564  -0.63343  -0.62191
 Alpha  occ. eigenvalues --   -0.61620  -0.61359  -0.60292  -0.59960  -0.59830
 Alpha  occ. eigenvalues --   -0.59112  -0.58349  -0.57992  -0.57572  -0.57353
 Alpha  occ. eigenvalues --   -0.56078  -0.55930  -0.55693  -0.54533  -0.54106
 Alpha  occ. eigenvalues --   -0.53445  -0.53221  -0.52672  -0.52414  -0.52301
 Alpha  occ. eigenvalues --   -0.52020  -0.51569  -0.51097  -0.50721  -0.50152
 Alpha  occ. eigenvalues --   -0.49972  -0.49730  -0.49498  -0.48967  -0.48827
 Alpha  occ. eigenvalues --   -0.48410  -0.48074  -0.48055  -0.47858  -0.47652
 Alpha  occ. eigenvalues --   -0.47617  -0.47317  -0.47194  -0.46959  -0.46780
 Alpha  occ. eigenvalues --   -0.46719  -0.46551  -0.46301  -0.45993  -0.45896
 Alpha  occ. eigenvalues --   -0.45765  -0.45302  -0.45153  -0.44896  -0.44645
 Alpha  occ. eigenvalues --   -0.44190  -0.43999  -0.43926  -0.43860  -0.43790
 Alpha  occ. eigenvalues --   -0.43367  -0.43338  -0.42933  -0.42796  -0.42563
 Alpha  occ. eigenvalues --   -0.42330  -0.42060  -0.41971  -0.41674  -0.41501
 Alpha  occ. eigenvalues --   -0.41351  -0.41162  -0.41112  -0.41034  -0.40928
 Alpha  occ. eigenvalues --   -0.40471  -0.40191  -0.40094  -0.39947  -0.39678
 Alpha  occ. eigenvalues --   -0.39480  -0.39298  -0.39240  -0.39047  -0.39014
 Alpha  occ. eigenvalues --   -0.38896  -0.38790  -0.38428  -0.38199  -0.38011
 Alpha  occ. eigenvalues --   -0.37713  -0.37589  -0.37529  -0.37303  -0.37045
 Alpha  occ. eigenvalues --   -0.36850  -0.36840  -0.36615  -0.36576  -0.35886
 Alpha  occ. eigenvalues --   -0.35509  -0.35007  -0.34716  -0.34448  -0.34437
 Alpha  occ. eigenvalues --   -0.34286  -0.34119  -0.34075  -0.33937  -0.33853
 Alpha  occ. eigenvalues --   -0.33587  -0.33349  -0.32157  -0.31755  -0.31100
 Alpha  occ. eigenvalues --   -0.31067  -0.30788  -0.29918  -0.29754  -0.29545
 Alpha  occ. eigenvalues --   -0.28266  -0.28071  -0.27461  -0.27391  -0.27138
 Alpha  occ. eigenvalues --   -0.26761  -0.26435  -0.22255  -0.20879
 Alpha virt. eigenvalues --   -0.07141  -0.06051  -0.01377  -0.00275   0.00941
 Alpha virt. eigenvalues --    0.01887   0.02483   0.02710   0.03221   0.04650
 Alpha virt. eigenvalues --    0.05486   0.05987   0.07803   0.08188   0.09345

 Mulliken charges:
               1
     1  Mg   0.837385
     2  C    0.026896
     3  C   -0.213822
     4  C   -0.189241
     5  C   -0.141980
     6  N   -0.616748
     7  C    0.356842
     8  C   -0.189723
     9  C   -0.150195
    10  C    0.357858
    11  C   -0.292895
    12  C   -0.132430
    13  C   -0.267747
    14  C    0.591451
    15  O   -0.480610
    16  O   -0.408500
    17  N   -0.711591
    18  C    0.280312
    19  C    0.133313
    20  C   -0.093196
    21  C    0.348072
    22  C   -0.420081
    23  C    0.253941
    24  O   -0.373863
    25  N   -0.665735
    26  C    0.261120
    27  C   -0.015555
    28  C   -0.011011
    29  C    0.284117
    30  C    0.256610
    31  C   -0.237812
    32  C   -0.289593
    33  N   -0.729057
    34  C    0.254059
    35  C    0.021149
    36  C   -0.011268
    37  C    0.321374
    38  C   -0.386245
    39  C    0.364895
    40  O   -0.448026
    41  C   -0.318041
    42  C    0.609236
    43  O   -0.480745
    44  O   -0.457477
    45  C   -0.068044
    46  C   -0.015921
    47  C   -0.128850
    48  C    0.089951
    49  C   -0.365813
    50  C   -0.210487
    51  C   -0.169475
    52  C   -0.183438
    53  C   -0.042769
    54  C   -0.323130
    55  C   -0.180685
    56  C   -0.205504
    57  C   -0.177765
    58  C   -0.055076
    59  C   -0.312723
    60  C   -0.165180
    61  C   -0.188666
    62  C   -0.160843
    63  C   -0.030762
    64  C   -0.305762
    65  C   -0.333408
    66  H    0.056033
    67  H    0.131085
    68  H    0.071724
    69  H    0.130659
    70  H    0.107047
    71  H    0.107942
    72  H    0.112692
    73  H    0.134782
    74  H    0.097532
    75  H    0.133042
    76  H    0.112353
    77  H    0.117241
    78  H    0.111620
    79  H    0.165073
    80  H    0.119311
    81  H    0.061265
    82  H    0.122173
    83  H    0.107769
    84  H    0.066417
    85  H    0.100274
    86  H    0.130284
    87  H    0.133902
    88  H    0.153540
    89  H    0.134118
    90  H    0.179885
    91  H    0.121252
    92  H    0.129250
    93  H    0.058150
    94  H    0.139526
    95  H    0.106604
    96  H    0.103877
    97  H    0.124262
    98  H    0.110634
    99  H    0.119432
   100  H    0.116665
   101  H    0.100372
   102  H    0.080436
   103  H    0.092749
   104  H    0.094799
   105  H    0.090330
   106  H    0.087997
   107  H    0.065109
   108  H    0.074792
   109  H    0.112037
   110  H    0.087082
   111  H    0.082221
   112  H    0.088875
   113  H    0.086986
   114  H    0.103393
   115  H    0.107577
   116  H    0.067614
   117  H    0.099129
   118  H    0.088343
   119  H    0.107003
   120  H    0.090848
   121  H    0.095789
   122  H    0.065476
   123  H    0.075705
   124  H    0.083408
   125  H    0.113937
   126  H    0.096895
   127  H    0.113557
   128  H    0.083544
   129  H    0.096296
   130  H    0.150425
   131  H    0.138511
   132  H    0.088315
   133  O   -0.409150
   134  H    0.081095
 Sum of Mulliken charges =   0.00000

 Dipole moment (field-independent basis, Debye):
    X=              2.8693    Y=             -4.6429    Z=             -0.0421  Tot=              5.4581
 Quadrupole moment (field-independent basis, Debye-Ang):
   XX=           -379.7997   YY=           -430.2358   ZZ=           -396.0663
   XY=              3.7922   XZ=             14.0522   YZ=            -26.0292

 Normal termination of Gaussian 09 at Wed Oct  9 05:08:44 2019.
