 Gaussian 09, Revision D.01,
 Gaussian 09:  ES64L-G09RevD.01 24-Apr-2013

 ----------------------------------------------------------------------
 # td=(NStates=1) iop(3/107=0140000000,3/108=0140000000) iop(3/107=0140
 000000,3/108=0140000000) CAM-B3LYP/6-31G(d,p)
 ----------------------------------------------------------------------

 --
 TD
 --
 Symbolic Z-matrix:
 Charge =  0 Multiplicity = 1

                         Standard orientation:
 ---------------------------------------------------------------------
 Center     Atomic      Atomic             Coordinates (Angstroms)
 Number     Number       Type             X           Y           Z
 ---------------------------------------------------------------------
      1         12           0       -5.643307    1.246440    0.247465
      2          6           0       -4.909805   -2.139368   -0.326373
      3          6           0       -3.346763    1.219680    2.893159
      4          6           0       -6.203625    4.594537    0.582569
      5          6           0       -7.938751    1.143746   -2.339057
      6          7           0       -4.300246   -0.268048    1.069888
      7          6           0       -4.227121   -1.610833    0.721473
      8          6           0       -3.122859   -2.347898    1.480067
      9          6           0       -2.885712   -1.291493    2.698002
     10          6           0       -3.561460   -0.000286    2.182335
     11          6           0       -3.480363   -1.732209    3.906084
     12          6           0       -1.952004   -2.671860    0.688034
     13          6           0       -0.865881   -3.466070    1.542445
     14          6           0        0.244338   -3.790987    0.609635
     15          8           0        0.434511   -3.370666   -0.479782
     16          8           0        1.070553   -4.770846    1.226568
     17          7           0       -4.925674    2.637070    1.420626
     18          6           0       -3.966572    2.457267    2.410726
     19          6           0       -3.642584    3.664517    3.097166
     20          6           0       -4.450298    4.713783    2.435494
     21          6           0       -5.272644    3.999310    1.476270
     22          6           0       -2.685317    3.897728    4.190820
     23          6           0       -4.559361    6.146560    2.787593
     24          8           0       -4.086110    6.747759    3.745128
     25          7           0       -6.828950    2.581058   -0.626034
     26          6           0       -6.866108    3.906118   -0.436898
     27          6           0       -7.933808    4.644768   -1.061837
     28          6           0       -8.398926    3.630412   -2.025770
     29          6           0       -7.645396    2.346268   -1.625751
     30          6           0       -8.286218    5.966256   -1.177726
     31          6           0       -9.297889    3.806098   -3.181874
     32          6           0       -8.762812    3.965273   -4.550546
     33          7           0       -6.324046   -0.162596   -1.149096
     34          6           0       -7.231885    0.047297   -2.120082
     35          6           0       -7.378826   -1.295991   -2.761333
     36          6           0       -6.653256   -2.167962   -2.115483
     37          6           0       -5.943939   -1.377091   -1.047379
     38          6           0       -8.436608   -1.697227   -3.824593
     39          6           0       -6.177222   -3.552249   -1.991344
     40          8           0       -6.589570   -4.553382   -2.485350
     41          6           0       -4.899979   -3.562995   -0.854442
     42          6           0       -5.265915   -4.641941    0.186249
     43          8           0       -5.687211   -4.506134    1.253302
     44          8           0       -5.013034   -5.871607   -0.349718
     45          6           0       -5.407903   -7.071639    0.377159
     46          6           0        2.279889   -5.162819    0.641664
     47          6           0        3.520331   -4.353540    0.988424
     48          6           0        4.008744   -3.328707    0.216893
     49          6           0        3.576818   -3.224728   -1.267078
     50          6           0        5.024429   -2.354873    0.731107
     51          6           0        6.323866   -2.722857    0.145623
     52          6           0        7.624011   -1.950388    0.676088
     53          6           0        8.932423   -2.051681   -0.057255
     54          6           0        9.594627   -3.320171    0.223296
     55          6           0        9.837898   -0.847637    0.378258
     56          6           0       11.299911   -0.892098   -0.318847
     57          6           0       12.128627    0.226028    0.110229
     58          6           0       13.417597    0.499105   -0.717268
     59          6           0       14.435068   -0.705219   -0.348743
     60          6           0       13.996000    1.814732   -0.327441
     61          6           0       15.347307    2.249176   -0.959561
     62          6           0       15.812891    3.654324   -0.625495
     63          6           0       17.199318    3.910779   -1.303516
     64          6           0       17.265049    3.893115   -2.846774
     65          6           0       17.896679    5.184903   -0.778224
     66          1           0       -2.712631    1.153349    3.733910
     67          1           0       -6.462379    5.568211    0.793956
     68          1           0       -8.876096    1.178385   -3.072805
     69          1           0       -3.500345   -3.348937    1.924156
     70          1           0       -1.905264   -1.132351    2.761873
     71          1           0       -2.885840   -2.639426    4.383292
     72          1           0       -3.518805   -0.940822    4.720646
     73          1           0       -4.377035   -2.214347    3.718139
     74          1           0       -2.447595   -3.286541    0.006765
     75          1           0       -1.650121   -1.587709    0.307829
     76          1           0       -0.516900   -2.751967    2.396748
     77          1           0       -1.482819   -4.389961    1.754323
     78          1           0       -1.528358    3.827390    4.149005
     79          1           0       -2.639900    4.988380    4.560044
     80          1           0       -2.913804    3.414043    5.051579
     81          1           0       -5.316449    6.581285    1.956326
     82          1           0       -9.797832    2.656068   -3.077959
     83          1           0      -10.176324    4.487715   -3.188355
     84          1           0       -9.783001    3.967383   -5.225544
     85          1           0       -8.068272    4.951410   -4.730828
     86          1           0       -8.027831    3.090607   -4.671845
     87          1           0       -8.531172   -0.887493   -4.783082
     88          1           0       -8.261188   -2.646409   -4.260270
     89          1           0       -9.482501   -1.630091   -3.584039
     90          1           0       -4.158262   -3.963903   -1.467029
     91          1           0        2.276905   -6.253038    0.762937
     92          1           0        2.002349   -4.866222   -0.446048
     93          1           0        3.791606   -4.580907    2.103714
     94          1           0        2.389331   -3.452274   -1.454894
     95          1           0        3.671067   -2.072660   -1.764698
     96          1           0        4.140795   -3.804808   -1.931500
     97          1           0        4.821862   -1.448914    0.488633
     98          1           0        5.193430   -2.534034    1.909340
     99          1           0        6.493574   -3.807675   -0.027656
    100          1           0        6.482117   -2.429897   -1.038545
    101          1           0        7.351441   -0.887919    0.937747
    102          1           0        7.867223   -2.117166    1.735849
    103          1           0        8.746143   -1.855220   -1.072269
    104          1           0        8.836837   -4.117060    0.108042
    105          1           0       10.434566   -3.734614   -0.522849
    106          1           0       10.018861   -3.515497    1.167877
    107          1           0        9.283333    0.048507    0.163198
    108          1           0        9.974503   -0.732189    1.520053
    109          1           0       11.751491   -1.683188   -0.107767
    110          1           0       10.994093   -0.811668   -1.257851
    111          1           0       11.619635    1.187092    0.027024
    112          1           0       12.250038   -0.089723    1.219176
    113          1           0       13.146490    0.465274   -1.876821
    114          1           0       14.777601   -0.830114    0.709598
    115          1           0       13.817109   -1.670435   -0.606357
    116          1           0       15.337307   -0.797125   -1.071913
    117          1           0       13.252918    2.607917   -0.465998
    118          1           0       14.156318    1.682530    0.980481
    119          1           0       16.239974    1.668151   -0.704400
    120          1           0       15.320313    2.090950   -2.076408
    121          1           0       15.113261    4.540384   -0.806537
    122          1           0       15.944633    3.755657    0.466207
    123          1           0       17.898115    3.216005   -0.738512
    124          1           0       16.671533    4.654889   -3.464292
    125          1           0       18.371526    4.090022   -3.167463
    126          1           0       16.884800    2.985650   -3.256631
    127          1           0       17.926558    5.188054    0.332828
    128          1           0       18.879652    5.250926   -1.347599
    129          1           0       17.285924    5.887716   -1.108696
    130          1           0       -5.128050   -7.967962   -0.334196
    131          1           0       -6.460120   -6.931914    0.345579
    132          1           0       -5.108832   -7.057711    1.454777
    133          8           0       -7.748833    6.822208   -0.450923
    134          1           0       -9.015946    6.343823   -1.908116
 ---------------------------------------------------------------------

 SCF Done:  E(RCAM-B3LYP) =  -3043.39172138     A.U. after   17 cycles

 Excitation energies and oscillator strengths:

 Excited State   1:      Singlet-A      1.9935 eV  621.95 nm  f=0.1815  <S**2>=0.000
     243 -> 245       -0.10565
     243 -> 246        0.22906
     244 -> 245        0.64746
 This state for optimization and/or second-order correction.
 Total Energy, E(TD-HF/TD-KS) =  -3043.31846263
 Copying the excited state density for this state as the 1-particle RhoCI density.

 The electronic state is 1-A.
 Alpha  occ. eigenvalues --  -46.81950 -19.21253 -19.20473 -19.19040 -19.19034
 Alpha  occ. eigenvalues --  -19.17702 -19.17432 -19.16152 -14.39147 -14.38457
 Alpha  occ. eigenvalues --  -14.37817 -14.37312 -10.35626 -10.34828 -10.33139
 Alpha  occ. eigenvalues --  -10.30918 -10.29674 -10.28092 -10.27768 -10.27683
 Alpha  occ. eigenvalues --  -10.27610 -10.27459 -10.27174 -10.26848 -10.26631
 Alpha  occ. eigenvalues --  -10.26596 -10.26479 -10.26021 -10.25983 -10.25857
 Alpha  occ. eigenvalues --  -10.25773 -10.25498 -10.25306 -10.25191 -10.24841
 Alpha  occ. eigenvalues --  -10.24619 -10.24307 -10.24080 -10.23996 -10.23534
 Alpha  occ. eigenvalues --  -10.23530 -10.23320 -10.23158 -10.23029 -10.22973
 Alpha  occ. eigenvalues --  -10.22923 -10.22769 -10.22699 -10.22429 -10.22399
 Alpha  occ. eigenvalues --  -10.22245 -10.21759 -10.21718 -10.21701 -10.21696
 Alpha  occ. eigenvalues --  -10.21499 -10.21257 -10.21071 -10.20996 -10.20981
 Alpha  occ. eigenvalues --  -10.20943 -10.20875 -10.20245 -10.20185 -10.18981
 Alpha  occ. eigenvalues --  -10.17571  -3.10685  -1.85609  -1.85165  -1.85102
 Alpha  occ. eigenvalues --   -1.14586  -1.13352  -1.09928  -1.05945  -1.05899
 Alpha  occ. eigenvalues --   -1.05886  -1.05312  -1.03508  -1.02226  -0.99341
 Alpha  occ. eigenvalues --   -0.97968  -0.88335  -0.86961  -0.86285  -0.85777
 Alpha  occ. eigenvalues --   -0.85311  -0.85286  -0.84864  -0.84172  -0.83912
 Alpha  occ. eigenvalues --   -0.83077  -0.82513  -0.82149  -0.80756  -0.80164
 Alpha  occ. eigenvalues --   -0.79537  -0.78708  -0.77630  -0.77257  -0.76085
 Alpha  occ. eigenvalues --   -0.75512  -0.74925  -0.73247  -0.73042  -0.72327
 Alpha  occ. eigenvalues --   -0.71021  -0.70746  -0.70014  -0.69928  -0.69604
 Alpha  occ. eigenvalues --   -0.69268  -0.68412  -0.67765  -0.66739  -0.65975
 Alpha  occ. eigenvalues --   -0.65736  -0.65157  -0.64551  -0.62577  -0.62306
 Alpha  occ. eigenvalues --   -0.61509  -0.61341  -0.60657  -0.59887  -0.59071
 Alpha  occ. eigenvalues --   -0.58339  -0.58237  -0.58073  -0.56994  -0.56749
 Alpha  occ. eigenvalues --   -0.56679  -0.55907  -0.55707  -0.55062  -0.54744
 Alpha  occ. eigenvalues --   -0.54367  -0.54135  -0.53885  -0.53432  -0.53265
 Alpha  occ. eigenvalues --   -0.52074  -0.51866  -0.51519  -0.51117  -0.50522
 Alpha  occ. eigenvalues --   -0.50501  -0.50257  -0.49770  -0.49437  -0.49316
 Alpha  occ. eigenvalues --   -0.49101  -0.48829  -0.48719  -0.48209  -0.47989
 Alpha  occ. eigenvalues --   -0.47899  -0.47831  -0.47642  -0.47453  -0.47200
 Alpha  occ. eigenvalues --   -0.47045  -0.46854  -0.46624  -0.46268  -0.46004
 Alpha  occ. eigenvalues --   -0.45727  -0.45570  -0.45218  -0.44975  -0.44804
 Alpha  occ. eigenvalues --   -0.44535  -0.44363  -0.44311  -0.44074  -0.44014
 Alpha  occ. eigenvalues --   -0.43673  -0.43618  -0.43431  -0.43335  -0.43185
 Alpha  occ. eigenvalues --   -0.42989  -0.42744  -0.42637  -0.42418  -0.42143
 Alpha  occ. eigenvalues --   -0.42048  -0.41930  -0.41553  -0.41310  -0.41064
 Alpha  occ. eigenvalues --   -0.40928  -0.40806  -0.40672  -0.40465  -0.40161
 Alpha  occ. eigenvalues --   -0.39993  -0.39613  -0.39490  -0.39391  -0.39142
 Alpha  occ. eigenvalues --   -0.38812  -0.38768  -0.38497  -0.38345  -0.38062
 Alpha  occ. eigenvalues --   -0.37644  -0.37530  -0.37291  -0.36817  -0.36398
 Alpha  occ. eigenvalues --   -0.36211  -0.35970  -0.35936  -0.35737  -0.35513
 Alpha  occ. eigenvalues --   -0.35304  -0.35097  -0.34556  -0.34502  -0.34155
 Alpha  occ. eigenvalues --   -0.33805  -0.33575  -0.33457  -0.32908  -0.32869
 Alpha  occ. eigenvalues --   -0.32473  -0.32112  -0.31841  -0.31717  -0.31635
 Alpha  occ. eigenvalues --   -0.31457  -0.31380  -0.30986  -0.30758  -0.30413
 Alpha  occ. eigenvalues --   -0.30043  -0.28624  -0.28376  -0.27749  -0.27396
 Alpha  occ. eigenvalues --   -0.27271  -0.26999  -0.23618  -0.21726
 Alpha virt. eigenvalues --   -0.08955  -0.06995  -0.01734  -0.01442   0.00361
 Alpha virt. eigenvalues --    0.02003   0.02844   0.03565   0.03762   0.04023
 Alpha virt. eigenvalues --    0.04732   0.05336   0.06492   0.07756   0.08415

 Mulliken charges:
               1
     1  Mg   0.848707
     2  C    0.075603
     3  C   -0.163704
     4  C   -0.152161
     5  C   -0.165321
     6  N   -0.639362
     7  C    0.321483
     8  C   -0.191247
     9  C   -0.121574
    10  C    0.326156
    11  C   -0.299458
    12  C   -0.142141
    13  C   -0.263053
    14  C    0.615675
    15  O   -0.422395
    16  O   -0.489042
    17  N   -0.733321
    18  C    0.309840
    19  C    0.057380
    20  C   -0.026540
    21  C    0.281421
    22  C   -0.426183
    23  C    0.256690
    24  O   -0.419811
    25  N   -0.676074
    26  C    0.271217
    27  C    0.037919
    28  C   -0.012284
    29  C    0.317548
    30  C    0.213617
    31  C   -0.249985
    32  C   -0.268330
    33  N   -0.717137
    34  C    0.318847
    35  C   -0.047437
    36  C    0.088765
    37  C    0.286423
    38  C   -0.377822
    39  C    0.340274
    40  O   -0.410547
    41  C   -0.335672
    42  C    0.604441
    43  O   -0.434037
    44  O   -0.471799
    45  C   -0.091133
    46  C    0.011802
    47  C   -0.120965
    48  C    0.113745
    49  C   -0.376148
    50  C   -0.180532
    51  C   -0.176615
    52  C   -0.183703
    53  C   -0.035210
    54  C   -0.303697
    55  C   -0.211403
    56  C   -0.147517
    57  C   -0.163130
    58  C   -0.047930
    59  C   -0.315391
    60  C   -0.134545
    61  C   -0.169595
    62  C   -0.171114
    63  C   -0.064328
    64  C   -0.314087
    65  C   -0.305556
    66  H    0.096779
    67  H    0.134351
    68  H    0.115525
    69  H    0.101235
    70  H    0.093730
    71  H    0.082335
    72  H    0.103038
    73  H    0.138236
    74  H    0.117637
    75  H    0.102881
    76  H    0.147077
    77  H    0.144964
    78  H    0.115407
    79  H    0.151189
    80  H    0.135925
    81  H    0.057724
    82  H    0.071232
    83  H    0.122768
    84  H    0.099324
    85  H    0.102843
    86  H    0.105290
    87  H    0.077303
    88  H    0.148152
    89  H    0.142127
    90  H    0.164603
    91  H    0.105255
    92  H    0.086407
    93  H    0.075853
    94  H    0.147885
    95  H    0.070511
    96  H    0.138450
    97  H    0.113914
    98  H    0.091267
    99  H    0.106178
   100  H    0.060421
   101  H    0.075340
   102  H    0.083272
   103  H    0.091990
   104  H    0.093417
   105  H    0.078652
   106  H    0.114822
   107  H    0.090487
   108  H    0.066356
   109  H    0.105235
   110  H    0.095643
   111  H    0.079324
   112  H    0.076997
   113  H    0.070290
   114  H    0.108885
   115  H    0.083002
   116  H    0.090366
   117  H    0.091892
   118  H    0.036961
   119  H    0.101816
   120  H    0.083300
   121  H    0.074586
   122  H    0.089261
   123  H    0.085689
   124  H    0.097659
   125  H    0.090536
   126  H    0.110593
   127  H    0.093117
   128  H    0.088974
   129  H    0.113564
   130  H    0.128877
   131  H    0.141774
   132  H    0.131669
   133  O   -0.440095
   134  H    0.079414
 Sum of Mulliken charges =   0.00000

 Dipole moment (field-independent basis, Debye):
    X=             -0.5179    Y=             -5.4615    Z=             -2.2386  Tot=              5.9252
 Quadrupole moment (field-independent basis, Debye-Ang):
   XX=           -377.0488   YY=           -447.8872   ZZ=           -393.9929
   XY=             15.9659   XZ=             27.2433   YZ=            -33.5236

 Normal termination of Gaussian 09 at Wed Oct  9 06:43:22 2019.
