 Gaussian 09, Revision D.01,
 Gaussian 09:  ES64L-G09RevD.01 24-Apr-2013

 ----------------------------------------------------------------------
 # td=(NStates=1) iop(3/107=0140000000,3/108=0140000000) iop(3/107=0140
 000000,3/108=0140000000) CAM-B3LYP/6-31G(d,p)
 ----------------------------------------------------------------------

 --
 TD
 --
 Symbolic Z-matrix:
 Charge =  0 Multiplicity = 1

                         Standard orientation:
 ---------------------------------------------------------------------
 Center     Atomic      Atomic             Coordinates (Angstroms)
 Number     Number       Type             X           Y           Z
 ---------------------------------------------------------------------
      1         12           0       -5.777715    1.264948    0.228539
      2          6           0       -5.082662   -2.101981   -0.300587
      3          6           0       -3.582865    1.100795    2.871943
      4          6           0       -6.276262    4.484094    0.603171
      5          6           0       -8.054570    1.081596   -2.385146
      6          7           0       -4.458741   -0.253127    1.074206
      7          6           0       -4.317014   -1.583069    0.726605
      8          6           0       -3.330227   -2.305270    1.515392
      9          6           0       -3.104119   -1.286440    2.660302
     10          6           0       -3.736081   -0.073396    2.230978
     11          6           0       -3.592573   -1.852418    3.980562
     12          6           0       -2.022001   -2.557681    0.729530
     13          6           0       -1.117528   -3.595338    1.392740
     14          6           0        0.246011   -3.793671    0.705742
     15          8           0        0.412518   -3.410721   -0.446052
     16          8           0        1.148178   -4.528608    1.340486
     17          7           0       -4.999514    2.543926    1.508032
     18          6           0       -4.144933    2.340490    2.489628
     19          6           0       -3.836335    3.601895    3.147276
     20          6           0       -4.570414    4.536156    2.575536
     21          6           0       -5.448789    3.849617    1.580740
     22          6           0       -2.868858    3.858919    4.229531
     23          6           0       -4.728990    6.096823    2.870604
     24          8           0       -4.082391    6.648971    3.699948
     25          7           0       -6.949763    2.614372   -0.674943
     26          6           0       -7.030365    3.866102   -0.488725
     27          6           0       -7.971989    4.519913   -1.354276
     28          6           0       -8.547712    3.515947   -2.069200
     29          6           0       -7.805686    2.331675   -1.724800
     30          6           0       -8.376904    5.915520   -1.241172
     31          6           0       -9.534426    3.713543   -3.136823
     32          6           0       -8.984965    3.884833   -4.589222
     33          7           0       -6.370034   -0.096283   -1.220758
     34          6           0       -7.332466   -0.111598   -2.188180
     35          6           0       -7.497393   -1.392060   -2.843427
     36          6           0       -6.559307   -2.241766   -2.104742
     37          6           0       -5.962103   -1.414975   -1.071449
     38          6           0       -8.505827   -1.795973   -3.845860
     39          6           0       -6.164115   -3.602146   -2.112184
     40          8           0       -6.412033   -4.564383   -2.765552
     41          6           0       -4.967962   -3.527049   -0.884825
     42          6           0       -5.179555   -4.623999    0.192404
     43          8           0       -5.703968   -4.382371    1.208379
     44          8           0       -4.873258   -5.860526   -0.372333
     45          6           0       -5.333037   -6.943925    0.546754
     46          6           0        2.420015   -4.853434    0.598965
     47          6           0        3.520204   -3.840428    0.945852
     48          6           0        4.072823   -2.926547    0.115322
     49          6           0        3.686960   -2.892733   -1.360660
     50          6           0        5.141342   -2.124795    0.599320
     51          6           0        6.534197   -2.598030    0.068382
     52          6           0        7.722338   -1.698914    0.631739
     53          6           0        9.128135   -2.016357    0.122433
     54          6           0        9.756779   -3.337990    0.485345
     55          6           0       10.081000   -0.848736    0.573131
     56          6           0       11.448648   -0.952180   -0.107823
     57          6           0       12.335503    0.368114    0.171387
     58          6           0       13.620804    0.474809   -0.566028
     59          6           0       14.480549   -0.826899   -0.494564
     60          6           0       14.308164    1.795816   -0.108738
     61          6           0       15.444389    2.177214   -1.050887
     62          6           0       16.105165    3.551409   -0.756901
     63          6           0       17.548105    3.752143   -1.309349
     64          6           0       17.407466    3.764009   -2.966830
     65          6           0       18.184808    5.093126   -0.941727
     66          1           0       -2.971108    1.049111    3.773099
     67          1           0       -6.363092    5.585551    0.550703
     68          1           0       -8.931781    1.168488   -3.220057
     69          1           0       -3.647772   -3.304357    1.979970
     70          1           0       -2.075713   -1.049018    2.869284
     71          1           0       -3.314839   -2.784007    4.385824
     72          1           0       -3.364304   -1.219794    4.895379
     73          1           0       -4.704327   -1.946392    3.918976
     74          1           0       -2.160564   -3.126515   -0.201987
     75          1           0       -1.815540   -1.575366    0.464684
     76          1           0       -0.747142   -3.315492    2.380897
     77          1           0       -1.564043   -4.445500    1.511766
     78          1           0       -1.936595    3.886851    3.703018
     79          1           0       -2.965387    4.955203    4.550027
     80          1           0       -2.991648    3.233520    5.150707
     81          1           0       -5.589521    6.509419    2.307282
     82          1           0      -10.120566    2.708920   -3.119985
     83          1           0      -10.152675    4.530050   -2.608953
     84          1           0       -9.707787    3.725786   -5.429838
     85          1           0       -8.447653    4.778336   -4.640005
     86          1           0       -8.147728    3.043658   -4.789988
     87          1           0       -8.471665   -1.182675   -4.746050
     88          1           0       -8.566991   -2.853450   -3.903866
     89          1           0       -9.536133   -1.528942   -3.550490
     90          1           0       -4.161956   -3.774634   -1.404901
     91          1           0        2.828579   -5.885223    1.009597
     92          1           0        2.260362   -4.860065   -0.510942
     93          1           0        3.988560   -4.069329    1.901957
     94          1           0        2.811012   -3.354391   -1.409232
     95          1           0        3.577889   -1.966499   -1.733014
     96          1           0        4.447826   -3.595587   -1.945389
     97          1           0        5.079904   -1.032008    0.402521
     98          1           0        5.062143   -2.050097    1.772923
     99          1           0        6.833341   -3.667982    0.247252
    100          1           0        6.545513   -2.408719   -0.950522
    101          1           0        7.527008   -0.630674    0.381648
    102          1           0        7.852582   -1.555409    1.863317
    103          1           0        9.253552   -1.989463   -0.976813
    104          1           0        9.309949   -4.230525   -0.118911
    105          1           0       10.814005   -3.579004    0.187160
    106          1           0        9.794195   -3.751940    1.452627
    107          1           0        9.760531    0.234054    0.321251
    108          1           0       10.221818   -0.775982    1.700604
    109          1           0       11.956774   -1.821782    0.349389
    110          1           0       11.313678   -0.897453   -1.170970
    111          1           0       11.868799    1.314863    0.009843
    112          1           0       12.657370    0.252070    1.220729
    113          1           0       13.237645    0.731515   -1.604762
    114          1           0       14.599157   -1.016680    0.552543
    115          1           0       13.938565   -1.760834   -0.807773
    116          1           0       15.472724   -0.684582   -1.068470
    117          1           0       13.837251    2.626554    0.168665
    118          1           0       14.969432    1.587722    0.917320
    119          1           0       16.221512    1.325635   -1.057604
    120          1           0       15.038781    2.259321   -2.103861
    121          1           0       15.573092    4.358961   -1.074416
    122          1           0       16.180328    3.683322    0.345541
    123          1           0       18.131270    2.956313   -1.038916
    124          1           0       16.698170    4.608798   -3.294695
    125          1           0       18.500678    3.920065   -3.319052
    126          1           0       17.023973    2.974478   -3.470037
    127          1           0       18.642214    4.907994    0.253657
    128          1           0       19.140883    5.125809   -1.373091
    129          1           0       17.752269    5.805835   -1.186159
    130          1           0       -5.088670   -7.970332   -0.049832
    131          1           0       -6.377226   -6.828304    0.694009
    132          1           0       -5.003998   -6.783970    1.438601
    133          8           0       -7.927437    6.674788   -0.385308
    134          1           0       -9.263077    6.237410   -1.680093
 ---------------------------------------------------------------------

 SCF Done:  E(RCAM-B3LYP) =  -3043.47889632     A.U. after   15 cycles

 Excitation energies and oscillator strengths:

 Excited State   1:      Singlet-A      2.1036 eV  589.40 nm  f=0.1614  <S**2>=0.000
     243 -> 246        0.28655
     244 -> 245        0.62964
 This state for optimization and/or second-order correction.
 Total Energy, E(TD-HF/TD-KS) =  -3043.40159182
 Copying the excited state density for this state as the 1-particle RhoCI density.

 The electronic state is 1-A.
 Alpha  occ. eigenvalues --  -46.81090 -19.22459 -19.21646 -19.18778 -19.17386
 Alpha  occ. eigenvalues --  -19.17227 -19.16884 -19.15576 -14.38163 -14.36820
 Alpha  occ. eigenvalues --  -14.36675 -14.36263 -10.34340 -10.33949 -10.31739
 Alpha  occ. eigenvalues --  -10.30784 -10.29846 -10.29037 -10.26631 -10.26473
 Alpha  occ. eigenvalues --  -10.26419 -10.26353 -10.26099 -10.25844 -10.25795
 Alpha  occ. eigenvalues --  -10.25750 -10.25749 -10.25471 -10.25374 -10.24791
 Alpha  occ. eigenvalues --  -10.23689 -10.23644 -10.23513 -10.23484 -10.22971
 Alpha  occ. eigenvalues --  -10.22954 -10.22784 -10.22783 -10.22731 -10.22582
 Alpha  occ. eigenvalues --  -10.22535 -10.22356 -10.22332 -10.22318 -10.22225
 Alpha  occ. eigenvalues --  -10.22166 -10.22130 -10.22037 -10.21981 -10.21827
 Alpha  occ. eigenvalues --  -10.21795 -10.21779 -10.21433 -10.21405 -10.21324
 Alpha  occ. eigenvalues --  -10.21235 -10.21126 -10.21067 -10.20831 -10.20710
 Alpha  occ. eigenvalues --  -10.20664 -10.20258 -10.19851 -10.19802 -10.19548
 Alpha  occ. eigenvalues --  -10.19309  -3.09789  -1.84718  -1.84282  -1.84190
 Alpha  occ. eigenvalues --   -1.12736  -1.12685  -1.09517  -1.08046  -1.06445
 Alpha  occ. eigenvalues --   -1.05094  -1.02935  -1.02369  -1.00853  -0.99851
 Alpha  occ. eigenvalues --   -0.98475  -0.87761  -0.86452  -0.86303  -0.85947
 Alpha  occ. eigenvalues --   -0.85187  -0.84339  -0.83936  -0.83861  -0.82700
 Alpha  occ. eigenvalues --   -0.82647  -0.82535  -0.81618  -0.79649  -0.79024
 Alpha  occ. eigenvalues --   -0.78379  -0.78105  -0.77301  -0.76285  -0.76139
 Alpha  occ. eigenvalues --   -0.75081  -0.74657  -0.74129  -0.72517  -0.72352
 Alpha  occ. eigenvalues --   -0.71837  -0.71459  -0.70487  -0.69846  -0.69749
 Alpha  occ. eigenvalues --   -0.69324  -0.68764  -0.67858  -0.67656  -0.66998
 Alpha  occ. eigenvalues --   -0.65847  -0.65023  -0.64327  -0.62447  -0.62046
 Alpha  occ. eigenvalues --   -0.61762  -0.60533  -0.60255  -0.59710  -0.59112
 Alpha  occ. eigenvalues --   -0.58794  -0.58643  -0.57828  -0.57711  -0.57151
 Alpha  occ. eigenvalues --   -0.55982  -0.55544  -0.55306  -0.54731  -0.54520
 Alpha  occ. eigenvalues --   -0.53725  -0.53253  -0.52746  -0.52346  -0.51987
 Alpha  occ. eigenvalues --   -0.51883  -0.51149  -0.51045  -0.50447  -0.49890
 Alpha  occ. eigenvalues --   -0.49647  -0.49593  -0.49381  -0.49241  -0.49168
 Alpha  occ. eigenvalues --   -0.48793  -0.48598  -0.48338  -0.48227  -0.47881
 Alpha  occ. eigenvalues --   -0.47567  -0.47349  -0.47127  -0.47107  -0.46970
 Alpha  occ. eigenvalues --   -0.46741  -0.46389  -0.46203  -0.45830  -0.45618
 Alpha  occ. eigenvalues --   -0.45443  -0.45274  -0.45143  -0.45044  -0.44854
 Alpha  occ. eigenvalues --   -0.44698  -0.44489  -0.44388  -0.43867  -0.43686
 Alpha  occ. eigenvalues --   -0.43568  -0.43363  -0.43184  -0.43090  -0.43025
 Alpha  occ. eigenvalues --   -0.42802  -0.42379  -0.42291  -0.42129  -0.41998
 Alpha  occ. eigenvalues --   -0.41905  -0.41829  -0.41651  -0.41486  -0.41470
 Alpha  occ. eigenvalues --   -0.41061  -0.40738  -0.40603  -0.40160  -0.40151
 Alpha  occ. eigenvalues --   -0.39817  -0.39733  -0.39612  -0.39364  -0.39284
 Alpha  occ. eigenvalues --   -0.39038  -0.38924  -0.38822  -0.38313  -0.38076
 Alpha  occ. eigenvalues --   -0.37725  -0.37672  -0.37264  -0.37113  -0.37068
 Alpha  occ. eigenvalues --   -0.36799  -0.36579  -0.36357  -0.36001  -0.35690
 Alpha  occ. eigenvalues --   -0.35650  -0.35125  -0.34855  -0.34668  -0.34639
 Alpha  occ. eigenvalues --   -0.34397  -0.34134  -0.33954  -0.33503  -0.33011
 Alpha  occ. eigenvalues --   -0.32808  -0.32399  -0.32193  -0.31969  -0.31236
 Alpha  occ. eigenvalues --   -0.31180  -0.30512  -0.30408  -0.29715  -0.29335
 Alpha  occ. eigenvalues --   -0.28829  -0.28605  -0.28348  -0.27779  -0.27208
 Alpha  occ. eigenvalues --   -0.26706  -0.26670  -0.22580  -0.21116
 Alpha virt. eigenvalues --   -0.07638  -0.06208  -0.01412  -0.00600   0.00947
 Alpha virt. eigenvalues --    0.02928   0.03462   0.04276   0.04827   0.04878
 Alpha virt. eigenvalues --    0.05306   0.06311   0.08274   0.08740   0.09890

 Mulliken charges:
               1
     1  Mg   0.838303
     2  C    0.068080
     3  C   -0.201338
     4  C   -0.184953
     5  C   -0.189114
     6  N   -0.652830
     7  C    0.329623
     8  C   -0.182027
     9  C   -0.166028
    10  C    0.409670
    11  C   -0.324389
    12  C   -0.145767
    13  C   -0.261802
    14  C    0.585865
    15  O   -0.479587
    16  O   -0.458839
    17  N   -0.708669
    18  C    0.346871
    19  C    0.021403
    20  C   -0.044580
    21  C    0.255546
    22  C   -0.405476
    23  C    0.280847
    24  O   -0.380805
    25  N   -0.682789
    26  C    0.310630
    27  C   -0.015383
    28  C    0.018127
    29  C    0.277718
    30  C    0.233505
    31  C   -0.235656
    32  C   -0.305107
    33  N   -0.722467
    34  C    0.281394
    35  C    0.072320
    36  C   -0.020285
    37  C    0.312778
    38  C   -0.392793
    39  C    0.338897
    40  O   -0.431522
    41  C   -0.337438
    42  C    0.605772
    43  O   -0.440836
    44  O   -0.477710
    45  C   -0.090020
    46  C   -0.010752
    47  C   -0.127387
    48  C    0.143029
    49  C   -0.355334
    50  C   -0.240810
    51  C   -0.179664
    52  C   -0.168033
    53  C   -0.035234
    54  C   -0.332224
    55  C   -0.176679
    56  C   -0.182195
    57  C   -0.181075
    58  C   -0.046400
    59  C   -0.319596
    60  C   -0.162906
    61  C   -0.170673
    62  C   -0.167725
    63  C   -0.060322
    64  C   -0.327039
    65  C   -0.257037
    66  H    0.082675
    67  H    0.131897
    68  H    0.085312
    69  H    0.118908
    70  H    0.115230
    71  H    0.123923
    72  H    0.095074
    73  H    0.118978
    74  H    0.124211
    75  H    0.115609
    76  H    0.119851
    77  H    0.146007
    78  H    0.136894
    79  H    0.151835
    80  H    0.117612
    81  H    0.103278
    82  H    0.095358
    83  H    0.105934
    84  H    0.119234
    85  H    0.130109
    86  H    0.097164
    87  H    0.132465
    88  H    0.153996
    89  H    0.128303
    90  H    0.146007
    91  H    0.109632
    92  H    0.136971
    93  H    0.084874
    94  H    0.144783
    95  H    0.121226
    96  H    0.099485
    97  H    0.100320
    98  H    0.087470
    99  H    0.102046
   100  H    0.117258
   101  H    0.093454
   102  H    0.061547
   103  H    0.088512
   104  H    0.079341
   105  H    0.102292
   106  H    0.113690
   107  H    0.074625
   108  H    0.082035
   109  H    0.099017
   110  H    0.095445
   111  H    0.088327
   112  H    0.080290
   113  H    0.071700
   114  H    0.109999
   115  H    0.107218
   116  H    0.098540
   117  H    0.105510
   118  H    0.051993
   119  H    0.082357
   120  H    0.081043
   121  H    0.095281
   122  H    0.074563
   123  H    0.092047
   124  H    0.083855
   125  H    0.082843
   126  H    0.115188
   127  H    0.053795
   128  H    0.109270
   129  H    0.097599
   130  H    0.118458
   131  H    0.135512
   132  H    0.136446
   133  O   -0.428207
   134  H    0.075404
 Sum of Mulliken charges =   0.00000

 Dipole moment (field-independent basis, Debye):
    X=              1.2562    Y=             -3.1306    Z=             -0.3723  Tot=              3.3937
 Quadrupole moment (field-independent basis, Debye-Ang):
   XX=           -367.5063   YY=           -425.5498   ZZ=           -391.8713
   XY=             -3.6216   XZ=             16.5178   YZ=            -35.3617

 Normal termination of Gaussian 09 at Thu Oct  3 20:05:37 2019.
