 Gaussian 09, Revision D.01,
 Gaussian 09:  ES64L-G09RevD.01 24-Apr-2013

 ----------------------------------------------------------------------
 # td=(NStates=1) iop(3/107=0140000000,3/108=0140000000) iop(3/107=0140
 000000,3/108=0140000000) CAM-B3LYP/6-31G(d,p)
 ----------------------------------------------------------------------

 --
 TD
 --
 Symbolic Z-matrix:
 Charge =  0 Multiplicity = 1

                         Standard orientation:
 ---------------------------------------------------------------------
 Center     Atomic      Atomic             Coordinates (Angstroms)
 Number     Number       Type             X           Y           Z
 ---------------------------------------------------------------------
      1         12           0       -5.560335    1.297013    0.151163
      2          6           0       -5.021882   -2.220519   -0.349550
      3          6           0       -3.376102    1.315883    2.779655
      4          6           0       -6.296323    4.539163    0.659821
      5          6           0       -8.058155    1.071567   -2.190542
      6          7           0       -4.440914   -0.319492    1.082814
      7          6           0       -4.217347   -1.653017    0.716436
      8          6           0       -3.243773   -2.336238    1.541105
      9          6           0       -2.859039   -1.292029    2.650218
     10          6           0       -3.629584    0.065486    2.232175
     11          6           0       -3.523080   -1.713547    4.013111
     12          6           0       -1.954810   -2.663137    0.619836
     13          6           0       -0.882049   -3.538175    1.381263
     14          6           0        0.249172   -3.811578    0.512828
     15          8           0        0.533476   -3.279136   -0.519375
     16          8           0        0.974330   -4.752226    1.192249
     17          7           0       -4.959870    2.699153    1.517598
     18          6           0       -3.932420    2.485038    2.378024
     19          6           0       -3.576216    3.736568    3.004484
     20          6           0       -4.458902    4.670976    2.405591
     21          6           0       -5.292742    3.986082    1.388490
     22          6           0       -2.541090    3.882627    4.146838
     23          6           0       -4.737186    6.068382    2.756607
     24          8           0       -4.046881    6.588076    3.695535
     25          7           0       -6.865571    2.640174   -0.775476
     26          6           0       -7.038065    3.968238   -0.422201
     27          6           0       -8.085114    4.528902   -1.246973
     28          6           0       -8.618639    3.545599   -1.981471
     29          6           0       -7.945218    2.393365   -1.625096
     30          6           0       -8.473836    5.985802   -1.308252
     31          6           0       -9.554090    3.662673   -3.128796
     32          6           0       -9.028178    3.768005   -4.551193
     33          7           0       -6.342299   -0.056619   -1.012229
     34          6           0       -7.386490   -0.088197   -1.990573
     35          6           0       -7.548087   -1.462332   -2.557820
     36          6           0       -6.619126   -2.196125   -2.031724
     37          6           0       -6.006926   -1.417354   -1.072835
     38          6           0       -8.511908   -1.706393   -3.718830
     39          6           0       -6.158779   -3.590362   -1.923095
     40          8           0       -6.576352   -4.642037   -2.491414
     41          6           0       -4.979982   -3.577049   -0.918740
     42          6           0       -5.236282   -4.637110    0.153130
     43          8           0       -5.665996   -4.430312    1.280858
     44          8           0       -5.089085   -5.923476   -0.374760
     45          6           0       -5.275043   -6.975824    0.599483
     46          6           0        2.324189   -5.041660    0.614995
     47          6           0        3.344429   -3.984960    1.034679
     48          6           0        3.993893   -3.220703    0.158460
     49          6           0        3.628408   -2.975125   -1.211422
     50          6           0        5.166681   -2.361066    0.603129
     51          6           0        6.517594   -2.725791    0.112236
     52          6           0        7.688539   -1.787129    0.583593
     53          6           0        9.013370   -1.934285   -0.036620
     54          6           0        9.607093   -3.413710    0.123055
     55          6           0       10.015515   -0.959167    0.391847
     56          6           0       11.366651   -0.943972   -0.284331
     57          6           0       12.277336    0.364703    0.026781
     58          6           0       13.630456    0.343431   -0.633737
     59          6           0       14.539255   -0.828504   -0.311988
     60          6           0       14.309516    1.688593   -0.213820
     61          6           0       15.572326    2.067472   -1.018442
     62          6           0       16.223337    3.421608   -0.563373
     63          6           0       17.353182    3.911605   -1.259111
     64          6           0       17.114165    4.069620   -2.807774
     65          6           0       17.903658    5.318663   -0.781755
     66          1           0       -2.418602    1.410031    3.487264
     67          1           0       -6.214429    5.754778    0.720794
     68          1           0       -8.718814    0.890714   -3.022195
     69          1           0       -3.805197   -3.318933    2.067746
     70          1           0       -1.928951   -0.939089    2.872782
     71          1           0       -2.884441   -2.571928    4.425825
     72          1           0       -3.113977   -0.968034    4.643055
     73          1           0       -4.626174   -1.962492    3.865408
     74          1           0       -2.026440   -3.156132   -0.207721
     75          1           0       -1.462012   -1.659948    0.485006
     76          1           0       -0.759510   -3.129506    2.494435
     77          1           0       -1.325733   -4.662251    1.491397
     78          1           0       -1.480396    3.470059    4.024301
     79          1           0       -2.534765    5.011273    4.560663
     80          1           0       -2.880072    3.356142    5.051256
     81          1           0       -5.432280    6.703265    2.064000
     82          1           0      -10.324612    2.857698   -3.116181
     83          1           0      -10.263026    4.416486   -2.910803
     84          1           0       -9.928053    3.792834   -5.290860
     85          1           0       -8.397466    4.624102   -4.630840
     86          1           0       -8.530333    2.913416   -4.675957
     87          1           0       -7.855073   -1.399096   -4.620628
     88          1           0       -8.511250   -2.824583   -3.696714
     89          1           0       -9.499306   -1.356208   -3.597442
     90          1           0       -3.986796   -4.122740   -1.568015
     91          1           0        2.671232   -5.855645    1.298800
     92          1           0        2.267616   -5.183336   -0.392105
     93          1           0        3.475909   -4.176111    1.991363
     94          1           0        2.560097   -3.228192   -1.593058
     95          1           0        3.735606   -1.848917   -1.531638
     96          1           0        4.172990   -3.483034   -1.896805
     97          1           0        4.993995   -1.334872    0.601935
     98          1           0        5.293659   -2.361127    1.697147
     99          1           0        6.790823   -3.683153    0.340816
    100          1           0        6.485030   -2.617108   -0.945555
    101          1           0        7.429484   -0.774329    0.339503
    102          1           0        7.833474   -1.749943    1.740735
    103          1           0        9.073501   -1.655310   -1.173384
    104          1           0        9.081531   -4.246415   -0.388814
    105          1           0       10.681483   -3.544762   -0.107142
    106          1           0        9.483237   -3.766971    1.216049
    107          1           0        9.313003   -0.134976    0.222938
    108          1           0       10.072689   -1.036984    1.557545
    109          1           0       12.131649   -1.829344   -0.033251
    110          1           0       11.196578   -1.039811   -1.522555
    111          1           0       11.718621    1.332122   -0.304627
    112          1           0       12.244432    0.441207    1.127599
    113          1           0       13.319494    0.271243   -1.774084
    114          1           0       14.727175   -0.967421    0.770722
    115          1           0       14.204707   -1.885294   -0.596194
    116          1           0       15.324261   -0.765490   -1.101288
    117          1           0       13.729109    2.555510   -0.105961
    118          1           0       14.689421    1.688184    0.751279
    119          1           0       16.235082    1.283593   -1.023202
    120          1           0       15.273081    2.241296   -2.147999
    121          1           0       15.503868    4.270978   -0.702212
    122          1           0       16.416578    3.696469    0.606595
    123          1           0       18.243169    3.213337   -1.363744
    124          1           0       16.404831    4.998658   -3.137102
    125          1           0       17.889608    4.350806   -3.612322
    126          1           0       16.922836    2.996282   -3.278108
    127          1           0       17.835794    5.500631    0.356353
    128          1           0       19.067527    5.717491   -1.177355
    129          1           0       17.247185    6.235886   -0.920934
    130          1           0       -5.239608   -7.755459   -0.192935
    131          1           0       -6.324311   -6.777733    0.962712
    132          1           0       -4.538615   -7.047294    1.406565
    133          8           0       -8.016491    6.880374   -0.431553
    134          1           0       -9.283335    6.158767   -1.884922
 ---------------------------------------------------------------------

 SCF Done:  E(RCAM-B3LYP) =  -3043.37296519     A.U. after   16 cycles

 Excitation energies and oscillator strengths:

 Excited State   1:      Singlet-A      2.0360 eV  608.96 nm  f=0.1182  <S**2>=0.000
     243 -> 246        0.30135
     244 -> 245        0.61572
     244 -> 246        0.10865
 This state for optimization and/or second-order correction.
 Total Energy, E(TD-HF/TD-KS) =  -3043.29814313
 Copying the excited state density for this state as the 1-particle RhoCI density.

 The electronic state is 1-A.
 Alpha  occ. eigenvalues --  -46.81220 -19.22302 -19.21688 -19.18549 -19.18269
 Alpha  occ. eigenvalues --  -19.18151 -19.16977 -19.16275 -14.39168 -14.37092
 Alpha  occ. eigenvalues --  -14.36914 -14.36579 -10.35886 -10.34884 -10.33046
 Alpha  occ. eigenvalues --  -10.30405 -10.30387 -10.28586 -10.28520 -10.27574
 Alpha  occ. eigenvalues --  -10.27379 -10.27084 -10.27012 -10.26473 -10.26254
 Alpha  occ. eigenvalues --  -10.26131 -10.25905 -10.25858 -10.25846 -10.25811
 Alpha  occ. eigenvalues --  -10.25140 -10.25007 -10.24511 -10.24477 -10.24410
 Alpha  occ. eigenvalues --  -10.24156 -10.23859 -10.23777 -10.23715 -10.23412
 Alpha  occ. eigenvalues --  -10.23409 -10.23255 -10.23165 -10.23108 -10.23054
 Alpha  occ. eigenvalues --  -10.23021 -10.23006 -10.22822 -10.22803 -10.22722
 Alpha  occ. eigenvalues --  -10.22720 -10.22216 -10.22099 -10.22012 -10.21622
 Alpha  occ. eigenvalues --  -10.21604 -10.21508 -10.21476 -10.21331 -10.21161
 Alpha  occ. eigenvalues --  -10.20759 -10.20685 -10.20540 -10.20518 -10.20390
 Alpha  occ. eigenvalues --  -10.19927  -3.09836  -1.84764  -1.84287  -1.84276
 Alpha  occ. eigenvalues --   -1.12965  -1.12538  -1.05443  -1.05399  -1.04871
 Alpha  occ. eigenvalues --   -1.02929  -1.00792  -1.00428  -0.99770  -0.98917
 Alpha  occ. eigenvalues --   -0.96801  -0.89284  -0.87100  -0.86219  -0.85932
 Alpha  occ. eigenvalues --   -0.85325  -0.85262  -0.84854  -0.84532  -0.83633
 Alpha  occ. eigenvalues --   -0.82947  -0.82093  -0.81652  -0.80954  -0.79995
 Alpha  occ. eigenvalues --   -0.79441  -0.78435  -0.77768  -0.77108  -0.76668
 Alpha  occ. eigenvalues --   -0.74901  -0.74670  -0.74340  -0.72886  -0.72210
 Alpha  occ. eigenvalues --   -0.71446  -0.70752  -0.70275  -0.69925  -0.69628
 Alpha  occ. eigenvalues --   -0.69221  -0.69023  -0.67979  -0.67403  -0.67047
 Alpha  occ. eigenvalues --   -0.66129  -0.65316  -0.64498  -0.63473  -0.62398
 Alpha  occ. eigenvalues --   -0.61776  -0.61288  -0.60405  -0.58971  -0.58576
 Alpha  occ. eigenvalues --   -0.58549  -0.58393  -0.58076  -0.57764  -0.56963
 Alpha  occ. eigenvalues --   -0.56668  -0.56364  -0.55585  -0.55111  -0.54665
 Alpha  occ. eigenvalues --   -0.54098  -0.53211  -0.52859  -0.52580  -0.52097
 Alpha  occ. eigenvalues --   -0.51707  -0.51388  -0.51270  -0.50904  -0.50246
 Alpha  occ. eigenvalues --   -0.50183  -0.50040  -0.49889  -0.49361  -0.49077
 Alpha  occ. eigenvalues --   -0.48897  -0.48705  -0.48315  -0.48085  -0.47801
 Alpha  occ. eigenvalues --   -0.47655  -0.47510  -0.47210  -0.47102  -0.46795
 Alpha  occ. eigenvalues --   -0.46670  -0.46419  -0.46200  -0.45855  -0.45467
 Alpha  occ. eigenvalues --   -0.45381  -0.45268  -0.45122  -0.44955  -0.44646
 Alpha  occ. eigenvalues --   -0.44471  -0.44071  -0.43915  -0.43755  -0.43690
 Alpha  occ. eigenvalues --   -0.43247  -0.42869  -0.42777  -0.42597  -0.42550
 Alpha  occ. eigenvalues --   -0.42368  -0.42160  -0.42037  -0.41467  -0.41195
 Alpha  occ. eigenvalues --   -0.41090  -0.41075  -0.40905  -0.40611  -0.40530
 Alpha  occ. eigenvalues --   -0.40219  -0.39958  -0.39833  -0.39577  -0.39525
 Alpha  occ. eigenvalues --   -0.39511  -0.39342  -0.39319  -0.39112  -0.38828
 Alpha  occ. eigenvalues --   -0.38610  -0.38437  -0.38384  -0.38262  -0.38081
 Alpha  occ. eigenvalues --   -0.37797  -0.37600  -0.37436  -0.37114  -0.37021
 Alpha  occ. eigenvalues --   -0.36819  -0.36544  -0.36333  -0.35722  -0.35557
 Alpha  occ. eigenvalues --   -0.35315  -0.35245  -0.34816  -0.34747  -0.34339
 Alpha  occ. eigenvalues --   -0.34166  -0.33896  -0.33879  -0.33642  -0.33492
 Alpha  occ. eigenvalues --   -0.33246  -0.32680  -0.32315  -0.32169  -0.31645
 Alpha  occ. eigenvalues --   -0.31453  -0.31147  -0.31013  -0.30514  -0.29668
 Alpha  occ. eigenvalues --   -0.29469  -0.28964  -0.28136  -0.27891  -0.27565
 Alpha  occ. eigenvalues --   -0.27488  -0.26756  -0.23065  -0.21805
 Alpha virt. eigenvalues --   -0.08403  -0.07135  -0.02648  -0.01962  -0.01051
 Alpha virt. eigenvalues --    0.01535   0.02483   0.02806   0.03433   0.03881
 Alpha virt. eigenvalues --    0.04228   0.05867   0.06885   0.08265   0.09356

 Mulliken charges:
               1
     1  Mg   0.822506
     2  C    0.053876
     3  C   -0.177392
     4  C   -0.155720
     5  C   -0.206653
     6  N   -0.625556
     7  C    0.344180
     8  C   -0.179829
     9  C   -0.150509
    10  C    0.290580
    11  C   -0.301474
    12  C   -0.152186
    13  C   -0.277875
    14  C    0.632146
    15  O   -0.456092
    16  O   -0.488656
    17  N   -0.731444
    18  C    0.344268
    19  C    0.069717
    20  C   -0.050275
    21  C    0.352987
    22  C   -0.407145
    23  C    0.219555
    24  O   -0.442255
    25  N   -0.657306
    26  C    0.267363
    27  C   -0.042170
    28  C    0.083680
    29  C    0.256588
    30  C    0.238121
    31  C   -0.269370
    32  C   -0.288919
    33  N   -0.713788
    34  C    0.279021
    35  C   -0.030648
    36  C    0.107000
    37  C    0.289048
    38  C   -0.374842
    39  C    0.390069
    40  O   -0.473560
    41  C   -0.323276
    42  C    0.626921
    43  O   -0.467761
    44  O   -0.463067
    45  C   -0.087123
    46  C    0.000118
    47  C   -0.124406
    48  C    0.164816
    49  C   -0.399867
    50  C   -0.245609
    51  C   -0.163908
    52  C   -0.183862
    53  C   -0.043815
    54  C   -0.326646
    55  C   -0.139466
    56  C   -0.170056
    57  C   -0.173980
    58  C   -0.041142
    59  C   -0.317514
    60  C   -0.175824
    61  C   -0.187269
    62  C   -0.163289
    63  C   -0.024350
    64  C   -0.305412
    65  C   -0.310257
    66  H    0.093555
    67  H    0.124613
    68  H    0.072344
    69  H    0.130695
    70  H    0.105020
    71  H    0.094716
    72  H    0.114429
    73  H    0.136600
    74  H    0.115022
    75  H    0.121528
    76  H    0.130897
    77  H    0.117367
    78  H    0.115901
    79  H    0.156528
    80  H    0.132345
    81  H    0.100001
    82  H    0.103190
    83  H    0.108088
    84  H    0.100320
    85  H    0.118831
    86  H    0.124638
    87  H    0.139925
    88  H    0.147856
    89  H    0.136576
    90  H    0.144168
    91  H    0.113159
    92  H    0.122926
    93  H    0.082822
    94  H    0.140959
    95  H    0.102778
    96  H    0.132431
    97  H    0.107641
    98  H    0.085399
    99  H    0.109405
   100  H    0.100282
   101  H    0.091665
   102  H    0.077555
   103  H    0.067493
   104  H    0.095658
   105  H    0.101522
   106  H    0.080176
   107  H    0.087557
   108  H    0.067323
   109  H    0.088707
   110  H    0.054388
   111  H    0.081823
   112  H    0.090668
   113  H    0.075364
   114  H    0.112093
   115  H    0.092622
   116  H    0.110526
   117  H    0.096070
   118  H    0.104056
   119  H    0.106472
   120  H    0.088555
   121  H    0.093076
   122  H    0.069875
   123  H    0.091395
   124  H    0.077598
   125  H    0.094168
   126  H    0.082608
   127  H    0.082937
   128  H    0.078907
   129  H    0.098903
   130  H    0.133939
   131  H    0.136152
   132  H    0.128437
   133  O   -0.458951
   134  H    0.096715
 Sum of Mulliken charges =   0.00000

 Dipole moment (field-independent basis, Debye):
    X=              2.6446    Y=             -6.2313    Z=             -1.9058  Tot=              7.0324
 Quadrupole moment (field-independent basis, Debye-Ang):
   XX=           -389.6772   YY=           -447.7892   ZZ=           -393.5249
   XY=             12.0734   XZ=             32.0508   YZ=            -33.6118

 Normal termination of Gaussian 09 at Thu Oct  3 16:13:38 2019.
