 Gaussian 09, Revision D.01,
 Gaussian 09:  ES64L-G09RevD.01 24-Apr-2013

 ----------------------------------------------------------------------
 # td=(NStates=1) iop(3/107=0140000000,3/108=0140000000) iop(3/107=0140
 000000,3/108=0140000000) CAM-B3LYP/6-31G(d,p)
 ----------------------------------------------------------------------

 --
 TD
 --
 Symbolic Z-matrix:
 Charge =  0 Multiplicity = 1

                         Standard orientation:
 ---------------------------------------------------------------------
 Center     Atomic      Atomic             Coordinates (Angstroms)
 Number     Number       Type             X           Y           Z
 ---------------------------------------------------------------------
      1         12           0       -5.619677    1.211419    0.170578
      2          6           0       -4.967799   -2.181803   -0.315461
      3          6           0       -3.503965    1.186135    2.799927
      4          6           0       -6.315597    4.654254    0.611798
      5          6           0       -7.955210    1.056954   -2.343990
      6          7           0       -4.458798   -0.282112    1.090005
      7          6           0       -4.239872   -1.574051    0.674723
      8          6           0       -3.267177   -2.356330    1.587573
      9          6           0       -2.933712   -1.310763    2.674191
     10          6           0       -3.671365   -0.009090    2.134091
     11          6           0       -3.450821   -1.703167    4.100818
     12          6           0       -2.001632   -2.699708    0.684776
     13          6           0       -0.925044   -3.413741    1.495330
     14          6           0        0.268755   -3.830591    0.673332
     15          8           0        0.437064   -3.401809   -0.470397
     16          8           0        1.182211   -4.636733    1.325063
     17          7           0       -4.987491    2.716081    1.377184
     18          6           0       -4.173197    2.385651    2.479125
     19          6           0       -3.894400    3.668068    3.141512
     20          6           0       -4.745264    4.619600    2.607640
     21          6           0       -5.461623    4.025355    1.435059
     22          6           0       -2.913506    3.902250    4.328381
     23          6           0       -4.793468    6.002363    2.936609
     24          8           0       -4.088406    6.587400    3.752173
     25          7           0       -6.838910    2.614548   -0.826930
     26          6           0       -6.971863    4.039050   -0.499956
     27          6           0       -8.102377    4.529721   -1.284684
     28          6           0       -8.452411    3.596886   -2.114273
     29          6           0       -7.784757    2.315537   -1.709288
     30          6           0       -8.404668    5.934039   -1.276419
     31          6           0       -9.449454    3.750049   -3.252724
     32          6           0       -8.667196    3.725557   -4.634323
     33          7           0       -6.260745   -0.161740   -1.215444
     34          6           0       -7.283054   -0.103250   -2.083099
     35          6           0       -7.568087   -1.371696   -2.706316
     36          6           0       -6.680674   -2.274130   -2.092013
     37          6           0       -5.907119   -1.434338   -1.167470
     38          6           0       -8.683187   -1.827743   -3.654310
     39          6           0       -6.164630   -3.642853   -1.973091
     40          8           0       -6.507036   -4.655429   -2.577041
     41          6           0       -4.979025   -3.534502   -0.890134
     42          6           0       -5.219782   -4.629526    0.135434
     43          8           0       -5.730540   -4.518433    1.288002
     44          8           0       -4.857560   -5.836039   -0.420654
     45          6           0       -5.146861   -7.116150    0.453045
     46          6           0        2.417398   -4.971810    0.640782
     47          6           0        3.443733   -3.946680    1.017278
     48          6           0        4.174156   -3.200535    0.172868
     49          6           0        3.677399   -3.168412   -1.250657
     50          6           0        5.205701   -2.177199    0.643380
     51          6           0        6.537535   -2.591996    0.121614
     52          6           0        7.746652   -1.706667    0.545100
     53          6           0        9.092667   -1.884313   -0.061214
     54          6           0        9.686874   -3.329164    0.071256
     55          6           0        9.996924   -0.787332    0.604540
     56          6           0       11.359655   -0.870799   -0.078741
     57          6           0       12.309058    0.306030    0.295636
     58          6           0       13.630272    0.433261   -0.495711
     59          6           0       14.599361   -0.677155   -0.084047
     60          6           0       14.197817    1.845888   -0.149646
     61          6           0       15.441921    2.159286   -0.994557
     62          6           0       16.055662    3.546535   -0.774862
     63          6           0       17.397674    3.845135   -1.424339
     64          6           0       17.161676    3.818354   -2.958828
     65          6           0       17.863891    5.228864   -1.006941
     66          1           0       -2.956455    1.049377    3.668933
     67          1           0       -6.786517    5.654026    0.685568
     68          1           0       -8.749466    0.971013   -3.035311
     69          1           0       -3.599879   -3.312759    1.923373
     70          1           0       -1.917172   -0.925763    2.879203
     71          1           0       -3.046079   -2.563752    4.419662
     72          1           0       -3.343238   -0.854886    4.852588
     73          1           0       -4.631908   -1.797075    3.978873
     74          1           0       -2.219384   -3.123109   -0.258470
     75          1           0       -1.544603   -1.737229    0.483165
     76          1           0       -0.728080   -2.752048    2.229560
     77          1           0       -1.275660   -4.464698    1.657666
     78          1           0       -1.923527    3.521195    4.252747
     79          1           0       -3.136939    4.976774    4.720584
     80          1           0       -3.306467    3.211194    5.210279
     81          1           0       -5.456256    6.479640    2.362534
     82          1           0      -10.086578    2.806033   -3.385379
     83          1           0       -9.913005    4.653614   -3.132337
     84          1           0       -9.439861    3.728264   -5.343068
     85          1           0       -7.904484    4.561914   -4.617271
     86          1           0       -8.188991    2.686713   -4.566204
     87          1           0       -8.442562   -1.342481   -4.664057
     88          1           0       -8.589306   -2.943652   -3.951743
     89          1           0       -9.604545   -1.518424   -3.425766
     90          1           0       -4.137043   -3.876395   -1.611636
     91          1           0        2.669539   -5.926668    1.098126
     92          1           0        2.097389   -4.999907   -0.477594
     93          1           0        3.735020   -3.854548    2.146270
     94          1           0        2.538993   -3.217404   -1.272183
     95          1           0        3.708535   -2.182210   -1.810031
     96          1           0        4.402518   -3.662572   -1.855975
     97          1           0        5.034485   -1.140398    0.409244
     98          1           0        5.375476   -2.149552    1.613073
     99          1           0        6.703535   -3.697275    0.194898
    100          1           0        6.642791   -2.553717   -0.904777
    101          1           0        7.523008   -0.695472    0.503286
    102          1           0        7.907587   -1.817382    1.767265
    103          1           0        9.014287   -1.693253   -1.125557
    104          1           0        9.093323   -3.939338   -0.715984
    105          1           0       10.785363   -3.513570   -0.250957
    106          1           0        9.427704   -3.778173    1.063261
    107          1           0        9.562903    0.011444    0.244255
    108          1           0       10.049225   -0.911898    1.701813
    109          1           0       11.999903   -1.715412    0.201641
    110          1           0       11.323751   -0.829367   -1.120546
    111          1           0       11.780977    1.316285   -0.112893
    112          1           0       12.500727    0.258580    1.301495
    113          1           0       13.438924    0.215828   -1.772187
    114          1           0       15.014453   -0.696418    0.812585
    115          1           0       13.987732   -1.646622   -0.268146
    116          1           0       15.519936   -0.686587   -0.879840
    117          1           0       13.424442    2.630994   -0.269243
    118          1           0       14.568801    1.542021    0.710492
    119          1           0       16.490871    1.543415   -0.676071
    120          1           0       15.081311    1.847341   -1.965185
    121          1           0       15.390484    4.455101   -1.027055
    122          1           0       16.109665    3.433545    0.429913
    123          1           0       18.122382    3.068124   -1.278799
    124          1           0       16.525184    4.523487   -3.153281
    125          1           0       18.002408    4.340463   -3.430977
    126          1           0       16.699729    2.854276   -3.451956
    127          1           0       17.962760    5.338981    0.082760
    128          1           0       18.691367    5.577636   -1.656754
    129          1           0       17.196588    6.039414   -1.189204
    130          1           0       -4.865716   -7.839455   -0.480020
    131          1           0       -6.126240   -7.034728    0.818119
    132          1           0       -4.457816   -7.229475    1.390050
    133          8           0       -8.018258    6.802627   -0.457521
    134          1           0       -9.324268    6.353850   -1.946807
 ---------------------------------------------------------------------

 SCF Done:  E(RCAM-B3LYP) =  -3043.46487391     A.U. after   16 cycles

 Excitation energies and oscillator strengths:

 Excited State   1:      Singlet-A      2.0095 eV  616.98 nm  f=0.2086  <S**2>=0.000
     243 -> 246        0.22532
     244 -> 245        0.65961
 This state for optimization and/or second-order correction.
 Total Energy, E(TD-HF/TD-KS) =  -3043.39102520
 Copying the excited state density for this state as the 1-particle RhoCI density.

 The electronic state is 1-A.
 Alpha  occ. eigenvalues --  -46.82008 -19.22530 -19.21988 -19.18207 -19.17776
 Alpha  occ. eigenvalues --  -19.17423 -19.17269 -19.16125 -14.39451 -14.37520
 Alpha  occ. eigenvalues --  -14.37313 -14.37178 -10.35486 -10.35421 -10.32404
 Alpha  occ. eigenvalues --  -10.32129 -10.29716 -10.28069 -10.28035 -10.28023
 Alpha  occ. eigenvalues --  -10.27831 -10.27774 -10.27013 -10.26702 -10.26605
 Alpha  occ. eigenvalues --  -10.26592 -10.26232 -10.26152 -10.26048 -10.25158
 Alpha  occ. eigenvalues --  -10.24727 -10.24576 -10.24508 -10.24483 -10.24190
 Alpha  occ. eigenvalues --  -10.23654 -10.23514 -10.23475 -10.23464 -10.23160
 Alpha  occ. eigenvalues --  -10.23074 -10.22952 -10.22941 -10.22890 -10.22807
 Alpha  occ. eigenvalues --  -10.22787 -10.22550 -10.22477 -10.22231 -10.21840
 Alpha  occ. eigenvalues --  -10.21768 -10.21520 -10.21503 -10.21411 -10.21263
 Alpha  occ. eigenvalues --  -10.21228 -10.20601 -10.20532 -10.20386 -10.20343
 Alpha  occ. eigenvalues --  -10.20263 -10.19860 -10.19816 -10.19727 -10.19705
 Alpha  occ. eigenvalues --  -10.19003  -3.10528  -1.85478  -1.85000  -1.84926
 Alpha  occ. eigenvalues --   -1.12060  -1.10065  -1.06779  -1.06000  -1.05496
 Alpha  occ. eigenvalues --   -1.04137  -1.02163  -1.01770  -1.00560  -0.99123
 Alpha  occ. eigenvalues --   -0.97794  -0.88939  -0.86460  -0.86180  -0.85988
 Alpha  occ. eigenvalues --   -0.85479  -0.85333  -0.84600  -0.83995  -0.83849
 Alpha  occ. eigenvalues --   -0.83476  -0.82102  -0.81980  -0.80880  -0.80263
 Alpha  occ. eigenvalues --   -0.79784  -0.78501  -0.77772  -0.76621  -0.76289
 Alpha  occ. eigenvalues --   -0.75292  -0.75059  -0.73981  -0.72647  -0.72275
 Alpha  occ. eigenvalues --   -0.71358  -0.71017  -0.70600  -0.70318  -0.70089
 Alpha  occ. eigenvalues --   -0.69451  -0.69163  -0.67630  -0.67125  -0.66472
 Alpha  occ. eigenvalues --   -0.66078  -0.65178  -0.65099  -0.62941  -0.62742
 Alpha  occ. eigenvalues --   -0.62429  -0.61726  -0.60586  -0.59011  -0.58553
 Alpha  occ. eigenvalues --   -0.58377  -0.58267  -0.57417  -0.57265  -0.57111
 Alpha  occ. eigenvalues --   -0.56457  -0.56378  -0.55528  -0.55246  -0.55192
 Alpha  occ. eigenvalues --   -0.54622  -0.53743  -0.53203  -0.52599  -0.52261
 Alpha  occ. eigenvalues --   -0.51973  -0.51796  -0.51171  -0.51101  -0.50825
 Alpha  occ. eigenvalues --   -0.50312  -0.49907  -0.49766  -0.49409  -0.49112
 Alpha  occ. eigenvalues --   -0.49040  -0.48725  -0.48462  -0.48222  -0.48081
 Alpha  occ. eigenvalues --   -0.47708  -0.47386  -0.47288  -0.47167  -0.46881
 Alpha  occ. eigenvalues --   -0.46757  -0.46464  -0.46337  -0.46097  -0.46051
 Alpha  occ. eigenvalues --   -0.45819  -0.45703  -0.45456  -0.45252  -0.45036
 Alpha  occ. eigenvalues --   -0.44810  -0.44748  -0.44612  -0.44226  -0.43992
 Alpha  occ. eigenvalues --   -0.43816  -0.43555  -0.43158  -0.43038  -0.42891
 Alpha  occ. eigenvalues --   -0.42760  -0.42280  -0.42079  -0.42045  -0.41689
 Alpha  occ. eigenvalues --   -0.41511  -0.41294  -0.41146  -0.41099  -0.40739
 Alpha  occ. eigenvalues --   -0.40658  -0.40366  -0.40218  -0.39992  -0.39903
 Alpha  occ. eigenvalues --   -0.39611  -0.39541  -0.39199  -0.39140  -0.38855
 Alpha  occ. eigenvalues --   -0.38734  -0.38666  -0.38589  -0.38478  -0.38252
 Alpha  occ. eigenvalues --   -0.38145  -0.37862  -0.37842  -0.37519  -0.37223
 Alpha  occ. eigenvalues --   -0.36873  -0.36732  -0.36656  -0.36261  -0.35842
 Alpha  occ. eigenvalues --   -0.35608  -0.35208  -0.34806  -0.34727  -0.34286
 Alpha  occ. eigenvalues --   -0.34186  -0.33733  -0.33278  -0.33060  -0.33021
 Alpha  occ. eigenvalues --   -0.32650  -0.32474  -0.32088  -0.32056  -0.31746
 Alpha  occ. eigenvalues --   -0.31557  -0.30714  -0.30325  -0.30180  -0.30150
 Alpha  occ. eigenvalues --   -0.29295  -0.28960  -0.28500  -0.28314  -0.27562
 Alpha  occ. eigenvalues --   -0.27334  -0.27007  -0.23622  -0.21644
 Alpha virt. eigenvalues --   -0.08767  -0.06674  -0.02166  -0.01602   0.00242
 Alpha virt. eigenvalues --    0.02146   0.02921   0.03236   0.04160   0.04283
 Alpha virt. eigenvalues --    0.04790   0.05767   0.07626   0.08342   0.08462

 Mulliken charges:
               1
     1  Mg   0.821511
     2  C    0.132788
     3  C   -0.162713
     4  C   -0.168883
     5  C   -0.149145
     6  N   -0.652672
     7  C    0.304741
     8  C   -0.145657
     9  C   -0.160865
    10  C    0.351998
    11  C   -0.305709
    12  C   -0.190245
    13  C   -0.236854
    14  C    0.586516
    15  O   -0.467628
    16  O   -0.476772
    17  N   -0.736600
    18  C    0.308647
    19  C    0.053939
    20  C   -0.063612
    21  C    0.355905
    22  C   -0.390470
    23  C    0.268793
    24  O   -0.442902
    25  N   -0.665224
    26  C    0.212975
    27  C    0.001213
    28  C    0.046653
    29  C    0.306163
    30  C    0.226614
    31  C   -0.249675
    32  C   -0.303908
    33  N   -0.710369
    34  C    0.292948
    35  C    0.016592
    36  C    0.047342
    37  C    0.236160
    38  C   -0.380114
    39  C    0.355561
    40  O   -0.455324
    41  C   -0.353518
    42  C    0.633967
    43  O   -0.508296
    44  O   -0.472318
    45  C   -0.096172
    46  C   -0.005308
    47  C   -0.135971
    48  C    0.133616
    49  C   -0.404168
    50  C   -0.201847
    51  C   -0.194058
    52  C   -0.163417
    53  C   -0.070618
    54  C   -0.308949
    55  C   -0.144170
    56  C   -0.190189
    57  C   -0.161958
    58  C   -0.066836
    59  C   -0.307574
    60  C   -0.138841
    61  C   -0.174619
    62  C   -0.138670
    63  C   -0.049444
    64  C   -0.312246
    65  C   -0.324580
    66  H    0.080364
    67  H    0.158967
    68  H    0.080166
    69  H    0.133717
    70  H    0.110340
    71  H    0.130247
    72  H    0.103738
    73  H    0.110114
    74  H    0.121636
    75  H    0.115656
    76  H    0.140294
    77  H    0.129870
    78  H    0.130852
    79  H    0.169592
    80  H    0.095563
    81  H    0.076719
    82  H    0.107095
    83  H    0.110441
    84  H    0.121715
    85  H    0.117113
    86  H    0.102205
    87  H    0.116909
    88  H    0.149741
    89  H    0.140946
    90  H    0.169347
    91  H    0.123014
    92  H    0.134410
    93  H    0.075608
    94  H    0.161895
    95  H    0.097029
    96  H    0.120169
    97  H    0.104941
    98  H    0.107506
    99  H    0.092404
   100  H    0.098643
   101  H    0.096365
   102  H    0.042008
   103  H    0.086454
   104  H    0.083392
   105  H    0.100699
   106  H    0.102756
   107  H    0.104337
   108  H    0.093140
   109  H    0.090907
   110  H    0.096542
   111  H    0.054908
   112  H    0.096329
   113  H    0.027956
   114  H    0.116553
   115  H    0.090578
   116  H    0.083237
   117  H    0.097013
   118  H    0.105106
   119  H    0.058301
   120  H    0.090359
   121  H    0.071653
   122  H    0.058273
   123  H    0.092013
   124  H    0.114678
   125  H    0.086614
   126  H    0.096840
   127  H    0.105420
   128  H    0.094420
   129  H    0.106403
   130  H    0.139174
   131  H    0.164827
   132  H    0.127637
   133  O   -0.427606
   134  H    0.058211
 Sum of Mulliken charges =   0.00000

 Dipole moment (field-independent basis, Debye):
    X=              0.2032    Y=             -4.9000    Z=             -1.2327  Tot=              5.0568
 Quadrupole moment (field-independent basis, Debye-Ang):
   XX=           -382.4543   YY=           -439.1691   ZZ=           -393.7062
   XY=             13.2112   XZ=             29.3226   YZ=            -35.4056

 Normal termination of Gaussian 09 at Fri Oct  4 08:49:10 2019.
