 Gaussian 09, Revision D.01,
 Gaussian 09:  ES64L-G09RevD.01 24-Apr-2013

 ----------------------------------------------------------------------
 # td=(NStates=1) iop(3/107=0140000000,3/108=0140000000) iop(3/107=0140
 000000,3/108=0140000000) CAM-B3LYP/6-31G(d,p)
 ----------------------------------------------------------------------

 --
 TD
 --
 Symbolic Z-matrix:
 Charge =  0 Multiplicity = 1

                         Standard orientation:
 ---------------------------------------------------------------------
 Center     Atomic      Atomic             Coordinates (Angstroms)
 Number     Number       Type             X           Y           Z
 ---------------------------------------------------------------------
      1         12           0       -5.618127    1.309519    0.179836
      2          6           0       -4.965988   -2.107736   -0.277610
      3          6           0       -3.345961    1.185449    2.729287
      4          6           0       -6.161722    4.582725    0.614970
      5          6           0       -7.955703    1.143492   -2.337387
      6          7           0       -4.334564   -0.221163    1.029989
      7          6           0       -4.239015   -1.656989    0.622293
      8          6           0       -3.198018   -2.338998    1.405013
      9          6           0       -2.876775   -1.434001    2.645068
     10          6           0       -3.423872   -0.110906    2.068672
     11          6           0       -3.543040   -1.742204    3.978950
     12          6           0       -1.887415   -2.752069    0.600141
     13          6           0       -0.897048   -3.536186    1.417048
     14          6           0        0.287290   -3.998541    0.578709
     15          8           0        0.593169   -3.486344   -0.552535
     16          8           0        1.094553   -4.828424    1.223901
     17          7           0       -4.879550    2.698135    1.485656
     18          6           0       -3.970088    2.390984    2.499729
     19          6           0       -3.750856    3.615134    3.248403
     20          6           0       -4.573401    4.581379    2.668694
     21          6           0       -5.282473    3.989527    1.563214
     22          6           0       -2.882168    3.786658    4.410659
     23          6           0       -4.653186    6.046546    2.987465
     24          8           0       -4.061822    6.709934    3.771643
     25          7           0       -6.905037    2.594913   -0.752103
     26          6           0       -6.927445    3.914981   -0.334625
     27          6           0       -8.017695    4.601301   -1.237714
     28          6           0       -8.455338    3.581752   -2.052340
     29          6           0       -7.776473    2.314822   -1.686447
     30          6           0       -8.297912    6.008269   -1.188670
     31          6           0       -9.443823    3.869295   -3.274628
     32          6           0       -8.829355    3.841698   -4.667236
     33          7           0       -6.307184   -0.087559   -1.074644
     34          6           0       -7.309464   -0.058947   -2.058863
     35          6           0       -7.432812   -1.298479   -2.697997
     36          6           0       -6.658064   -2.171856   -2.017927
     37          6           0       -5.941279   -1.415168   -1.083330
     38          6           0       -8.505106   -1.593706   -3.778895
     39          6           0       -6.186409   -3.490789   -1.981334
     40          8           0       -6.489836   -4.477833   -2.654244
     41          6           0       -5.007277   -3.544596   -0.920456
     42          6           0       -5.236187   -4.677034    0.117469
     43          8           0       -5.547616   -4.506602    1.219630
     44          8           0       -4.933757   -5.844716   -0.325467
     45          6           0       -5.216109   -7.039881    0.528935
     46          6           0        2.386005   -5.132970    0.616067
     47          6           0        3.425909   -4.163402    1.000828
     48          6           0        3.991201   -3.220219    0.175024
     49          6           0        3.656813   -3.052644   -1.202456
     50          6           0        5.178803   -2.498638    0.598478
     51          6           0        6.537315   -2.892998    0.009139
     52          6           0        7.543723   -1.865925    0.556305
     53          6           0        9.043295   -2.032812    0.002741
     54          6           0        9.527569   -3.479182    0.121354
     55          6           0        9.988040   -0.922674    0.487651
     56          6           0       11.313017   -0.940507   -0.216912
     57          6           0       12.209070    0.354572    0.262381
     58          6           0       13.509366    0.419850   -0.639348
     59          6           0       14.415335   -0.655838   -0.250021
     60          6           0       14.104584    1.745329   -0.199426
     61          6           0       15.273047    2.217114   -1.046880
     62          6           0       15.859425    3.619679   -0.642959
     63          6           0       17.194424    4.045290   -1.405932
     64          6           0       17.108326    4.135727   -2.847808
     65          6           0       17.681210    5.414427   -0.804741
     66          1           0       -2.911860    1.082817    3.808053
     67          1           0       -6.280209    5.629863    0.716626
     68          1           0       -8.885285    1.149301   -3.048138
     69          1           0       -3.646921   -3.196832    1.929842
     70          1           0       -1.699832   -1.147403    2.800597
     71          1           0       -3.146699   -2.734298    4.423608
     72          1           0       -3.582208   -0.932133    4.671930
     73          1           0       -4.671269   -1.839440    3.562631
     74          1           0       -2.124643   -3.398577   -0.212359
     75          1           0       -1.257465   -1.832627    0.351375
     76          1           0       -0.410890   -3.119824    2.362696
     77          1           0       -1.505550   -4.389161    2.071456
     78          1           0       -1.788242    3.604587    4.171153
     79          1           0       -3.122421    4.922987    4.906519
     80          1           0       -3.060081    3.105557    5.076696
     81          1           0       -5.341742    6.671084    2.185301
     82          1           0      -10.116876    3.018045   -3.247607
     83          1           0      -10.157563    4.647363   -3.242636
     84          1           0       -9.587496    3.885097   -5.416535
     85          1           0       -8.235087    4.841903   -4.694146
     86          1           0       -8.221835    3.128170   -4.695559
     87          1           0       -8.286942   -1.001272   -4.687055
     88          1           0       -8.520008   -2.602513   -4.113454
     89          1           0       -9.373299   -1.214574   -3.300908
     90          1           0       -4.287787   -3.888238   -1.749765
     91          1           0        2.734390   -6.167608    0.782834
     92          1           0        2.184582   -5.044004   -0.498106
     93          1           0        3.875916   -4.146803    2.048791
     94          1           0        2.604190   -3.183610   -1.510540
     95          1           0        4.010409   -1.913646   -1.440517
     96          1           0        4.405650   -3.686351   -1.797778
     97          1           0        4.793070   -1.323302    0.272094
     98          1           0        5.122315   -2.124662    1.839981
     99          1           0        6.811230   -3.920883    0.179675
    100          1           0        6.506803   -2.892205   -1.166401
    101          1           0        7.186195   -0.828476    0.288709
    102          1           0        7.617049   -2.123310    1.725617
    103          1           0        9.102439   -1.973804   -1.094097
    104          1           0        8.994864   -4.183801   -0.284005
    105          1           0       10.470553   -3.638755   -0.300081
    106          1           0        9.619754   -3.566813    1.181763
    107          1           0        9.539013    0.078999    0.278437
    108          1           0       10.067829   -1.028616    1.476829
    109          1           0       11.960165   -1.785220   -0.159450
    110          1           0       10.938057   -0.857716   -1.367633
    111          1           0       11.500323    1.058301    0.004121
    112          1           0       12.326334    0.290477    1.344913
    113          1           0       13.370788    0.461993   -1.611653
    114          1           0       14.879616   -0.395063    0.720706
    115          1           0       13.859040   -1.612174   -0.419464
    116          1           0       15.308730   -0.442898   -0.826626
    117          1           0       13.210936    2.522449   -0.288381
    118          1           0       14.412159    1.846347    0.906849
    119          1           0       16.227237    1.476563   -0.961260
    120          1           0       15.095536    2.234060   -2.119041
    121          1           0       15.306773    4.601478   -0.979824
    122          1           0       16.211623    3.656052    0.454961
    123          1           0       17.791606    3.186627   -1.196406
    124          1           0       16.234322    4.727662   -3.372410
    125          1           0       18.071739    4.640860   -3.194168
    126          1           0       17.106442    2.968705   -3.161722
    127          1           0       17.878218    5.394538    0.191580
    128          1           0       18.666309    5.795396   -1.316441
    129          1           0       16.834729    6.250949   -1.048101
    130          1           0       -4.938260   -7.864564   -0.178447
    131          1           0       -6.297887   -7.124905    0.798241
    132          1           0       -4.696749   -7.007391    1.493584
    133          8           0       -7.848289    6.803570   -0.348031
    134          1           0       -9.048925    6.213435   -1.963420
 ---------------------------------------------------------------------

 SCF Done:  E(RCAM-B3LYP) =  -3043.43988427     A.U. after   16 cycles

 Excitation energies and oscillator strengths:

 Excited State   1:      Singlet-A      1.9318 eV  641.79 nm  f=0.2482  <S**2>=0.000
     243 -> 246       -0.16117
     244 -> 245        0.68334
 This state for optimization and/or second-order correction.
 Total Energy, E(TD-HF/TD-KS) =  -3043.36889050
 Copying the excited state density for this state as the 1-particle RhoCI density.

 The electronic state is 1-A.
 Alpha  occ. eigenvalues --  -46.81165 -19.22949 -19.22147 -19.17647 -19.17360
 Alpha  occ. eigenvalues --  -19.16735 -19.16021 -19.15937 -14.39514 -14.37154
 Alpha  occ. eigenvalues --  -14.36617 -14.36451 -10.35801 -10.33954 -10.31055
 Alpha  occ. eigenvalues --  -10.30368 -10.30329 -10.28931 -10.28610 -10.27909
 Alpha  occ. eigenvalues --  -10.27510 -10.27009 -10.26731 -10.26375 -10.26250
 Alpha  occ. eigenvalues --  -10.25847 -10.25783 -10.25653 -10.25586 -10.25319
 Alpha  occ. eigenvalues --  -10.25108 -10.24894 -10.24859 -10.24512 -10.24507
 Alpha  occ. eigenvalues --  -10.24490 -10.24253 -10.23918 -10.23781 -10.23390
 Alpha  occ. eigenvalues --  -10.23356 -10.23228 -10.23129 -10.22936 -10.22932
 Alpha  occ. eigenvalues --  -10.22868 -10.22468 -10.22272 -10.22206 -10.22013
 Alpha  occ. eigenvalues --  -10.21978 -10.21679 -10.21565 -10.21368 -10.21336
 Alpha  occ. eigenvalues --  -10.21291 -10.21259 -10.21216 -10.21023 -10.20998
 Alpha  occ. eigenvalues --  -10.20734 -10.20366 -10.20017 -10.19799 -10.19661
 Alpha  occ. eigenvalues --  -10.18057  -3.09779  -1.84719  -1.84265  -1.84174
 Alpha  occ. eigenvalues --   -1.15776  -1.13292  -1.08702  -1.05832  -1.05577
 Alpha  occ. eigenvalues --   -1.05379  -1.02054  -1.00700  -0.99519  -0.99332
 Alpha  occ. eigenvalues --   -0.97416  -0.88528  -0.86687  -0.86030  -0.85521
 Alpha  occ. eigenvalues --   -0.85100  -0.84391  -0.84347  -0.84324  -0.83484
 Alpha  occ. eigenvalues --   -0.83460  -0.82689  -0.82047  -0.80483  -0.79842
 Alpha  occ. eigenvalues --   -0.79531  -0.78677  -0.78241  -0.77505  -0.76932
 Alpha  occ. eigenvalues --   -0.75868  -0.75302  -0.74417  -0.73336  -0.72366
 Alpha  occ. eigenvalues --   -0.71459  -0.70323  -0.70193  -0.70049  -0.69723
 Alpha  occ. eigenvalues --   -0.69522  -0.68725  -0.67518  -0.66777  -0.66185
 Alpha  occ. eigenvalues --   -0.65553  -0.64382  -0.64262  -0.62660  -0.62502
 Alpha  occ. eigenvalues --   -0.61530  -0.60579  -0.60424  -0.59672  -0.59076
 Alpha  occ. eigenvalues --   -0.58727  -0.58656  -0.57630  -0.56906  -0.56567
 Alpha  occ. eigenvalues --   -0.56232  -0.55809  -0.54709  -0.54330  -0.54299
 Alpha  occ. eigenvalues --   -0.53863  -0.53418  -0.52676  -0.52374  -0.52079
 Alpha  occ. eigenvalues --   -0.51949  -0.51837  -0.51628  -0.51442  -0.50146
 Alpha  occ. eigenvalues --   -0.49873  -0.49693  -0.49466  -0.49260  -0.49103
 Alpha  occ. eigenvalues --   -0.48864  -0.48778  -0.48522  -0.48241  -0.47776
 Alpha  occ. eigenvalues --   -0.47711  -0.47409  -0.47300  -0.47151  -0.46974
 Alpha  occ. eigenvalues --   -0.46888  -0.46744  -0.46520  -0.46294  -0.45976
 Alpha  occ. eigenvalues --   -0.45711  -0.45435  -0.45363  -0.45214  -0.44677
 Alpha  occ. eigenvalues --   -0.44530  -0.44363  -0.44079  -0.44044  -0.43766
 Alpha  occ. eigenvalues --   -0.43688  -0.43401  -0.43305  -0.43208  -0.43131
 Alpha  occ. eigenvalues --   -0.42844  -0.42688  -0.42373  -0.42242  -0.42163
 Alpha  occ. eigenvalues --   -0.41682  -0.41469  -0.41367  -0.41179  -0.41059
 Alpha  occ. eigenvalues --   -0.40964  -0.40779  -0.40323  -0.40047  -0.39832
 Alpha  occ. eigenvalues --   -0.39656  -0.39202  -0.39134  -0.39084  -0.38864
 Alpha  occ. eigenvalues --   -0.38706  -0.38515  -0.38312  -0.38108  -0.38077
 Alpha  occ. eigenvalues --   -0.37930  -0.37582  -0.37419  -0.36999  -0.36814
 Alpha  occ. eigenvalues --   -0.36585  -0.36304  -0.36227  -0.36017  -0.35871
 Alpha  occ. eigenvalues --   -0.35562  -0.35370  -0.35110  -0.35044  -0.35024
 Alpha  occ. eigenvalues --   -0.34153  -0.34030  -0.33598  -0.33478  -0.33018
 Alpha  occ. eigenvalues --   -0.32483  -0.32180  -0.31972  -0.31861  -0.31260
 Alpha  occ. eigenvalues --   -0.31256  -0.30929  -0.30287  -0.30107  -0.29152
 Alpha  occ. eigenvalues --   -0.29145  -0.28331  -0.28161  -0.28024  -0.27275
 Alpha  occ. eigenvalues --   -0.27145  -0.26440  -0.23995  -0.21251
 Alpha virt. eigenvalues --   -0.09078  -0.06133  -0.01503  -0.00607   0.00499
 Alpha virt. eigenvalues --    0.01792   0.03178   0.03806   0.04205   0.04471
 Alpha virt. eigenvalues --    0.05158   0.06486   0.07741   0.08987   0.09134

 Mulliken charges:
               1
     1  Mg   0.820051
     2  C    0.116005
     3  C   -0.221068
     4  C   -0.155244
     5  C   -0.173385
     6  N   -0.590294
     7  C    0.279359
     8  C   -0.176071
     9  C   -0.135589
    10  C    0.324869
    11  C   -0.297062
    12  C   -0.147132
    13  C   -0.269022
    14  C    0.614707
    15  O   -0.506373
    16  O   -0.445384
    17  N   -0.739689
    18  C    0.346967
    19  C    0.062137
    20  C   -0.046764
    21  C    0.326539
    22  C   -0.392556
    23  C    0.250856
    24  O   -0.389003
    25  N   -0.724651
    26  C    0.285400
    27  C    0.001952
    28  C   -0.021773
    29  C    0.359243
    30  C    0.253803
    31  C   -0.262996
    32  C   -0.284681
    33  N   -0.725976
    34  C    0.278503
    35  C   -0.011507
    36  C    0.117244
    37  C    0.242090
    38  C   -0.367662
    39  C    0.295731
    40  O   -0.480160
    41  C   -0.339001
    42  C    0.612111
    43  O   -0.454429
    44  O   -0.430857
    45  C   -0.100957
    46  C   -0.018916
    47  C   -0.119008
    48  C    0.153292
    49  C   -0.371799
    50  C   -0.208415
    51  C   -0.166434
    52  C   -0.157352
    53  C   -0.082794
    54  C   -0.312870
    55  C   -0.157873
    56  C   -0.202605
    57  C   -0.178711
    58  C   -0.033660
    59  C   -0.295260
    60  C   -0.166071
    61  C   -0.185171
    62  C   -0.153571
    63  C   -0.064879
    64  C   -0.275164
    65  C   -0.302825
    66  H    0.073616
    67  H    0.132235
    68  H    0.096121
    69  H    0.135127
    70  H    0.091708
    71  H    0.115422
    72  H    0.128608
    73  H    0.112522
    74  H    0.133008
    75  H    0.126205
    76  H    0.140485
    77  H    0.100668
    78  H    0.124886
    79  H    0.138079
    80  H    0.136402
    81  H    0.048135
    82  H    0.105398
    83  H    0.119909
    84  H    0.116873
    85  H    0.095386
    86  H    0.121407
    87  H    0.120209
    88  H    0.147706
    89  H    0.133070
    90  H    0.164674
    91  H    0.123626
    92  H    0.129223
    93  H    0.071226
    94  H    0.164139
    95  H    0.078953
    96  H    0.111991
    97  H    0.059481
    98  H    0.067615
    99  H    0.115361
   100  H    0.090794
   101  H    0.098205
   102  H    0.077755
   103  H    0.071667
   104  H    0.109711
   105  H    0.102296
   106  H    0.094802
   107  H    0.088167
   108  H    0.095465
   109  H    0.098260
   110  H    0.061174
   111  H    0.100403
   112  H    0.098403
   113  H    0.092358
   114  H    0.099497
   115  H    0.097794
   116  H    0.096446
   117  H    0.073573
   118  H    0.083801
   119  H    0.063637
   120  H    0.103981
   121  H    0.076203
   122  H    0.079718
   123  H    0.092120
   124  H    0.086653
   125  H    0.096546
   126  H    0.074979
   127  H    0.114076
   128  H    0.083953
   129  H    0.080037
   130  H    0.137259
   131  H    0.138618
   132  H    0.138378
   133  O   -0.440764
   134  H    0.066367
 Sum of Mulliken charges =   0.00000

 Dipole moment (field-independent basis, Debye):
    X=              2.0864    Y=             -5.5470    Z=              0.2039  Tot=              5.9299
 Quadrupole moment (field-independent basis, Debye-Ang):
   XX=           -370.1863   YY=           -438.1805   ZZ=           -390.6049
   XY=              7.0816   XZ=             20.1505   YZ=            -35.7018

 Normal termination of Gaussian 09 at Tue Oct  8 03:31:21 2019.
