 Gaussian 09, Revision D.01,
 Gaussian 09:  ES64L-G09RevD.01 24-Apr-2013

 ----------------------------------------------------------------------
 # td=(NStates=1) iop(3/107=0140000000,3/108=0140000000) iop(3/107=0140
 000000,3/108=0140000000) CAM-B3LYP/6-31G(d,p)
 ----------------------------------------------------------------------

 --
 TD
 --
 Symbolic Z-matrix:
 Charge =  0 Multiplicity = 1

                         Standard orientation:
 ---------------------------------------------------------------------
 Center     Atomic      Atomic             Coordinates (Angstroms)
 Number     Number       Type             X           Y           Z
 ---------------------------------------------------------------------
      1         12           0       -5.583608    1.180630    0.202513
      2          6           0       -4.903794   -2.069845   -0.481430
      3          6           0       -3.249941    1.203072    2.676529
      4          6           0       -6.295238    4.525725    0.655731
      5          6           0       -7.986933    1.102811   -2.313757
      6          7           0       -4.243782   -0.280380    0.943779
      7          6           0       -4.177111   -1.528117    0.684304
      8          6           0       -3.106585   -2.245822    1.499330
      9          6           0       -2.932933   -1.239155    2.633676
     10          6           0       -3.513004   -0.007355    2.082738
     11          6           0       -3.459375   -1.667601    3.980459
     12          6           0       -1.951861   -2.748434    0.694699
     13          6           0       -0.910528   -3.598271    1.531028
     14          6           0        0.257902   -3.972656    0.583721
     15          8           0        0.509979   -3.360885   -0.422386
     16          8           0        1.068588   -4.815902    1.295971
     17          7           0       -4.924146    2.584821    1.496228
     18          6           0       -3.938003    2.416848    2.369869
     19          6           0       -3.693546    3.652580    3.164042
     20          6           0       -4.550742    4.624689    2.550985
     21          6           0       -5.265047    3.986008    1.464921
     22          6           0       -2.636478    3.763761    4.270689
     23          6           0       -4.776782    5.958345    3.073820
     24          8           0       -4.075455    6.560398    3.864110
     25          7           0       -6.905312    2.640503   -0.645579
     26          6           0       -7.013413    3.937859   -0.394509
     27          6           0       -7.955035    4.549258   -1.308895
     28          6           0       -8.376524    3.564319   -2.170308
     29          6           0       -7.729266    2.363777   -1.680612
     30          6           0       -8.394777    5.974853   -1.112560
     31          6           0       -9.355861    3.780640   -3.229843
     32          6           0       -8.778397    4.108202   -4.631542
     33          7           0       -6.461783   -0.146122   -1.027298
     34          6           0       -7.375081   -0.092801   -2.068911
     35          6           0       -7.568852   -1.297745   -2.694438
     36          6           0       -6.579446   -2.146572   -2.125928
     37          6           0       -5.898051   -1.418857   -1.210506
     38          6           0       -8.483662   -1.606842   -3.775219
     39          6           0       -6.160088   -3.524384   -2.077334
     40          8           0       -6.538818   -4.480207   -2.654950
     41          6           0       -4.999842   -3.697126   -0.842686
     42          6           0       -5.428782   -4.621697    0.110930
     43          8           0       -5.876732   -4.357146    1.295682
     44          8           0       -5.258464   -5.838407   -0.355081
     45          6           0       -5.663087   -6.833204    0.564109
     46          6           0        2.328078   -5.100953    0.658210
     47          6           0        3.451212   -4.183551    0.998849
     48          6           0        4.095713   -3.254393    0.107493
     49          6           0        3.749245   -3.113792   -1.282669
     50          6           0        5.219307   -2.494985    0.803554
     51          6           0        6.664460   -2.755475    0.143138
     52          6           0        7.736551   -1.879916    0.682585
     53          6           0        9.083080   -2.002974   -0.181175
     54          6           0        9.516153   -3.479109    0.034015
     55          6           0       10.103307   -0.898873    0.385273
     56          6           0       11.427300   -0.759119   -0.353167
     57          6           0       12.270314    0.386265    0.108885
     58          6           0       13.554382    0.474949   -0.715221
     59          6           0       14.424518   -0.774714   -0.473777
     60          6           0       14.254612    1.713594   -0.211911
     61          6           0       15.418430    2.237388   -1.014356
     62          6           0       15.883169    3.596751   -0.529345
     63          6           0       17.209021    3.926881   -1.294938
     64          6           0       17.139991    4.082554   -2.763557
     65          6           0       17.872073    5.290923   -0.738273
     66          1           0       -2.632752    1.509812    3.469364
     67          1           0       -6.337377    5.678480    0.684770
     68          1           0       -8.755654    1.212597   -2.975642
     69          1           0       -3.652362   -3.222905    1.920432
     70          1           0       -1.840078   -0.773849    2.780315
     71          1           0       -3.127125   -2.874409    4.107932
     72          1           0       -2.784949   -1.182789    5.053357
     73          1           0       -4.444594   -1.776593    4.041748
     74          1           0       -2.466499   -3.337140   -0.045270
     75          1           0       -1.465567   -1.896418    0.135852
     76          1           0       -0.527865   -3.013203    2.334305
     77          1           0       -1.186874   -4.693566    2.028911
     78          1           0       -1.479458    3.840433    4.216078
     79          1           0       -2.810092    4.728469    4.787050
     80          1           0       -2.948649    3.005361    4.950973
     81          1           0       -5.551023    6.296255    2.433449
     82          1           0      -10.005319    2.943979   -3.420770
     83          1           0      -10.040147    4.570890   -2.973260
     84          1           0       -9.448642    4.143309   -5.309865
     85          1           0       -8.269261    5.052773   -4.531166
     86          1           0       -8.032501    3.377211   -4.860342
     87          1           0       -8.252826   -1.194768   -4.598447
     88          1           0       -8.428636   -2.789791   -3.832348
     89          1           0       -9.571683   -1.192039   -3.543452
     90          1           0       -4.124652   -3.966561   -1.414723
     91          1           0        2.453193   -6.221762    0.901224
     92          1           0        1.856483   -5.055569   -0.391939
     93          1           0        3.678876   -4.205350    2.008367
     94          1           0        2.802862   -3.514047   -1.569990
     95          1           0        3.843994   -2.055514   -1.501342
     96          1           0        4.391612   -3.628780   -2.062323
     97          1           0        5.148530   -1.426662    0.586687
     98          1           0        5.271150   -2.779558    1.895032
     99          1           0        6.654894   -3.836317    0.203414
    100          1           0        6.569419   -2.660063   -1.018649
    101          1           0        7.484288   -0.816579    0.406902
    102          1           0        8.006993   -2.143397    1.685822
    103          1           0        8.807868   -2.031167   -1.177223
    104          1           0        8.868660   -4.171729   -0.320710
    105          1           0       10.601537   -3.737551   -0.349224
    106          1           0        9.570193   -3.498732    1.075662
    107          1           0        9.399516    0.000220    0.239133
    108          1           0       10.301278   -0.982089    1.463412
    109          1           0       11.811777   -1.851306   -0.072204
    110          1           0       11.314797   -0.681823   -1.475374
    111          1           0       11.672642    1.300380   -0.027790
    112          1           0       12.342228    0.334862    1.182565
    113          1           0       13.252282    0.702523   -1.808816
    114          1           0       14.848137   -1.031946    0.632094
    115          1           0       13.855087   -1.676380   -0.689750
    116          1           0       15.318612   -0.747312   -1.069803
    117          1           0       13.414371    2.318977   -0.160131
    118          1           0       14.438255    1.353420    0.854194
    119          1           0       16.122037    1.389661   -1.098779
    120          1           0       15.192164    2.682467   -2.056719
    121          1           0       15.143714    4.342817   -0.603391
    122          1           0       16.266944    3.419549    0.693450
    123          1           0       17.826320    2.973735   -1.198641
    124          1           0       16.472203    4.833865   -3.020211
    125          1           0       17.981956    4.277219   -3.098598
    126          1           0       16.575662    3.253100   -3.244790
    127          1           0       17.892062    5.151029    0.107631
    128          1           0       18.855827    5.440521   -1.147981
    129          1           0       17.199623    6.219658   -1.037172
    130          1           0       -5.609621   -7.791587    0.227746
    131          1           0       -6.736314   -6.607853    0.577862
    132          1           0       -5.174580   -6.802228    1.592520
    133          8           0       -7.980948    6.818126   -0.333798
    134          1           0       -9.144204    6.302361   -1.908164
 ---------------------------------------------------------------------

 SCF Done:  E(RCAM-B3LYP) =  -3043.37225050     A.U. after   16 cycles

 Excitation energies and oscillator strengths:

 Excited State   1:      Singlet-A      2.0305 eV  610.62 nm  f=0.1649  <S**2>=0.000
     243 -> 246        0.28233
     244 -> 245        0.62786
 This state for optimization and/or second-order correction.
 Total Energy, E(TD-HF/TD-KS) =  -3043.29763196
 Copying the excited state density for this state as the 1-particle RhoCI density.

 The electronic state is 1-A.
 Alpha  occ. eigenvalues --  -46.81639 -19.23563 -19.21848 -19.18306 -19.18114
 Alpha  occ. eigenvalues --  -19.17833 -19.17008 -19.15738 -14.39078 -14.36917
 Alpha  occ. eigenvalues --  -14.36646 -14.35797 -10.35001 -10.34512 -10.32164
 Alpha  occ. eigenvalues --  -10.31189 -10.29193 -10.27960 -10.27661 -10.27365
 Alpha  occ. eigenvalues --  -10.27002 -10.26539 -10.26270 -10.26106 -10.25621
 Alpha  occ. eigenvalues --  -10.25434 -10.25098 -10.25069 -10.24919 -10.24816
 Alpha  occ. eigenvalues --  -10.24712 -10.24615 -10.24535 -10.24477 -10.24413
 Alpha  occ. eigenvalues --  -10.24284 -10.24260 -10.24251 -10.23504 -10.23390
 Alpha  occ. eigenvalues --  -10.22917 -10.22883 -10.22882 -10.22851 -10.22560
 Alpha  occ. eigenvalues --  -10.22438 -10.22405 -10.22328 -10.21941 -10.21892
 Alpha  occ. eigenvalues --  -10.21874 -10.21773 -10.21740 -10.21530 -10.21527
 Alpha  occ. eigenvalues --  -10.21494 -10.21456 -10.21148 -10.21048 -10.20693
 Alpha  occ. eigenvalues --  -10.20243 -10.20217 -10.19376 -10.19079 -10.18486
 Alpha  occ. eigenvalues --  -10.17202  -3.10172  -1.85116  -1.84646  -1.84576
 Alpha  occ. eigenvalues --   -1.15025  -1.13170  -1.10007  -1.07048  -1.06348
 Alpha  occ. eigenvalues --   -1.05821  -1.02804  -1.01107  -1.00935  -0.99644
 Alpha  occ. eigenvalues --   -0.98462  -0.87654  -0.86268  -0.86088  -0.85984
 Alpha  occ. eigenvalues --   -0.85594  -0.84811  -0.84325  -0.84301  -0.83598
 Alpha  occ. eigenvalues --   -0.83486  -0.82370  -0.81766  -0.80650  -0.80200
 Alpha  occ. eigenvalues --   -0.79470  -0.78962  -0.78000  -0.77474  -0.76661
 Alpha  occ. eigenvalues --   -0.75779  -0.75447  -0.74095  -0.73126  -0.72955
 Alpha  occ. eigenvalues --   -0.72468  -0.71560  -0.70984  -0.70425  -0.70344
 Alpha  occ. eigenvalues --   -0.69264  -0.68730  -0.68020  -0.67526  -0.66796
 Alpha  occ. eigenvalues --   -0.66061  -0.64622  -0.64508  -0.62439  -0.62118
 Alpha  occ. eigenvalues --   -0.61305  -0.60975  -0.59912  -0.59417  -0.59369
 Alpha  occ. eigenvalues --   -0.58528  -0.58258  -0.58010  -0.57796  -0.56962
 Alpha  occ. eigenvalues --   -0.56700  -0.56090  -0.55679  -0.55402  -0.54574
 Alpha  occ. eigenvalues --   -0.54180  -0.53538  -0.53229  -0.52613  -0.52529
 Alpha  occ. eigenvalues --   -0.52028  -0.51804  -0.51328  -0.51127  -0.50890
 Alpha  occ. eigenvalues --   -0.50647  -0.50098  -0.50023  -0.49846  -0.49350
 Alpha  occ. eigenvalues --   -0.49179  -0.48949  -0.48865  -0.48554  -0.48504
 Alpha  occ. eigenvalues --   -0.47939  -0.47589  -0.47387  -0.47293  -0.47080
 Alpha  occ. eigenvalues --   -0.46933  -0.46621  -0.46537  -0.46220  -0.46137
 Alpha  occ. eigenvalues --   -0.46011  -0.45741  -0.45602  -0.45114  -0.44831
 Alpha  occ. eigenvalues --   -0.44695  -0.44557  -0.44370  -0.44166  -0.43945
 Alpha  occ. eigenvalues --   -0.43832  -0.43638  -0.43437  -0.43159  -0.42652
 Alpha  occ. eigenvalues --   -0.42542  -0.42301  -0.42133  -0.41930  -0.41776
 Alpha  occ. eigenvalues --   -0.41575  -0.41486  -0.41410  -0.41122  -0.40960
 Alpha  occ. eigenvalues --   -0.40925  -0.40678  -0.40638  -0.40554  -0.40427
 Alpha  occ. eigenvalues --   -0.40180  -0.40077  -0.39937  -0.39823  -0.39465
 Alpha  occ. eigenvalues --   -0.39265  -0.39109  -0.38935  -0.38760  -0.38625
 Alpha  occ. eigenvalues --   -0.38161  -0.37919  -0.37768  -0.37429  -0.37122
 Alpha  occ. eigenvalues --   -0.36948  -0.36327  -0.36177  -0.36115  -0.35796
 Alpha  occ. eigenvalues --   -0.35399  -0.35146  -0.35097  -0.34792  -0.34734
 Alpha  occ. eigenvalues --   -0.34174  -0.33904  -0.33775  -0.33366  -0.33049
 Alpha  occ. eigenvalues --   -0.32861  -0.32582  -0.32109  -0.32060  -0.31794
 Alpha  occ. eigenvalues --   -0.31042  -0.30780  -0.29671  -0.29607  -0.29585
 Alpha  occ. eigenvalues --   -0.28852  -0.28126  -0.27767  -0.27659  -0.27511
 Alpha  occ. eigenvalues --   -0.27121  -0.25871  -0.22866  -0.21583
 Alpha virt. eigenvalues --   -0.08551  -0.06621  -0.01801  -0.00986   0.00862
 Alpha virt. eigenvalues --    0.01474   0.02129   0.03119   0.03451   0.03871
 Alpha virt. eigenvalues --    0.05056   0.06035   0.07061   0.08381   0.09051

 Mulliken charges:
               1
     1  Mg   0.822876
     2  C   -0.047733
     3  C   -0.130402
     4  C   -0.188184
     5  C   -0.166241
     6  N   -0.603680
     7  C    0.333586
     8  C   -0.171853
     9  C   -0.143929
    10  C    0.332737
    11  C   -0.270889
    12  C   -0.157387
    13  C   -0.263732
    14  C    0.603061
    15  O   -0.447160
    16  O   -0.470772
    17  N   -0.707326
    18  C    0.309824
    19  C    0.026569
    20  C   -0.047038
    21  C    0.273726
    22  C   -0.398759
    23  C    0.270209
    24  O   -0.426398
    25  N   -0.672296
    26  C    0.294967
    27  C   -0.036796
    28  C    0.052396
    29  C    0.283822
    30  C    0.261614
    31  C   -0.284544
    32  C   -0.304903
    33  N   -0.733124
    34  C    0.316705
    35  C    0.068132
    36  C    0.024326
    37  C    0.323294
    38  C   -0.370682
    39  C    0.313150
    40  O   -0.413911
    41  C   -0.320765
    42  C    0.654536
    43  O   -0.539543
    44  O   -0.414165
    45  C   -0.081433
    46  C   -0.013252
    47  C   -0.131184
    48  C    0.157523
    49  C   -0.381264
    50  C   -0.233663
    51  C   -0.196992
    52  C   -0.159645
    53  C   -0.083402
    54  C   -0.307866
    55  C   -0.175843
    56  C   -0.165746
    57  C   -0.171001
    58  C   -0.065695
    59  C   -0.312810
    60  C   -0.142628
    61  C   -0.168400
    62  C   -0.153437
    63  C   -0.074345
    64  C   -0.288338
    65  C   -0.273611
    66  H    0.078536
    67  H    0.139615
    68  H    0.065935
    69  H    0.120599
    70  H    0.104038
    71  H    0.078678
    72  H    0.073918
    73  H    0.144712
    74  H    0.114565
    75  H    0.125123
    76  H    0.151276
    77  H    0.110988
    78  H    0.131781
    79  H    0.156620
    80  H    0.129676
    81  H    0.071701
    82  H    0.111321
    83  H    0.118057
    84  H    0.120728
    85  H    0.114439
    86  H    0.111643
    87  H    0.150421
    88  H    0.136417
    89  H    0.106996
    90  H    0.161126
    91  H    0.105588
    92  H    0.106360
    93  H    0.086577
    94  H    0.150751
    95  H    0.117207
    96  H    0.113284
    97  H    0.099355
    98  H    0.100215
    99  H    0.106954
   100  H    0.077354
   101  H    0.092441
   102  H    0.101081
   103  H    0.093095
   104  H    0.112977
   105  H    0.073697
   106  H    0.099472
   107  H    0.071048
   108  H    0.092268
   109  H    0.082178
   110  H    0.085830
   111  H    0.091063
   112  H    0.092513
   113  H    0.077120
   114  H    0.079045
   115  H    0.108230
   116  H    0.104382
   117  H    0.082534
   118  H    0.080614
   119  H    0.094911
   120  H    0.083331
   121  H    0.102651
   122  H    0.039020
   123  H    0.077123
   124  H    0.096867
   125  H    0.107105
   126  H    0.084209
   127  H    0.099700
   128  H    0.096768
   129  H    0.078979
   130  H    0.125965
   131  H    0.131042
   132  H    0.125562
   133  O   -0.417023
   134  H    0.051361
 Sum of Mulliken charges =   0.00000

 Dipole moment (field-independent basis, Debye):
    X=              2.1941    Y=             -4.7160    Z=             -2.5675  Tot=              5.8006
 Quadrupole moment (field-independent basis, Debye-Ang):
   XX=           -383.3116   YY=           -439.3435   ZZ=           -390.5389
   XY=             11.6615   XZ=             28.4518   YZ=            -33.5680

 Normal termination of Gaussian 09 at Tue Oct  8 01:44:08 2019.
