 Gaussian 09, Revision D.01,
 Gaussian 09:  ES64L-G09RevD.01 24-Apr-2013

 ----------------------------------------------------------------------
 # td=(NStates=1) iop(3/107=0140000000,3/108=0140000000) iop(3/107=0140
 000000,3/108=0140000000) CAM-B3LYP/6-31G(d,p)
 ----------------------------------------------------------------------

 --
 TD
 --
 Symbolic Z-matrix:
 Charge =  0 Multiplicity = 1

                         Standard orientation:
 ---------------------------------------------------------------------
 Center     Atomic      Atomic             Coordinates (Angstroms)
 Number     Number       Type             X           Y           Z
 ---------------------------------------------------------------------
      1         12           0       -5.653269    1.162508    0.269215
      2          6           0       -5.008284   -2.154591   -0.352891
      3          6           0       -3.447441    1.161675    2.823928
      4          6           0       -6.163425    4.595791    0.605580
      5          6           0       -7.957470    1.269191   -2.292315
      6          7           0       -4.459949   -0.306931    1.103932
      7          6           0       -4.305760   -1.563994    0.705326
      8          6           0       -3.275033   -2.279534    1.468947
      9          6           0       -2.962842   -1.267305    2.649831
     10          6           0       -3.663880   -0.066210    2.247913
     11          6           0       -3.485439   -1.786959    4.043321
     12          6           0       -1.967144   -2.507760    0.691132
     13          6           0       -0.966563   -3.490396    1.359628
     14          6           0        0.295913   -3.875817    0.588584
     15          8           0        0.507722   -3.454642   -0.571039
     16          8           0        0.978739   -4.603203    1.337095
     17          7           0       -4.955353    2.541062    1.590850
     18          6           0       -4.021104    2.360051    2.471819
     19          6           0       -3.760008    3.600309    3.187848
     20          6           0       -4.468009    4.518666    2.561276
     21          6           0       -5.323478    3.893983    1.524997
     22          6           0       -2.802600    3.773834    4.239320
     23          6           0       -4.473102    5.917747    2.958645
     24          8           0       -4.000987    6.532501    3.908414
     25          7           0       -6.836590    2.666804   -0.674128
     26          6           0       -6.973510    4.019003   -0.369374
     27          6           0       -7.902441    4.650088   -1.256167
     28          6           0       -8.508874    3.680161   -2.113636
     29          6           0       -7.810140    2.454527   -1.739854
     30          6           0       -8.226290    6.093505   -1.292306
     31          6           0       -9.427252    3.677116   -3.180907
     32          6           0       -8.654190    3.878136   -4.574563
     33          7           0       -6.478694   -0.165359   -0.999789
     34          6           0       -7.470574   -0.018564   -1.963958
     35          6           0       -7.548661   -1.387859   -2.703257
     36          6           0       -6.657298   -2.181842   -2.102407
     37          6           0       -6.035734   -1.446448   -1.088099
     38          6           0       -8.351642   -1.644781   -3.950788
     39          6           0       -6.128418   -3.464027   -2.030108
     40          8           0       -6.491329   -4.483750   -2.692460
     41          6           0       -5.038263   -3.599595   -0.977150
     42          6           0       -5.390272   -4.676574    0.091645
     43          8           0       -5.897377   -4.495114    1.171117
     44          8           0       -4.962238   -5.805073   -0.366918
     45          6           0       -5.209639   -6.919217    0.519010
     46          6           0        2.337921   -5.062907    0.697883
     47          6           0        3.346701   -3.972311    1.041443
     48          6           0        3.915879   -3.133870    0.150526
     49          6           0        3.638118   -3.105923   -1.339722
     50          6           0        5.081306   -2.336541    0.710941
     51          6           0        6.483729   -2.644991    0.062248
     52          6           0        7.721344   -1.884627    0.609498
     53          6           0        8.997826   -1.991944   -0.001717
     54          6           0        9.597816   -3.379389    0.219336
     55          6           0        9.964685   -0.939907    0.417262
     56          6           0       11.304463   -0.897824   -0.450175
     57          6           0       12.144009    0.283563    0.130131
     58          6           0       13.606474    0.442767   -0.626072
     59          6           0       14.432206   -0.823713   -0.425387
     60          6           0       14.237414    1.724737   -0.279976
     61          6           0       15.472733    2.126935   -1.107295
     62          6           0       16.149795    3.386928   -0.662615
     63          6           0       17.349315    3.889166   -1.222832
     64          6           0       17.296189    4.179446   -2.841032
     65          6           0       17.899340    5.128348   -0.632941
     66          1           0       -2.879864    1.216841    3.896451
     67          1           0       -6.183263    5.707118    0.685304
     68          1           0       -8.753483    1.258973   -3.134885
     69          1           0       -3.585632   -3.202171    1.843703
     70          1           0       -1.940649   -1.095070    2.933859
     71          1           0       -2.919999   -2.680867    4.298302
     72          1           0       -3.536406   -0.999568    4.760434
     73          1           0       -4.596752   -2.250348    3.863059
     74          1           0       -2.249234   -2.893815   -0.443111
     75          1           0       -1.497634   -1.465609    0.471479
     76          1           0       -0.731429   -2.902104    2.438422
     77          1           0       -1.525219   -4.419415    1.556255
     78          1           0       -1.837207    3.709523    3.926176
     79          1           0       -3.226426    4.890027    4.706462
     80          1           0       -2.893599    2.930844    5.052218
     81          1           0       -4.946826    6.469227    2.155947
     82          1           0       -9.811448    2.672227   -3.487524
     83          1           0      -10.014129    4.579264   -3.032751
     84          1           0       -9.594296    3.745223   -5.355104
     85          1           0       -8.108362    4.817638   -4.858102
     86          1           0       -7.950112    3.138750   -4.863866
     87          1           0       -7.882693   -1.128027   -4.828088
     88          1           0       -8.294282   -2.848275   -3.966129
     89          1           0       -9.416319   -1.186722   -3.844306
     90          1           0       -4.235635   -3.689282   -1.564440
     91          1           0        2.646169   -5.920899    1.254985
     92          1           0        2.346162   -5.325483   -0.426851
     93          1           0        3.641208   -4.031219    2.225335
     94          1           0        2.396256   -3.347804   -1.405806
     95          1           0        4.061938   -2.270399   -1.846478
     96          1           0        4.321379   -3.812461   -1.771723
     97          1           0        4.897315   -1.105189    0.738476
     98          1           0        5.290905   -2.236852    1.745987
     99          1           0        6.812769   -3.653765    0.213379
    100          1           0        6.328318   -2.619370   -1.004339
    101          1           0        7.307639   -0.907474    0.348123
    102          1           0        7.544292   -1.946867    1.628753
    103          1           0        8.784387   -1.994806   -1.073493
    104          1           0        8.712932   -4.050773   -0.116853
    105          1           0       10.598795   -3.528931   -0.157940
    106          1           0        9.770017   -3.725325    1.379142
    107          1           0        9.385210   -0.047522    0.352563
    108          1           0       10.355654   -0.949979    1.389385
    109          1           0       11.720339   -1.856122   -0.463576
    110          1           0       11.055777   -0.703057   -1.349930
    111          1           0       11.617536    1.247527   -0.057458
    112          1           0       11.991166    0.143123    1.277343
    113          1           0       13.434302    0.431281   -1.783440
    114          1           0       14.446662   -0.808683    0.631583
    115          1           0       13.909596   -1.638758   -0.728605
    116          1           0       15.320374   -0.811788   -0.705155
    117          1           0       13.414804    2.477881   -0.500614
    118          1           0       14.475493    1.607910    0.896197
    119          1           0       16.442854    1.344359   -1.009331
    120          1           0       15.300741    2.116347   -2.191844
    121          1           0       15.353095    4.061778   -0.650266
    122          1           0       16.349947    3.313660    0.529878
    123          1           0       18.282169    3.088534   -1.214374
    124          1           0       16.285963    4.745669   -2.899299
    125          1           0       18.341019    4.576951   -3.366765
    126          1           0       17.295501    3.058976   -3.338279
    127          1           0       18.358905    5.169089    0.414960
    128          1           0       18.807046    5.506676   -1.103912
    129          1           0       17.230268    6.003289   -0.632725
    130          1           0       -5.096904   -7.928514   -0.026586
    131          1           0       -6.312126   -6.989391    0.664555
    132          1           0       -4.722742   -7.030301    1.489787
    133          8           0       -7.813960    6.975062   -0.524913
    134          1           0       -8.833782    6.347393   -2.234405
 ---------------------------------------------------------------------

 SCF Done:  E(RCAM-B3LYP) =  -3043.38410206     A.U. after   16 cycles

 Excitation energies and oscillator strengths:

 Excited State   1:      Singlet-A      2.0088 eV  617.21 nm  f=0.1890  <S**2>=0.000
     243 -> 246       -0.25939
     244 -> 245        0.65020
 This state for optimization and/or second-order correction.
 Total Energy, E(TD-HF/TD-KS) =  -3043.31028027
 Copying the excited state density for this state as the 1-particle RhoCI density.

 The electronic state is 1-A.
 Alpha  occ. eigenvalues --  -46.81083 -19.24843 -19.24500 -19.17669 -19.17619
 Alpha  occ. eigenvalues --  -19.17324 -19.16684 -19.16114 -14.38814 -14.37049
 Alpha  occ. eigenvalues --  -14.36839 -14.36670 -10.35815 -10.35356 -10.30884
 Alpha  occ. eigenvalues --  -10.30582 -10.29893 -10.29864 -10.28521 -10.27456
 Alpha  occ. eigenvalues --  -10.27397 -10.27160 -10.26837 -10.26264 -10.25783
 Alpha  occ. eigenvalues --  -10.25758 -10.25642 -10.25377 -10.25210 -10.25166
 Alpha  occ. eigenvalues --  -10.24732 -10.24656 -10.24553 -10.24461 -10.24360
 Alpha  occ. eigenvalues --  -10.24335 -10.24253 -10.23932 -10.23885 -10.23744
 Alpha  occ. eigenvalues --  -10.23672 -10.23629 -10.23493 -10.23420 -10.23410
 Alpha  occ. eigenvalues --  -10.23281 -10.23083 -10.22961 -10.22931 -10.22417
 Alpha  occ. eigenvalues --  -10.22369 -10.22343 -10.22291 -10.22184 -10.22008
 Alpha  occ. eigenvalues --  -10.21939 -10.21571 -10.21368 -10.21299 -10.21187
 Alpha  occ. eigenvalues --  -10.20698 -10.20034 -10.19845 -10.19714 -10.19213
 Alpha  occ. eigenvalues --  -10.16807  -3.09701  -1.84643  -1.84158  -1.84123
 Alpha  occ. eigenvalues --   -1.16570  -1.16202  -1.06646  -1.06061  -1.05512
 Alpha  occ. eigenvalues --   -1.04112  -1.03599  -1.01371  -1.00375  -0.99235
 Alpha  occ. eigenvalues --   -0.97155  -0.88677  -0.87357  -0.86762  -0.85850
 Alpha  occ. eigenvalues --   -0.85665  -0.85396  -0.85192  -0.84766  -0.83818
 Alpha  occ. eigenvalues --   -0.83790  -0.83116  -0.81698  -0.81038  -0.79899
 Alpha  occ. eigenvalues --   -0.79129  -0.78349  -0.77901  -0.77533  -0.77056
 Alpha  occ. eigenvalues --   -0.76038  -0.75000  -0.74259  -0.73712  -0.72288
 Alpha  occ. eigenvalues --   -0.72055  -0.71757  -0.70229  -0.69930  -0.69374
 Alpha  occ. eigenvalues --   -0.68841  -0.68689  -0.67854  -0.67167  -0.66703
 Alpha  occ. eigenvalues --   -0.66188  -0.65251  -0.64956  -0.63261  -0.62557
 Alpha  occ. eigenvalues --   -0.62290  -0.62038  -0.61572  -0.60099  -0.59832
 Alpha  occ. eigenvalues --   -0.59427  -0.58190  -0.57669  -0.57287  -0.57079
 Alpha  occ. eigenvalues --   -0.56468  -0.56114  -0.55983  -0.55457  -0.54913
 Alpha  occ. eigenvalues --   -0.54473  -0.53977  -0.53285  -0.53044  -0.52223
 Alpha  occ. eigenvalues --   -0.52069  -0.51693  -0.51583  -0.51169  -0.51065
 Alpha  occ. eigenvalues --   -0.50805  -0.50691  -0.50001  -0.49831  -0.49726
 Alpha  occ. eigenvalues --   -0.49214  -0.48895  -0.48672  -0.48328  -0.48037
 Alpha  occ. eigenvalues --   -0.47778  -0.47706  -0.47492  -0.47241  -0.47094
 Alpha  occ. eigenvalues --   -0.46990  -0.46879  -0.46434  -0.46144  -0.45784
 Alpha  occ. eigenvalues --   -0.45595  -0.45335  -0.45272  -0.45056  -0.44749
 Alpha  occ. eigenvalues --   -0.44459  -0.44283  -0.43967  -0.43829  -0.43742
 Alpha  occ. eigenvalues --   -0.43646  -0.43408  -0.43049  -0.42841  -0.42758
 Alpha  occ. eigenvalues --   -0.42425  -0.42219  -0.42112  -0.41915  -0.41693
 Alpha  occ. eigenvalues --   -0.41531  -0.41240  -0.41122  -0.40982  -0.40747
 Alpha  occ. eigenvalues --   -0.40568  -0.40472  -0.40266  -0.40156  -0.40041
 Alpha  occ. eigenvalues --   -0.39867  -0.39665  -0.39463  -0.39358  -0.39097
 Alpha  occ. eigenvalues --   -0.38881  -0.38639  -0.38597  -0.38411  -0.38367
 Alpha  occ. eigenvalues --   -0.38316  -0.38280  -0.37957  -0.37640  -0.37325
 Alpha  occ. eigenvalues --   -0.37067  -0.36639  -0.36453  -0.35921  -0.35809
 Alpha  occ. eigenvalues --   -0.35405  -0.35263  -0.34992  -0.34759  -0.34752
 Alpha  occ. eigenvalues --   -0.34483  -0.34188  -0.34061  -0.33973  -0.33278
 Alpha  occ. eigenvalues --   -0.32773  -0.32608  -0.32166  -0.32081  -0.31670
 Alpha  occ. eigenvalues --   -0.31614  -0.30505  -0.30266  -0.30107  -0.29732
 Alpha  occ. eigenvalues --   -0.28958  -0.28556  -0.28017  -0.27810  -0.27533
 Alpha  occ. eigenvalues --   -0.27232  -0.27076  -0.23088  -0.21244
 Alpha virt. eigenvalues --   -0.08322  -0.06575  -0.01593  -0.00974   0.00064
 Alpha virt. eigenvalues --    0.01834   0.03336   0.03698   0.03762   0.04465
 Alpha virt. eigenvalues --    0.04641   0.05464   0.07450   0.08276   0.08901

 Mulliken charges:
               1
     1  Mg   0.817870
     2  C    0.020786
     3  C   -0.200052
     4  C   -0.186833
     5  C   -0.196782
     6  N   -0.670357
     7  C    0.346938
     8  C   -0.148924
     9  C   -0.169118
    10  C    0.372294
    11  C   -0.316668
    12  C   -0.159349
    13  C   -0.253583
    14  C    0.622843
    15  O   -0.507571
    16  O   -0.409063
    17  N   -0.725750
    18  C    0.358197
    19  C    0.076604
    20  C   -0.050488
    21  C    0.301329
    22  C   -0.402296
    23  C    0.259814
    24  O   -0.429853
    25  N   -0.674992
    26  C    0.341084
    27  C   -0.055813
    28  C    0.122968
    29  C    0.291377
    30  C    0.246195
    31  C   -0.273119
    32  C   -0.326776
    33  N   -0.718422
    34  C    0.245619
    35  C   -0.042908
    36  C    0.197568
    37  C    0.279417
    38  C   -0.379384
    39  C    0.280074
    40  O   -0.501730
    41  C   -0.260967
    42  C    0.633592
    43  O   -0.474105
    44  O   -0.392817
    45  C   -0.116425
    46  C   -0.038400
    47  C   -0.132192
    48  C    0.154826
    49  C   -0.401918
    50  C   -0.225971
    51  C   -0.202363
    52  C   -0.179432
    53  C   -0.043727
    54  C   -0.301350
    55  C   -0.182366
    56  C   -0.178800
    57  C   -0.191756
    58  C   -0.075037
    59  C   -0.284967
    60  C   -0.146543
    61  C   -0.172034
    62  C   -0.140097
    63  C   -0.039113
    64  C   -0.297000
    65  C   -0.303964
    66  H    0.078589
    67  H    0.142029
    68  H    0.064939
    69  H    0.116518
    70  H    0.117580
    71  H    0.115376
    72  H    0.119812
    73  H    0.103244
    74  H    0.085650
    75  H    0.106432
    76  H    0.101222
    77  H    0.129905
    78  H    0.144038
    79  H    0.151438
    80  H    0.096114
    81  H    0.067223
    82  H    0.133723
    83  H    0.124820
    84  H    0.082207
    85  H    0.121261
    86  H    0.130994
    87  H    0.137696
    88  H    0.144557
    89  H    0.115157
    90  H    0.167089
    91  H    0.133519
    92  H    0.147051
    93  H    0.085633
    94  H    0.163308
    95  H    0.121449
    96  H    0.125717
    97  H    0.059410
    98  H    0.105558
    99  H    0.099527
   100  H    0.086300
   101  H    0.090075
   102  H    0.098418
   103  H    0.091147
   104  H    0.084742
   105  H    0.106747
   106  H    0.067718
   107  H    0.086011
   108  H    0.096440
   109  H    0.099207
   110  H    0.108276
   111  H    0.089523
   112  H    0.078411
   113  H    0.061971
   114  H    0.095969
   115  H    0.103860
   116  H    0.105511
   117  H    0.089113
   118  H    0.074484
   119  H    0.054457
   120  H    0.101297
   121  H    0.094620
   122  H    0.073989
   123  H    0.058073
   124  H    0.100904
   125  H    0.093914
   126  H    0.078707
   127  H    0.085513
   128  H    0.102034
   129  H    0.096663
   130  H    0.120675
   131  H    0.138464
   132  H    0.139430
   133  O   -0.434254
   134  H    0.054584
 Sum of Mulliken charges =   0.00000

 Dipole moment (field-independent basis, Debye):
    X=              3.4480    Y=             -6.0828    Z=             -1.1453  Tot=              7.0852
 Quadrupole moment (field-independent basis, Debye-Ang):
   XX=           -394.4804   YY=           -435.0325   ZZ=           -396.8747
   XY=              9.2336   XZ=             21.4421   YZ=            -40.7172

 Normal termination of Gaussian 09 at Wed Oct  9 06:59:19 2019.
