 Gaussian 09, Revision D.01,
 Gaussian 09:  ES64L-G09RevD.01 24-Apr-2013

 ----------------------------------------------------------------------
 # td=(NStates=1) iop(3/107=0140000000,3/108=0140000000) iop(3/107=0140
 000000,3/108=0140000000) CAM-B3LYP/6-31G(d,p)
 ----------------------------------------------------------------------

 --
 TD
 --
 Symbolic Z-matrix:
 Charge =  0 Multiplicity = 1

                         Standard orientation:
 ---------------------------------------------------------------------
 Center     Atomic      Atomic             Coordinates (Angstroms)
 Number     Number       Type             X           Y           Z
 ---------------------------------------------------------------------
      1         12           0       -5.582817    1.207064    0.148068
      2          6           0       -4.976690   -2.110367   -0.373862
      3          6           0       -3.415827    1.222264    2.673962
      4          6           0       -6.308353    4.552521    0.592972
      5          6           0       -8.107697    1.089237   -2.352443
      6          7           0       -4.449220   -0.257749    1.064177
      7          6           0       -4.223187   -1.577141    0.605584
      8          6           0       -3.174106   -2.233617    1.501935
      9          6           0       -2.879742   -1.258854    2.678414
     10          6           0       -3.647254   -0.024040    2.153501
     11          6           0       -3.482763   -1.682967    4.038591
     12          6           0       -1.984195   -2.715679    0.661576
     13          6           0       -0.971105   -3.593856    1.439722
     14          6           0        0.311124   -3.924168    0.573052
     15          8           0        0.547174   -3.600571   -0.561091
     16          8           0        1.161662   -4.776421    1.301410
     17          7           0       -4.821931    2.685002    1.339891
     18          6           0       -3.972991    2.461326    2.306186
     19          6           0       -3.731871    3.673498    3.155608
     20          6           0       -4.500920    4.726884    2.445142
     21          6           0       -5.141497    3.978738    1.389681
     22          6           0       -2.768309    3.778038    4.216515
     23          6           0       -4.586230    6.086721    2.756505
     24          8           0       -4.010552    6.518946    3.691988
     25          7           0       -6.901160    2.556714   -0.726835
     26          6           0       -6.996907    3.957067   -0.310186
     27          6           0       -8.021191    4.627070   -1.229825
     28          6           0       -8.518031    3.642686   -1.968458
     29          6           0       -7.805049    2.376811   -1.722816
     30          6           0       -8.595977    5.963282   -1.007537
     31          6           0       -9.551925    3.727773   -3.075417
     32          6           0       -8.918638    3.949576   -4.487400
     33          7           0       -6.377002   -0.073926   -1.147025
     34          6           0       -7.402421   -0.064676   -2.044406
     35          6           0       -7.608799   -1.321822   -2.678255
     36          6           0       -6.676205   -2.141313   -1.992755
     37          6           0       -6.017748   -1.325916   -1.005002
     38          6           0       -8.568364   -1.765356   -3.677835
     39          6           0       -6.186966   -3.557919   -2.015028
     40          8           0       -6.619775   -4.499250   -2.591766
     41          6           0       -5.078168   -3.534859   -0.938885
     42          6           0       -5.343661   -4.627222    0.088432
     43          8           0       -5.649078   -4.458972    1.226147
     44          8           0       -4.788480   -5.859318   -0.356819
     45          6           0       -5.208774   -6.923978    0.483349
     46          6           0        2.406229   -5.083272    0.633065
     47          6           0        3.430795   -4.145245    1.116515
     48          6           0        4.057212   -3.295806    0.209429
     49          6           0        3.608374   -3.221598   -1.284410
     50          6           0        5.200349   -2.470630    0.724561
     51          6           0        6.576173   -2.813935    0.080581
     52          6           0        7.645402   -1.835098    0.533854
     53          6           0        8.978704   -1.943844   -0.069505
     54          6           0        9.618329   -3.322711    0.058328
     55          6           0        9.959336   -0.878124    0.345154
     56          6           0       11.336260   -0.785765   -0.285719
     57          6           0       12.254767    0.235125    0.173827
     58          6           0       13.658783    0.419524   -0.528110
     59          6           0       14.487301   -0.717958   -0.267533
     60          6           0       14.360474    1.798601   -0.145638
     61          6           0       15.523524    2.207493   -1.024711
     62          6           0       16.086147    3.552812   -0.684551
     63          6           0       17.443790    4.002873   -1.417980
     64          6           0       17.190095    4.134099   -2.868840
     65          6           0       17.893930    5.287624   -0.784288
     66          1           0       -2.728318    1.152532    3.620338
     67          1           0       -6.480793    5.627641    0.665429
     68          1           0       -8.864848    1.131753   -3.134030
     69          1           0       -3.594132   -3.303313    1.819049
     70          1           0       -1.811372   -1.040377    3.094870
     71          1           0       -2.935829   -2.503847    4.356678
     72          1           0       -3.469190   -0.887874    4.733938
     73          1           0       -4.442622   -1.835814    3.835394
     74          1           0       -2.365911   -3.298590   -0.143080
     75          1           0       -1.520208   -1.874776    0.230493
     76          1           0       -0.689509   -3.070835    2.295899
     77          1           0       -1.363419   -4.601117    1.700491
     78          1           0       -1.769050    3.268932    3.957345
     79          1           0       -2.817740    4.607935    4.650363
     80          1           0       -3.164998    3.211776    5.047454
     81          1           0       -5.219569    6.910855    2.058759
     82          1           0      -10.115589    2.821628   -3.163651
     83          1           0      -10.189739    4.636343   -2.892431
     84          1           0       -9.694287    3.893424   -5.045781
     85          1           0       -8.240644    4.933928   -4.624710
     86          1           0       -8.303408    3.036335   -4.771552
     87          1           0       -8.409509   -1.222647   -4.618801
     88          1           0       -8.729937   -2.836673   -3.610632
     89          1           0       -9.676856   -1.516433   -3.247331
     90          1           0       -4.449946   -4.008583   -1.552579
     91          1           0        2.514498   -6.074906    1.133677
     92          1           0        2.082955   -5.340906   -0.500569
     93          1           0        3.718140   -4.346886    2.078211
     94          1           0        2.510627   -3.366972   -1.187577
     95          1           0        3.955667   -2.269856   -1.712551
     96          1           0        4.123131   -4.254925   -1.833860
     97          1           0        4.916680   -1.313264    0.400572
     98          1           0        5.448354   -2.553286    1.717906
     99          1           0        6.717516   -3.860098    0.582973
    100          1           0        6.455868   -2.817801   -0.956075
    101          1           0        7.048569   -0.905904    0.438592
    102          1           0        7.794201   -2.051471    1.690725
    103          1           0        8.793563   -1.947098   -1.186025
    104          1           0        9.017636   -4.178544   -0.263832
    105          1           0       10.578045   -3.200692   -0.522222
    106          1           0        9.690690   -3.513883    1.087650
    107          1           0        9.614542    0.091786    0.309957
    108          1           0       10.164190   -0.983667    1.417083
    109          1           0       11.896549   -1.689187   -0.310559
    110          1           0       10.936102   -0.795637   -1.224701
    111          1           0       11.923430    1.291756    0.349557
    112          1           0       12.440699    0.132872    1.271744
    113          1           0       13.487036    0.642379   -1.676725
    114          1           0       14.692667   -0.713951    0.905390
    115          1           0       13.992045   -1.631464   -0.829961
    116          1           0       15.661582   -0.589144   -0.784204
    117          1           0       13.582072    2.568404   -0.226589
    118          1           0       14.660815    1.841505    0.815343
    119          1           0       16.170234    1.316569   -1.135600
    120          1           0       15.190792    2.306208   -2.131265
    121          1           0       15.159419    4.250698   -0.799092
    122          1           0       16.189897    3.706193    0.499931
    123          1           0       18.158112    3.220402   -1.229315
    124          1           0       16.317808    4.916596   -3.216618
    125          1           0       18.089920    4.232998   -3.279526
    126          1           0       16.626122    3.250478   -3.235270
    127          1           0       18.114264    5.321380    0.259700
    128          1           0       18.750780    5.722228   -1.074724
    129          1           0       16.999178    6.055308   -0.888054
    130          1           0       -4.690161   -7.741839    0.018316
    131          1           0       -6.365586   -6.778834    0.638632
    132          1           0       -4.702814   -6.806362    1.463716
    133          8           0       -8.030833    6.815060   -0.239884
    134          1           0       -9.353596    6.332316   -1.752703
 ---------------------------------------------------------------------

 SCF Done:  E(RCAM-B3LYP) =  -3043.43422411     A.U. after   16 cycles

 Excitation energies and oscillator strengths:

 Excited State   1:      Singlet-A      1.7907 eV  692.39 nm  f=0.2881  <S**2>=0.000
     243 -> 246       -0.14049
     244 -> 245        0.69060
 This state for optimization and/or second-order correction.
 Total Energy, E(TD-HF/TD-KS) =  -3043.36841827
 Copying the excited state density for this state as the 1-particle RhoCI density.

 The electronic state is 1-A.
 Alpha  occ. eigenvalues --  -46.81437 -19.21774 -19.20830 -19.18841 -19.18306
 Alpha  occ. eigenvalues --  -19.18126 -19.17881 -19.15694 -14.39139 -14.37490
 Alpha  occ. eigenvalues --  -14.37039 -14.36969 -10.35642 -10.35399 -10.31944
 Alpha  occ. eigenvalues --  -10.31784 -10.29423 -10.27882 -10.27303 -10.27225
 Alpha  occ. eigenvalues --  -10.27187 -10.27040 -10.26572 -10.26439 -10.26414
 Alpha  occ. eigenvalues --  -10.25951 -10.25841 -10.25271 -10.25146 -10.25042
 Alpha  occ. eigenvalues --  -10.24937 -10.24766 -10.24756 -10.24657 -10.24494
 Alpha  occ. eigenvalues --  -10.24254 -10.24148 -10.23827 -10.23769 -10.23665
 Alpha  occ. eigenvalues --  -10.23134 -10.23030 -10.22679 -10.22558 -10.22512
 Alpha  occ. eigenvalues --  -10.22348 -10.22346 -10.22193 -10.22165 -10.22042
 Alpha  occ. eigenvalues --  -10.21936 -10.21743 -10.21625 -10.21450 -10.21350
 Alpha  occ. eigenvalues --  -10.21015 -10.20788 -10.20738 -10.20163 -10.20107
 Alpha  occ. eigenvalues --  -10.19919 -10.19820 -10.19778 -10.19635 -10.19269
 Alpha  occ. eigenvalues --  -10.19170  -3.10152  -1.85081  -1.84635  -1.84564
 Alpha  occ. eigenvalues --   -1.13551  -1.12264  -1.09699  -1.07977  -1.05805
 Alpha  occ. eigenvalues --   -1.04703  -1.04341  -1.02130  -1.01386  -0.98830
 Alpha  occ. eigenvalues --   -0.97838  -0.89161  -0.86917  -0.85687  -0.85537
 Alpha  occ. eigenvalues --   -0.85396  -0.85002  -0.84573  -0.84028  -0.83823
 Alpha  occ. eigenvalues --   -0.83623  -0.83199  -0.81713  -0.81202  -0.80490
 Alpha  occ. eigenvalues --   -0.79514  -0.79085  -0.78251  -0.77325  -0.77062
 Alpha  occ. eigenvalues --   -0.76036  -0.75652  -0.74018  -0.72614  -0.72517
 Alpha  occ. eigenvalues --   -0.71941  -0.71033  -0.70628  -0.70310  -0.69604
 Alpha  occ. eigenvalues --   -0.69512  -0.68898  -0.67024  -0.66674  -0.65938
 Alpha  occ. eigenvalues --   -0.65752  -0.64694  -0.64379  -0.62337  -0.61529
 Alpha  occ. eigenvalues --   -0.61348  -0.61078  -0.60819  -0.58982  -0.58845
 Alpha  occ. eigenvalues --   -0.58760  -0.57619  -0.57439  -0.57232  -0.56795
 Alpha  occ. eigenvalues --   -0.56373  -0.56008  -0.55784  -0.55458  -0.54943
 Alpha  occ. eigenvalues --   -0.54462  -0.53754  -0.53030  -0.52474  -0.52342
 Alpha  occ. eigenvalues --   -0.52143  -0.51759  -0.51488  -0.51175  -0.50636
 Alpha  occ. eigenvalues --   -0.50305  -0.50221  -0.49983  -0.49663  -0.49458
 Alpha  occ. eigenvalues --   -0.49349  -0.49153  -0.48786  -0.48622  -0.48473
 Alpha  occ. eigenvalues --   -0.48139  -0.48117  -0.47720  -0.47548  -0.47328
 Alpha  occ. eigenvalues --   -0.47137  -0.46766  -0.46589  -0.46489  -0.46354
 Alpha  occ. eigenvalues --   -0.46027  -0.45714  -0.45577  -0.45414  -0.44948
 Alpha  occ. eigenvalues --   -0.44917  -0.44672  -0.44618  -0.44081  -0.43844
 Alpha  occ. eigenvalues --   -0.43762  -0.43532  -0.43220  -0.43060  -0.42967
 Alpha  occ. eigenvalues --   -0.42647  -0.42410  -0.42259  -0.42179  -0.42066
 Alpha  occ. eigenvalues --   -0.41896  -0.41704  -0.41703  -0.41482  -0.41410
 Alpha  occ. eigenvalues --   -0.41336  -0.41021  -0.40931  -0.40661  -0.40459
 Alpha  occ. eigenvalues --   -0.40387  -0.39984  -0.39816  -0.39626  -0.39172
 Alpha  occ. eigenvalues --   -0.38876  -0.38694  -0.38625  -0.38548  -0.38074
 Alpha  occ. eigenvalues --   -0.37962  -0.37882  -0.37863  -0.37445  -0.37380
 Alpha  occ. eigenvalues --   -0.36671  -0.36645  -0.36602  -0.36494  -0.35811
 Alpha  occ. eigenvalues --   -0.35346  -0.35049  -0.34961  -0.34853  -0.34344
 Alpha  occ. eigenvalues --   -0.34182  -0.34116  -0.33754  -0.32819  -0.32678
 Alpha  occ. eigenvalues --   -0.32547  -0.32272  -0.32060  -0.32008  -0.31879
 Alpha  occ. eigenvalues --   -0.31594  -0.30904  -0.30861  -0.30734  -0.30363
 Alpha  occ. eigenvalues --   -0.29230  -0.28726  -0.28448  -0.27963  -0.26997
 Alpha  occ. eigenvalues --   -0.26709  -0.26133  -0.23952  -0.20519
 Alpha virt. eigenvalues --   -0.09320  -0.06137  -0.01440  -0.00877   0.00624
 Alpha virt. eigenvalues --    0.01678   0.02587   0.03561   0.03836   0.04001
 Alpha virt. eigenvalues --    0.04448   0.05814   0.08224   0.08391   0.09188

 Mulliken charges:
               1
     1  Mg   0.821255
     2  C    0.040637
     3  C   -0.188353
     4  C   -0.186377
     5  C   -0.175331
     6  N   -0.674100
     7  C    0.312573
     8  C   -0.167859
     9  C   -0.154361
    10  C    0.344942
    11  C   -0.298945
    12  C   -0.171514
    13  C   -0.262110
    14  C    0.588153
    15  O   -0.444792
    16  O   -0.481123
    17  N   -0.669750
    18  C    0.319443
    19  C    0.022984
    20  C    0.002372
    21  C    0.258844
    22  C   -0.350244
    23  C    0.203003
    24  O   -0.396855
    25  N   -0.676381
    26  C    0.292767
    27  C   -0.011929
    28  C    0.045901
    29  C    0.312670
    30  C    0.230284
    31  C   -0.260909
    32  C   -0.295093
    33  N   -0.713649
    34  C    0.279160
    35  C    0.067579
    36  C   -0.063391
    37  C    0.356557
    38  C   -0.387801
    39  C    0.347113
    40  O   -0.428524
    41  C   -0.285896
    42  C    0.608033
    43  O   -0.433025
    44  O   -0.475226
    45  C   -0.075507
    46  C   -0.027822
    47  C   -0.102645
    48  C    0.120990
    49  C   -0.358481
    50  C   -0.222475
    51  C   -0.179198
    52  C   -0.145509
    53  C   -0.068032
    54  C   -0.306416
    55  C   -0.174497
    56  C   -0.171830
    57  C   -0.184391
    58  C   -0.050425
    59  C   -0.261921
    60  C   -0.184064
    61  C   -0.171836
    62  C   -0.166231
    63  C   -0.050969
    64  C   -0.283931
    65  C   -0.301301
    66  H    0.076368
    67  H    0.138791
    68  H    0.089347
    69  H    0.115060
    70  H    0.104984
    71  H    0.115473
    72  H    0.111018
    73  H    0.133573
    74  H    0.119973
    75  H    0.123166
    76  H    0.138802
    77  H    0.138156
    78  H    0.123788
    79  H    0.139395
    80  H    0.120875
    81  H    0.046739
    82  H    0.115573
    83  H    0.104627
    84  H    0.129442
    85  H    0.105808
    86  H    0.100112
    87  H    0.135865
    88  H    0.160146
    89  H    0.101061
    90  H    0.169634
    91  H    0.105703
    92  H    0.118778
    93  H    0.089795
    94  H    0.173143
    95  H    0.108485
    96  H    0.088281
    97  H    0.061204
    98  H    0.106901
    99  H    0.083582
   100  H    0.103605
   101  H    0.090583
   102  H    0.061765
   103  H    0.070691
   104  H    0.103283
   105  H    0.100492
   106  H    0.102894
   107  H    0.102232
   108  H    0.078702
   109  H    0.094796
   110  H    0.102691
   111  H    0.077753
   112  H    0.081373
   113  H    0.069686
   114  H    0.094158
   115  H    0.098295
   116  H    0.057355
   117  H    0.085498
   118  H    0.098234
   119  H    0.087015
   120  H    0.076096
   121  H    0.079383
   122  H    0.060164
   123  H    0.096328
   124  H    0.078188
   125  H    0.109324
   126  H    0.099120
   127  H    0.100310
   128  H    0.102371
   129  H    0.082256
   130  H    0.128587
   131  H    0.123921
   132  H    0.117145
   133  O   -0.428869
   134  H    0.086690
 Sum of Mulliken charges =   0.00000

 Dipole moment (field-independent basis, Debye):
    X=              0.0862    Y=             -4.5457    Z=             -1.7064  Tot=              4.8563
 Quadrupole moment (field-independent basis, Debye-Ang):
   XX=           -360.7827   YY=           -445.8367   ZZ=           -392.5625
   XY=              9.4717   XZ=             31.7580   YZ=            -35.5072

 Normal termination of Gaussian 09 at Wed Oct  9 10:39:42 2019.
