 Gaussian 09, Revision D.01,
 Gaussian 09:  ES64L-G09RevD.01 24-Apr-2013

 ----------------------------------------------------------------------
 # td=(NStates=1) iop(3/107=0140000000,3/108=0140000000) iop(3/107=0140
 000000,3/108=0140000000) CAM-B3LYP/6-31G(d,p)
 ----------------------------------------------------------------------

 --
 TD
 --
 Symbolic Z-matrix:
 Charge =  0 Multiplicity = 1

                         Standard orientation:
 ---------------------------------------------------------------------
 Center     Atomic      Atomic             Coordinates (Angstroms)
 Number     Number       Type             X           Y           Z
 ---------------------------------------------------------------------
      1         12           0       -5.654824    1.276929    0.195394
      2          6           0       -4.977436   -2.101052   -0.302644
      3          6           0       -3.380918    1.258363    2.767532
      4          6           0       -6.126526    4.587236    0.587957
      5          6           0       -7.938266    1.113758   -2.306278
      6          7           0       -4.424432   -0.203892    1.153713
      7          6           0       -4.277840   -1.563722    0.757468
      8          6           0       -3.257352   -2.309768    1.607706
      9          6           0       -2.975755   -1.262154    2.642628
     10          6           0       -3.644446    0.007456    2.270896
     11          6           0       -3.379098   -1.720441    4.020809
     12          6           0       -1.966286   -2.601885    0.743605
     13          6           0       -1.059788   -3.598214    1.517172
     14          6           0        0.242125   -3.870287    0.836151
     15          8           0        0.356414   -3.521447   -0.388777
     16          8           0        1.084575   -4.675340    1.452307
     17          7           0       -4.795854    2.652658    1.439192
     18          6           0       -3.936780    2.443964    2.428702
     19          6           0       -3.679039    3.671485    3.087274
     20          6           0       -4.411697    4.684415    2.438182
     21          6           0       -5.145361    3.966264    1.380912
     22          6           0       -2.851489    3.896557    4.312704
     23          6           0       -4.639182    6.065861    2.849322
     24          8           0       -4.071891    6.652293    3.766241
     25          7           0       -6.794690    2.656167   -0.747584
     26          6           0       -6.895303    3.925833   -0.355628
     27          6           0       -7.865175    4.600684   -1.271765
     28          6           0       -8.383354    3.697134   -2.086300
     29          6           0       -7.716997    2.375893   -1.783192
     30          6           0       -8.223317    6.031186   -1.206301
     31          6           0       -9.445300    3.775592   -3.204750
     32          6           0       -8.866221    3.818525   -4.594069
     33          7           0       -6.309289   -0.140394   -1.133252
     34          6           0       -7.267930   -0.014434   -2.142485
     35          6           0       -7.520877   -1.318703   -2.762140
     36          6           0       -6.719801   -2.236479   -2.063237
     37          6           0       -5.931496   -1.402473   -1.210233
     38          6           0       -8.587847   -1.563821   -3.792546
     39          6           0       -6.267534   -3.553807   -1.956702
     40          8           0       -6.614034   -4.598011   -2.578967
     41          6           0       -5.076496   -3.556410   -0.780387
     42          6           0       -5.273354   -4.683640    0.166046
     43          8           0       -5.803977   -4.456481    1.225687
     44          8           0       -5.040221   -5.842219   -0.316107
     45          6           0       -5.418535   -7.021249    0.483477
     46          6           0        2.317026   -5.033269    0.732549
     47          6           0        3.343198   -4.068156    0.973901
     48          6           0        4.021257   -3.279444    0.041626
     49          6           0        3.667331   -3.312890   -1.407620
     50          6           0        5.104931   -2.404952    0.559726
     51          6           0        6.625033   -2.854903   -0.038427
     52          6           0        7.665272   -1.914188    0.484021
     53          6           0        9.054454   -2.106257   -0.133535
     54          6           0        9.623889   -3.496520    0.053538
     55          6           0        9.919976   -0.852548    0.382484
     56          6           0       11.250986   -0.786526   -0.254071
     57          6           0       12.260884    0.293564    0.280167
     58          6           0       13.514914    0.453171   -0.618599
     59          6           0       14.520415   -0.631277   -0.474872
     60          6           0       14.215854    1.762848   -0.230197
     61          6           0       15.509522    2.117093   -1.043263
     62          6           0       16.006046    3.506553   -0.598018
     63          6           0       17.292395    3.801457   -1.301038
     64          6           0       17.067988    4.081441   -2.744954
     65          6           0       17.955667    5.214053   -0.666618
     66          1           0       -2.632234    1.184524    3.550823
     67          1           0       -6.382822    5.549383    0.767024
     68          1           0       -8.568096    1.171851   -3.296687
     69          1           0       -3.718137   -3.359550    1.964924
     70          1           0       -1.888805   -0.843360    2.738127
     71          1           0       -2.973686   -2.508686    4.351179
     72          1           0       -2.962811   -1.028313    4.889399
     73          1           0       -4.616904   -1.805143    4.032660
     74          1           0       -2.274880   -3.123007   -0.112957
     75          1           0       -1.519896   -1.734257    0.590667
     76          1           0       -0.616885   -3.268599    2.485095
     77          1           0       -1.697399   -4.602940    1.630512
     78          1           0       -1.779957    3.873041    3.990154
     79          1           0       -2.921696    4.872739    4.634186
     80          1           0       -3.166205    3.257459    5.137558
     81          1           0       -5.293858    6.875425    2.454017
     82          1           0      -10.056572    2.815996   -3.116189
     83          1           0      -10.261459    4.449864   -2.932525
     84          1           0       -9.688645    3.915899   -5.483732
     85          1           0       -8.152685    4.812405   -4.631016
     86          1           0       -8.116928    2.942984   -4.778160
     87          1           0       -8.460877   -1.139549   -4.799322
     88          1           0       -8.716143   -2.662822   -3.919027
     89          1           0       -9.557980   -1.137960   -3.240544
     90          1           0       -4.438540   -3.965133   -1.325165
     91          1           0        2.431042   -6.051766    1.020464
     92          1           0        2.093633   -5.215923   -0.352371
     93          1           0        3.600581   -4.086790    2.027397
     94          1           0        2.594491   -3.625556   -1.597738
     95          1           0        3.812797   -2.203265   -1.725055
     96          1           0        4.464119   -3.811340   -1.986765
     97          1           0        5.221475   -1.387183    0.218134
     98          1           0        5.111191   -2.145443    1.833699
     99          1           0        6.532754   -3.960878    0.279117
    100          1           0        6.642005   -2.919542   -1.081585
    101          1           0        7.493185   -0.827615    0.370523
    102          1           0        7.647990   -2.089726    1.578302
    103          1           0        9.067688   -1.913826   -1.309192
    104          1           0        9.126842   -4.246810   -0.535618
    105          1           0       10.829955   -3.422696   -0.242661
    106          1           0        9.607725   -3.575852    1.220231
    107          1           0        9.260330    0.146871    0.283337
    108          1           0        9.998361   -0.946182    1.488426
    109          1           0       11.810655   -1.678668   -0.196981
    110          1           0       11.065019   -0.730676   -1.277694
    111          1           0       11.872522    1.257004    0.223207
    112          1           0       12.403981    0.014852    1.323493
    113          1           0       13.527790    0.270078   -1.717475
    114          1           0       14.722798   -0.861052    0.511766
    115          1           0       14.241216   -1.599480   -0.993761
    116          1           0       15.353689   -0.458001   -1.253290
    117          1           0       13.673909    2.637946   -0.454373
    118          1           0       14.404246    1.575308    0.836070
    119          1           0       16.116084    1.080491   -1.050465
    120          1           0       15.266579    2.128757   -2.105889
    121          1           0       15.295510    4.337415   -0.749624
    122          1           0       16.090663    3.583582    0.555292
    123          1           0       18.188186    3.291194   -1.152889
    124          1           0       16.384659    5.045278   -2.691480
    125          1           0       18.020612    4.439321   -3.313788
    126          1           0       16.731460    3.222615   -3.401027
    127          1           0       18.134718    5.100197    0.393957
    128          1           0       18.888795    5.436726   -1.245120
    129          1           0       17.158904    5.912929   -0.863517
    130          1           0       -4.871210   -7.907191   -0.133599
    131          1           0       -6.534659   -7.016210    0.496743
    132          1           0       -4.937709   -7.030557    1.469943
    133          8           0       -7.852298    6.823947   -0.417058
    134          1           0       -8.855463    6.367053   -2.015099
 ---------------------------------------------------------------------

 SCF Done:  E(RCAM-B3LYP) =  -3043.46582986     A.U. after   16 cycles

 Excitation energies and oscillator strengths:

 Excited State   1:      Singlet-A      2.0205 eV  613.64 nm  f=0.2262  <S**2>=0.000
     243 -> 246        0.22017
     244 -> 245        0.66371
 This state for optimization and/or second-order correction.
 Total Energy, E(TD-HF/TD-KS) =  -3043.39157835
 Copying the excited state density for this state as the 1-particle RhoCI density.

 The electronic state is 1-A.
 Alpha  occ. eigenvalues --  -46.81240 -19.23098 -19.22980 -19.17565 -19.16609
 Alpha  occ. eigenvalues --  -19.15739 -19.15429 -19.14814 -14.38556 -14.37165
 Alpha  occ. eigenvalues --  -14.36686 -14.36433 -10.34491 -10.33406 -10.31306
 Alpha  occ. eigenvalues --  -10.30045 -10.29605 -10.29597 -10.27176 -10.27136
 Alpha  occ. eigenvalues --  -10.27076 -10.26563 -10.26460 -10.26247 -10.26172
 Alpha  occ. eigenvalues --  -10.25993 -10.25879 -10.25477 -10.25213 -10.24935
 Alpha  occ. eigenvalues --  -10.24668 -10.24562 -10.24523 -10.24365 -10.24362
 Alpha  occ. eigenvalues --  -10.24320 -10.24163 -10.24154 -10.23897 -10.23885
 Alpha  occ. eigenvalues --  -10.23135 -10.22848 -10.22557 -10.22537 -10.22481
 Alpha  occ. eigenvalues --  -10.22466 -10.22391 -10.22390 -10.22309 -10.22234
 Alpha  occ. eigenvalues --  -10.22129 -10.22011 -10.21789 -10.21741 -10.21493
 Alpha  occ. eigenvalues --  -10.21458 -10.21446 -10.21193 -10.21091 -10.20844
 Alpha  occ. eigenvalues --  -10.20610 -10.20484 -10.20039 -10.19987 -10.19782
 Alpha  occ. eigenvalues --  -10.19488  -3.09841  -1.84786  -1.84304  -1.84252
 Alpha  occ. eigenvalues --   -1.15333  -1.13169  -1.09472  -1.05628  -1.04171
 Alpha  occ. eigenvalues --   -1.03893  -1.01268  -1.01086  -1.00558  -0.99149
 Alpha  occ. eigenvalues --   -0.98340  -0.87769  -0.86072  -0.85824  -0.85620
 Alpha  occ. eigenvalues --   -0.85467  -0.84613  -0.84589  -0.84092  -0.83735
 Alpha  occ. eigenvalues --   -0.83565  -0.83006  -0.81958  -0.80923  -0.80236
 Alpha  occ. eigenvalues --   -0.79327  -0.78748  -0.78074  -0.77634  -0.76697
 Alpha  occ. eigenvalues --   -0.75497  -0.75036  -0.74295  -0.73175  -0.72399
 Alpha  occ. eigenvalues --   -0.71242  -0.71041  -0.70090  -0.69728  -0.69534
 Alpha  occ. eigenvalues --   -0.69283  -0.69181  -0.67521  -0.66613  -0.66042
 Alpha  occ. eigenvalues --   -0.65783  -0.64991  -0.64825  -0.62646  -0.62293
 Alpha  occ. eigenvalues --   -0.61633  -0.60869  -0.60794  -0.59035  -0.59025
 Alpha  occ. eigenvalues --   -0.58782  -0.58462  -0.57961  -0.57709  -0.56982
 Alpha  occ. eigenvalues --   -0.56767  -0.55870  -0.55594  -0.55239  -0.54571
 Alpha  occ. eigenvalues --   -0.54016  -0.53615  -0.53151  -0.52871  -0.52088
 Alpha  occ. eigenvalues --   -0.51934  -0.51603  -0.51134  -0.50967  -0.50355
 Alpha  occ. eigenvalues --   -0.50129  -0.49817  -0.49800  -0.49500  -0.49131
 Alpha  occ. eigenvalues --   -0.48958  -0.48774  -0.48616  -0.48348  -0.48224
 Alpha  occ. eigenvalues --   -0.47963  -0.47615  -0.47278  -0.47117  -0.46765
 Alpha  occ. eigenvalues --   -0.46534  -0.46279  -0.46142  -0.45948  -0.45739
 Alpha  occ. eigenvalues --   -0.45514  -0.45438  -0.45160  -0.44802  -0.44653
 Alpha  occ. eigenvalues --   -0.44335  -0.44290  -0.44144  -0.44061  -0.43955
 Alpha  occ. eigenvalues --   -0.43674  -0.43482  -0.43226  -0.43031  -0.42833
 Alpha  occ. eigenvalues --   -0.42623  -0.42562  -0.42535  -0.42095  -0.42051
 Alpha  occ. eigenvalues --   -0.41896  -0.41475  -0.41232  -0.40911  -0.40777
 Alpha  occ. eigenvalues --   -0.40531  -0.40424  -0.40230  -0.40131  -0.39782
 Alpha  occ. eigenvalues --   -0.39602  -0.39409  -0.39400  -0.39266  -0.39078
 Alpha  occ. eigenvalues --   -0.38763  -0.38680  -0.38417  -0.38245  -0.37857
 Alpha  occ. eigenvalues --   -0.37609  -0.37523  -0.37486  -0.37398  -0.36747
 Alpha  occ. eigenvalues --   -0.36512  -0.36234  -0.36148  -0.35834  -0.35765
 Alpha  occ. eigenvalues --   -0.35638  -0.35344  -0.35143  -0.34739  -0.34525
 Alpha  occ. eigenvalues --   -0.34154  -0.34120  -0.33748  -0.33486  -0.33364
 Alpha  occ. eigenvalues --   -0.33072  -0.32614  -0.31978  -0.31966  -0.31704
 Alpha  occ. eigenvalues --   -0.30990  -0.30019  -0.29425  -0.28829  -0.28630
 Alpha  occ. eigenvalues --   -0.28584  -0.28268  -0.28224  -0.27827  -0.27249
 Alpha  occ. eigenvalues --   -0.26243  -0.26217  -0.22977  -0.21486
 Alpha virt. eigenvalues --   -0.08702  -0.05919  -0.01565  -0.00183   0.00884
 Alpha virt. eigenvalues --    0.01919   0.02645   0.03496   0.04276   0.04551
 Alpha virt. eigenvalues --    0.05240   0.06430   0.07756   0.08878   0.09211

 Mulliken charges:
               1
     1  Mg   0.826517
     2  C    0.093286
     3  C   -0.193674
     4  C   -0.122879
     5  C   -0.203370
     6  N   -0.637934
     7  C    0.278428
     8  C   -0.160510
     9  C   -0.165639
    10  C    0.380854
    11  C   -0.278887
    12  C   -0.125068
    13  C   -0.260153
    14  C    0.590792
    15  O   -0.507158
    16  O   -0.449593
    17  N   -0.740534
    18  C    0.381723
    19  C    0.013811
    20  C   -0.020074
    21  C    0.303549
    22  C   -0.382690
    23  C    0.213391
    24  O   -0.427346
    25  N   -0.714908
    26  C    0.326547
    27  C   -0.043131
    28  C    0.023529
    29  C    0.266568
    30  C    0.260225
    31  C   -0.238367
    32  C   -0.286461
    33  N   -0.683545
    34  C    0.315445
    35  C    0.012826
    36  C    0.115699
    37  C    0.229178
    38  C   -0.387075
    39  C    0.298472
    40  O   -0.489218
    41  C   -0.274296
    42  C    0.577802
    43  O   -0.491727
    44  O   -0.417704
    45  C   -0.091042
    46  C   -0.014992
    47  C   -0.115803
    48  C    0.151813
    49  C   -0.386191
    50  C   -0.238130
    51  C   -0.200594
    52  C   -0.158280
    53  C   -0.059117
    54  C   -0.286163
    55  C   -0.174656
    56  C   -0.181084
    57  C   -0.178966
    58  C   -0.065184
    59  C   -0.313271
    60  C   -0.155070
    61  C   -0.196514
    62  C   -0.155843
    63  C   -0.066629
    64  C   -0.283836
    65  C   -0.335838
    66  H    0.084270
    67  H    0.112848
    68  H    0.088453
    69  H    0.124192
    70  H    0.099977
    71  H    0.126845
    72  H    0.078432
    73  H    0.101559
    74  H    0.128805
    75  H    0.120962
    76  H    0.119705
    77  H    0.121592
    78  H    0.120208
    79  H    0.162182
    80  H    0.121284
    81  H    0.096505
    82  H    0.106944
    83  H    0.117908
    84  H    0.102030
    85  H    0.092049
    86  H    0.112365
    87  H    0.135768
    88  H    0.149055
    89  H    0.118368
    90  H    0.135181
    91  H    0.119934
    92  H    0.120763
    93  H    0.085139
    94  H    0.160172
    95  H    0.105401
    96  H    0.122454
    97  H    0.114511
    98  H    0.066355
    99  H    0.098970
   100  H    0.106194
   101  H    0.093169
   102  H    0.095958
   103  H    0.059354
   104  H    0.120421
   105  H    0.074654
   106  H    0.092051
   107  H    0.073218
   108  H    0.080182
   109  H    0.100784
   110  H    0.096340
   111  H    0.100654
   112  H    0.093826
   113  H    0.078599
   114  H    0.104197
   115  H    0.085688
   116  H    0.091093
   117  H    0.092539
   118  H    0.087181
   119  H    0.080648
   120  H    0.097490
   121  H    0.095566
   122  H    0.081195
   123  H    0.105841
   124  H    0.080977
   125  H    0.083484
   126  H    0.100040
   127  H    0.103520
   128  H    0.096235
   129  H    0.097872
   130  H    0.120692
   131  H    0.154473
   132  H    0.141212
   133  O   -0.394968
   134  H    0.057123
 Sum of Mulliken charges =   0.00000

 Dipole moment (field-independent basis, Debye):
    X=              2.4998    Y=             -4.8037    Z=             -1.1015  Tot=              5.5261
 Quadrupole moment (field-independent basis, Debye-Ang):
   XX=           -372.7438   YY=           -432.3143   ZZ=           -394.3440
   XY=             -1.7898   XZ=             19.9414   YZ=            -34.0006

 Normal termination of Gaussian 09 at Mon Oct  7 10:42:59 2019.
