 Gaussian 09, Revision D.01,
 Gaussian 09:  ES64L-G09RevD.01 24-Apr-2013

 ----------------------------------------------------------------------
 # td=(NStates=1) iop(3/107=0140000000,3/108=0140000000) iop(3/107=0140
 000000,3/108=0140000000) CAM-B3LYP/6-31G(d,p)
 ----------------------------------------------------------------------

 --
 TD
 --
 Symbolic Z-matrix:
 Charge =  0 Multiplicity = 1

                         Standard orientation:
 ---------------------------------------------------------------------
 Center     Atomic      Atomic             Coordinates (Angstroms)
 Number     Number       Type             X           Y           Z
 ---------------------------------------------------------------------
      1         12           0       -5.643929    1.248207    0.166142
      2          6           0       -4.992765   -2.141656   -0.353601
      3          6           0       -3.404444    1.200616    2.808185
      4          6           0       -6.246449    4.560483    0.687115
      5          6           0       -8.043428    1.239875   -2.384770
      6          7           0       -4.267977   -0.309924    0.985938
      7          6           0       -4.299589   -1.619126    0.566368
      8          6           0       -3.213108   -2.304830    1.488832
      9          6           0       -3.020097   -1.286220    2.637578
     10          6           0       -3.565889   -0.038180    2.054677
     11          6           0       -3.635112   -1.716411    3.924108
     12          6           0       -1.901309   -2.573629    0.694169
     13          6           0       -0.959147   -3.594942    1.345677
     14          6           0        0.329246   -3.917743    0.587881
     15          8           0        0.620013   -3.407730   -0.553200
     16          8           0        1.020791   -4.778622    1.206675
     17          7           0       -4.893476    2.599916    1.483544
     18          6           0       -3.955604    2.463083    2.491895
     19          6           0       -3.626343    3.722609    3.139947
     20          6           0       -4.463510    4.646798    2.488242
     21          6           0       -5.257381    3.893879    1.503578
     22          6           0       -2.705533    3.798574    4.294955
     23          6           0       -4.577903    6.030900    2.840101
     24          8           0       -3.950203    6.518580    3.794713
     25          7           0       -6.890615    2.663736   -0.791838
     26          6           0       -7.010712    3.978627   -0.337666
     27          6           0       -8.047371    4.584590   -1.113143
     28          6           0       -8.609684    3.685503   -2.006227
     29          6           0       -7.899836    2.475634   -1.732493
     30          6           0       -8.422805    6.042078   -1.065324
     31          6           0       -9.617794    3.770860   -3.098760
     32          6           0       -9.075501    3.786349   -4.485638
     33          7           0       -6.347681   -0.147012   -1.148328
     34          6           0       -7.388940   -0.035232   -2.099956
     35          6           0       -7.639996   -1.337914   -2.616511
     36          6           0       -6.741571   -2.201818   -1.997582
     37          6           0       -6.014705   -1.397480   -1.013880
     38          6           0       -8.578863   -1.720057   -3.794916
     39          6           0       -6.191043   -3.562414   -2.064051
     40          8           0       -6.412621   -4.520345   -2.763145
     41          6           0       -5.069288   -3.564969   -0.981904
     42          6           0       -5.252948   -4.725213    0.003297
     43          8           0       -5.693019   -4.503302    1.111884
     44          8           0       -4.893436   -5.873118   -0.414147
     45          6           0       -5.053165   -7.095225    0.489915
     46          6           0        2.275908   -5.050366    0.661103
     47          6           0        3.440063   -4.226912    1.120670
     48          6           0        4.094459   -3.388258    0.302223
     49          6           0        3.811616   -3.072548   -1.193781
     50          6           0        5.184414   -2.468038    0.841082
     51          6           0        6.638442   -2.702451    0.275271
     52          6           0        7.699352   -1.758019    0.768558
     53          6           0        9.023663   -2.083750    0.106283
     54          6           0        9.562339   -3.453659    0.376804
     55          6           0       10.059760   -0.847249    0.443896
     56          6           0       11.469716   -0.881911   -0.306076
     57          6           0       12.418785    0.325964    0.101737
     58          6           0       13.617180    0.405277   -0.657451
     59          6           0       14.585958   -0.641007   -0.345309
     60          6           0       14.146821    1.880348   -0.315953
     61          6           0       15.445450    2.317280   -1.103352
     62          6           0       16.040764    3.611960   -0.628573
     63          6           0       17.296597    3.991042   -1.460536
     64          6           0       16.875923    4.048468   -3.001917
     65          6           0       17.927045    5.341982   -1.002919
     66          1           0       -2.821144    1.079378    3.422582
     67          1           0       -6.453904    5.615995    0.967064
     68          1           0       -8.742995    1.242980   -3.212355
     69          1           0       -3.420336   -3.373587    1.818385
     70          1           0       -1.951465   -1.131037    2.610039
     71          1           0       -3.125057   -2.649785    4.283784
     72          1           0       -3.501955   -1.002992    4.873398
     73          1           0       -4.807858   -1.978443    3.828894
     74          1           0       -2.073789   -3.014337   -0.297877
     75          1           0       -1.210131   -1.705234    0.642753
     76          1           0       -0.622461   -3.305771    2.216537
     77          1           0       -1.323894   -4.662842    1.557778
     78          1           0       -1.804086    3.579763    3.839286
     79          1           0       -2.723812    4.723734    4.744309
     80          1           0       -2.899503    3.137005    5.199009
     81          1           0       -5.101751    6.718216    2.041536
     82          1           0      -10.198487    3.068932   -2.789241
     83          1           0      -10.159632    4.706371   -2.855126
     84          1           0       -9.965443    3.726715   -5.324536
     85          1           0       -8.301906    4.563245   -4.494781
     86          1           0       -8.567232    2.639889   -4.708579
     87          1           0       -8.418893   -1.051238   -4.591477
     88          1           0       -8.677421   -2.937356   -3.889220
     89          1           0       -9.618075   -1.473707   -3.462166
     90          1           0       -4.172052   -3.871232   -1.538845
     91          1           0        2.699919   -5.968372    0.762677
     92          1           0        2.167842   -5.210287   -0.333238
     93          1           0        3.713466   -4.148166    2.241637
     94          1           0        2.985295   -3.536564   -1.521684
     95          1           0        3.799085   -2.019886   -1.399674
     96          1           0        4.500811   -3.463639   -1.779182
     97          1           0        4.909883   -1.431701    0.413753
     98          1           0        5.196776   -2.398902    1.957086
     99          1           0        6.742853   -3.756174    0.504069
    100          1           0        6.411378   -2.650893   -0.824994
    101          1           0        7.338404   -0.778920    0.488225
    102          1           0        7.613834   -1.861573    1.928817
    103          1           0        8.578761   -1.969253   -0.991401
    104          1           0        8.807813   -4.070296    0.092621
    105          1           0       10.595697   -3.758960   -0.225335
    106          1           0        9.818061   -3.586301    1.642755
    107          1           0        9.502287    0.047655    0.154441
    108          1           0       10.292564   -0.868673    1.484900
    109          1           0       12.100658   -1.743365    0.021856
    110          1           0       11.281109   -0.948863   -1.377974
    111          1           0       11.816482    1.271787    0.100512
    112          1           0       12.661247    0.204752    1.256349
    113          1           0       13.249635    0.225370   -1.734959
    114          1           0       15.057949   -0.715112    0.764198
    115          1           0       13.925077   -1.518366   -0.483064
    116          1           0       15.561267   -0.675610   -0.969422
    117          1           0       13.155272    2.548835   -0.612567
    118          1           0       14.391305    1.996580    0.797505
    119          1           0       16.175080    1.709709   -1.094673
    120          1           0       15.285187    2.276059   -2.171475
    121          1           0       15.135708    4.425788   -0.799683
    122          1           0       16.294646    3.776477    0.414790
    123          1           0       18.025661    3.135970   -1.084562
    124          1           0       15.937967    4.809493   -2.929006
    125          1           0       17.693216    4.334424   -3.713679
    126          1           0       16.423578    2.985762   -3.375545
    127          1           0       18.122255    5.301293    0.159815
    128          1           0       18.623162    5.620519   -1.577860
    129          1           0       17.199508    5.981542   -1.117748
    130          1           0       -4.609615   -7.809745   -0.133705
    131          1           0       -6.093086   -7.209956    0.648823
    132          1           0       -4.346269   -6.884239    1.246539
    133          8           0       -8.081229    6.867107   -0.227690
    134          1           0       -9.205419    6.267786   -1.941858
 ---------------------------------------------------------------------

 SCF Done:  E(RCAM-B3LYP) =  -3043.39064140     A.U. after   15 cycles

 Excitation energies and oscillator strengths:

 Excited State   1:      Singlet-A      2.0004 eV  619.79 nm  f=0.1987  <S**2>=0.000
     243 -> 246       -0.22119
     244 -> 245        0.66623
 This state for optimization and/or second-order correction.
 Total Energy, E(TD-HF/TD-KS) =  -3043.31712755
 Copying the excited state density for this state as the 1-particle RhoCI density.

 The electronic state is 1-A.
 Alpha  occ. eigenvalues --  -46.82266 -19.24832 -19.22628 -19.17879 -19.16935
 Alpha  occ. eigenvalues --  -19.16488 -19.15681 -19.14984 -14.38345 -14.37162
 Alpha  occ. eigenvalues --  -14.36691 -14.36666 -10.35041 -10.33893 -10.31405
 Alpha  occ. eigenvalues --  -10.30816 -10.30477 -10.28199 -10.27624 -10.27148
 Alpha  occ. eigenvalues --  -10.27064 -10.26490 -10.26436 -10.26385 -10.26061
 Alpha  occ. eigenvalues --  -10.25775 -10.25482 -10.25457 -10.25296 -10.25092
 Alpha  occ. eigenvalues --  -10.24614 -10.24468 -10.24430 -10.24129 -10.23860
 Alpha  occ. eigenvalues --  -10.23752 -10.23474 -10.23363 -10.23360 -10.23336
 Alpha  occ. eigenvalues --  -10.23313 -10.23083 -10.23053 -10.22958 -10.22880
 Alpha  occ. eigenvalues --  -10.22804 -10.22732 -10.22595 -10.22505 -10.22493
 Alpha  occ. eigenvalues --  -10.22348 -10.22006 -10.21613 -10.21496 -10.21375
 Alpha  occ. eigenvalues --  -10.21325 -10.21236 -10.21163 -10.21147 -10.21141
 Alpha  occ. eigenvalues --  -10.21129 -10.21051 -10.20818 -10.18659 -10.18646
 Alpha  occ. eigenvalues --  -10.18194  -3.10611  -1.85570  -1.85086  -1.84995
 Alpha  occ. eigenvalues --   -1.17846  -1.14476  -1.06972  -1.06662  -1.05296
 Alpha  occ. eigenvalues --   -1.03561  -1.01511  -1.01084  -1.00032  -0.99752
 Alpha  occ. eigenvalues --   -0.98443  -0.88248  -0.86404  -0.86377  -0.86008
 Alpha  occ. eigenvalues --   -0.85446  -0.84733  -0.84354  -0.83792  -0.83504
 Alpha  occ. eigenvalues --   -0.83228  -0.82759  -0.82128  -0.80514  -0.79766
 Alpha  occ. eigenvalues --   -0.79010  -0.78390  -0.78127  -0.78008  -0.77231
 Alpha  occ. eigenvalues --   -0.76067  -0.75197  -0.74343  -0.73698  -0.72592
 Alpha  occ. eigenvalues --   -0.72092  -0.70887  -0.70412  -0.70148  -0.69817
 Alpha  occ. eigenvalues --   -0.69532  -0.68429  -0.67623  -0.66940  -0.66348
 Alpha  occ. eigenvalues --   -0.66196  -0.65118  -0.64022  -0.63170  -0.62519
 Alpha  occ. eigenvalues --   -0.61923  -0.61381  -0.60936  -0.60278  -0.58739
 Alpha  occ. eigenvalues --   -0.57930  -0.57898  -0.57590  -0.56984  -0.56940
 Alpha  occ. eigenvalues --   -0.56626  -0.56399  -0.55766  -0.54795  -0.54709
 Alpha  occ. eigenvalues --   -0.54236  -0.53795  -0.53384  -0.52863  -0.52319
 Alpha  occ. eigenvalues --   -0.52219  -0.51427  -0.51066  -0.50762  -0.50533
 Alpha  occ. eigenvalues --   -0.50464  -0.50090  -0.49821  -0.49261  -0.49128
 Alpha  occ. eigenvalues --   -0.49059  -0.48757  -0.48506  -0.48223  -0.47984
 Alpha  occ. eigenvalues --   -0.47742  -0.47442  -0.47396  -0.46988  -0.46757
 Alpha  occ. eigenvalues --   -0.46443  -0.46334  -0.46194  -0.46096  -0.45849
 Alpha  occ. eigenvalues --   -0.45795  -0.45544  -0.45434  -0.45054  -0.44712
 Alpha  occ. eigenvalues --   -0.44322  -0.44273  -0.44074  -0.43957  -0.43849
 Alpha  occ. eigenvalues --   -0.43578  -0.43313  -0.43154  -0.43001  -0.42922
 Alpha  occ. eigenvalues --   -0.42843  -0.42694  -0.42530  -0.42128  -0.41889
 Alpha  occ. eigenvalues --   -0.41677  -0.41580  -0.41391  -0.41171  -0.40971
 Alpha  occ. eigenvalues --   -0.40880  -0.40781  -0.40612  -0.40544  -0.40305
 Alpha  occ. eigenvalues --   -0.40152  -0.39825  -0.39573  -0.39431  -0.39326
 Alpha  occ. eigenvalues --   -0.39164  -0.38691  -0.38192  -0.38000  -0.37734
 Alpha  occ. eigenvalues --   -0.37655  -0.37405  -0.36779  -0.36667  -0.36614
 Alpha  occ. eigenvalues --   -0.36265  -0.36215  -0.36034  -0.35744  -0.35613
 Alpha  occ. eigenvalues --   -0.35399  -0.34803  -0.34764  -0.34544  -0.34468
 Alpha  occ. eigenvalues --   -0.34392  -0.33793  -0.33475  -0.33203  -0.33112
 Alpha  occ. eigenvalues --   -0.32943  -0.32769  -0.32368  -0.32235  -0.31033
 Alpha  occ. eigenvalues --   -0.30676  -0.30552  -0.29543  -0.29138  -0.29085
 Alpha  occ. eigenvalues --   -0.28725  -0.28186  -0.27967  -0.27747  -0.27654
 Alpha  occ. eigenvalues --   -0.27428  -0.27282  -0.23454  -0.21380
 Alpha virt. eigenvalues --   -0.08708  -0.06394  -0.01408  -0.00624   0.01107
 Alpha virt. eigenvalues --    0.03555   0.03628   0.04330   0.04346   0.05107
 Alpha virt. eigenvalues --    0.05589   0.05818   0.07881   0.08945   0.09458

 Mulliken charges:
               1
     1  Mg   0.823579
     2  C    0.165749
     3  C   -0.054942
     4  C   -0.188541
     5  C   -0.166594
     6  N   -0.648625
     7  C    0.281795
     8  C   -0.161856
     9  C   -0.133710
    10  C    0.316671
    11  C   -0.299616
    12  C   -0.177270
    13  C   -0.264949
    14  C    0.574744
    15  O   -0.519159
    16  O   -0.392962
    17  N   -0.723723
    18  C    0.294122
    19  C    0.067073
    20  C   -0.042187
    21  C    0.357148
    22  C   -0.370422
    23  C    0.223368
    24  O   -0.428747
    25  N   -0.703589
    26  C    0.335718
    27  C   -0.063457
    28  C    0.025116
    29  C    0.288985
    30  C    0.255130
    31  C   -0.205292
    32  C   -0.281664
    33  N   -0.716023
    34  C    0.255697
    35  C    0.005472
    36  C    0.003654
    37  C    0.282887
    38  C   -0.377186
    39  C    0.369591
    40  O   -0.458977
    41  C   -0.317719
    42  C    0.601336
    43  O   -0.496823
    44  O   -0.443634
    45  C   -0.088491
    46  C    0.020583
    47  C   -0.196228
    48  C    0.155839
    49  C   -0.361333
    50  C   -0.243484
    51  C   -0.190012
    52  C   -0.153157
    53  C   -0.048389
    54  C   -0.275972
    55  C   -0.172824
    56  C   -0.202017
    57  C   -0.162339
    58  C   -0.033658
    59  C   -0.288858
    60  C   -0.167429
    61  C   -0.164252
    62  C   -0.160060
    63  C   -0.066963
    64  C   -0.298252
    65  C   -0.288667
    66  H   -0.014642
    67  H    0.130446
    68  H    0.084068
    69  H    0.108796
    70  H    0.108093
    71  H    0.111479
    72  H    0.095833
    73  H    0.120800
    74  H    0.122309
    75  H    0.112517
    76  H    0.137605
    77  H    0.111585
    78  H    0.136991
    79  H    0.162813
    80  H    0.121618
    81  H    0.078022
    82  H    0.130281
    83  H    0.106220
    84  H    0.105364
    85  H    0.131072
    86  H    0.072967
    87  H    0.136352
    88  H    0.139248
    89  H    0.119504
    90  H    0.154409
    91  H    0.122872
    92  H    0.122900
    93  H    0.084179
    94  H    0.138472
    95  H    0.118313
    96  H    0.123097
    97  H    0.085565
    98  H    0.082940
    99  H    0.104259
   100  H    0.086933
   101  H    0.100088
   102  H    0.076270
   103  H    0.066833
   104  H    0.120665
   105  H    0.086852
   106  H    0.060806
   107  H    0.088288
   108  H    0.098472
   109  H    0.097174
   110  H    0.090665
   111  H    0.084240
   112  H    0.067790
   113  H    0.080933
   114  H    0.078815
   115  H    0.095516
   116  H    0.094984
   117  H    0.064830
   118  H    0.088240
   119  H    0.099917
   120  H    0.092434
   121  H    0.046110
   122  H    0.088745
   123  H    0.067367
   124  H    0.094248
   125  H    0.101505
   126  H    0.087898
   127  H    0.080525
   128  H    0.106942
   129  H    0.115278
   130  H    0.146091
   131  H    0.161472
   132  H    0.146753
   133  O   -0.420284
   134  H    0.046052
 Sum of Mulliken charges =   0.00000

 Dipole moment (field-independent basis, Debye):
    X=              1.8477    Y=             -6.1373    Z=             -0.2559  Tot=              6.4145
 Quadrupole moment (field-independent basis, Debye-Ang):
   XX=           -381.6501   YY=           -424.8904   ZZ=           -395.4667
   XY=             11.4533   XZ=             18.5294   YZ=            -36.6676

 Normal termination of Gaussian 09 at Wed Oct  9 10:17:34 2019.
