 Gaussian 09, Revision D.01,
 Gaussian 09:  ES64L-G09RevD.01 24-Apr-2013

 ----------------------------------------------------------------------
 # td=(NStates=1) iop(3/107=0140000000,3/108=0140000000) iop(3/107=0140
 000000,3/108=0140000000) CAM-B3LYP/6-31G(d,p)
 ----------------------------------------------------------------------

 --
 TD
 --
 Symbolic Z-matrix:
 Charge =  0 Multiplicity = 1

                         Standard orientation:
 ---------------------------------------------------------------------
 Center     Atomic      Atomic             Coordinates (Angstroms)
 Number     Number       Type             X           Y           Z
 ---------------------------------------------------------------------
      1         12           0       -5.585544    1.199123    0.189978
      2          6           0       -5.010101   -2.137473   -0.393249
      3          6           0       -3.392332    1.144982    2.726901
      4          6           0       -6.258062    4.574526    0.777345
      5          6           0       -7.866474    1.301244   -2.455431
      6          7           0       -4.428325   -0.353138    1.136145
      7          6           0       -4.311790   -1.646901    0.660434
      8          6           0       -3.289430   -2.398985    1.488809
      9          6           0       -3.022111   -1.481074    2.709899
     10          6           0       -3.700637   -0.140861    2.152858
     11          6           0       -3.558007   -1.939207    4.043881
     12          6           0       -1.939878   -2.690119    0.733867
     13          6           0       -0.948421   -3.565049    1.441298
     14          6           0        0.240722   -3.903210    0.594365
     15          8           0        0.435514   -3.544528   -0.557506
     16          8           0        1.134404   -4.630812    1.323612
     17          7           0       -5.022406    2.526074    1.631569
     18          6           0       -4.025617    2.329452    2.576057
     19          6           0       -3.720653    3.507621    3.183970
     20          6           0       -4.438529    4.469907    2.666995
     21          6           0       -5.283235    3.879196    1.643186
     22          6           0       -2.804285    3.706388    4.264812
     23          6           0       -4.573131    5.942592    2.901966
     24          8           0       -3.974219    6.506841    3.859279
     25          7           0       -6.779776    2.654445   -0.709500
     26          6           0       -6.889831    3.962494   -0.338157
     27          6           0       -7.767645    4.725983   -1.243990
     28          6           0       -8.290185    3.695380   -2.133204
     29          6           0       -7.677184    2.482080   -1.708122
     30          6           0       -8.012966    6.127538   -1.131095
     31          6           0       -9.325763    3.854354   -3.174286
     32          6           0       -8.625087    4.235519   -4.448059
     33          7           0       -6.321656   -0.117055   -1.066546
     34          6           0       -7.271901    0.102153   -2.151240
     35          6           0       -7.496221   -1.220619   -2.761858
     36          6           0       -6.662278   -2.147330   -2.142240
     37          6           0       -5.963215   -1.372219   -1.070371
     38          6           0       -8.474011   -1.580997   -3.795838
     39          6           0       -6.170836   -3.486345   -2.168096
     40          8           0       -6.664500   -4.365891   -2.760432
     41          6           0       -5.041615   -3.586412   -0.979637
     42          6           0       -5.487240   -4.583586    0.028982
     43          8           0       -5.846715   -4.338411    1.217309
     44          8           0       -5.177920   -5.755086   -0.387689
     45          6           0       -5.306763   -6.928569    0.427949
     46          6           0        2.317504   -5.037363    0.503473
     47          6           0        3.488756   -4.175307    0.886553
     48          6           0        4.041564   -3.342635    0.037617
     49          6           0        3.727728   -3.189822   -1.524836
     50          6           0        5.158397   -2.430035    0.558578
     51          6           0        6.476624   -2.700808   -0.089814
     52          6           0        7.494927   -1.820695    0.495542
     53          6           0        8.970147   -2.074692    0.002974
     54          6           0        9.556509   -3.410494    0.354055
     55          6           0        9.957466   -0.899469    0.502495
     56          6           0       11.221933   -0.869430   -0.245857
     57          6           0       12.206138    0.190503    0.287476
     58          6           0       13.526061    0.451483   -0.566311
     59          6           0       14.439637   -0.786880   -0.304072
     60          6           0       14.138728    1.865240   -0.158426
     61          6           0       15.385109    2.119913   -1.000481
     62          6           0       16.097537    3.557055   -0.701812
     63          6           0       17.256814    3.963109   -1.415081
     64          6           0       17.022293    4.209698   -2.794233
     65          6           0       17.745068    5.207757   -0.750666
     66          1           0       -2.577153    1.193733    3.449502
     67          1           0       -6.586972    5.537120    1.045554
     68          1           0       -8.544076    1.518016   -3.184738
     69          1           0       -3.668713   -3.380038    1.893826
     70          1           0       -2.043663   -1.178003    2.974797
     71          1           0       -3.041360   -2.861370    4.312026
     72          1           0       -3.677223   -1.231451    4.997764
     73          1           0       -4.665140   -2.571100    3.926151
     74          1           0       -2.118147   -3.342974   -0.236851
     75          1           0       -1.427088   -1.716048    0.595911
     76          1           0       -0.478849   -2.950419    2.433997
     77          1           0       -1.397808   -4.600864    1.616668
     78          1           0       -1.715933    3.447464    3.856651
     79          1           0       -2.724455    4.630790    4.854499
     80          1           0       -2.954284    3.060336    5.191361
     81          1           0       -5.119106    6.531549    2.201298
     82          1           0       -9.713089    2.686608   -3.364648
     83          1           0      -10.067764    4.499944   -2.748170
     84          1           0       -9.476842    4.205757   -5.182030
     85          1           0       -8.131397    5.232971   -4.414613
     86          1           0       -8.115516    3.441386   -4.674615
     87          1           0       -8.219591   -1.046509   -4.772350
     88          1           0       -8.592186   -2.621986   -4.032471
     89          1           0       -9.365051   -1.296805   -3.572177
     90          1           0       -4.176295   -4.018924   -1.443753
     91          1           0        2.401360   -6.222542    0.869827
     92          1           0        2.144158   -4.969373   -0.449893
     93          1           0        3.850707   -4.025751    1.933655
     94          1           0        2.771516   -3.470235   -1.844602
     95          1           0        3.659827   -2.059733   -1.577319
     96          1           0        4.409623   -3.620187   -2.132366
     97          1           0        4.852202   -1.354564    0.209855
     98          1           0        5.138027   -2.806006    1.630620
     99          1           0        6.816246   -3.725272    0.098574
    100          1           0        6.412894   -2.428139   -1.139634
    101          1           0        7.151410   -0.781887    0.274317
    102          1           0        7.704952   -1.877783    1.624606
    103          1           0        8.987856   -1.959810   -1.171357
    104          1           0        8.922814   -4.124815   -0.125498
    105          1           0       10.584914   -3.677576    0.011075
    106          1           0        9.743351   -3.825279    1.449110
    107          1           0        9.314102   -0.014562    0.072689
    108          1           0       10.139070   -0.934983    1.628607
    109          1           0       11.645619   -1.987667   -0.022489
    110          1           0       10.962489   -0.721309   -1.367228
    111          1           0       11.393244    1.188264    0.469475
    112          1           0       12.761483   -0.128137    1.260946
    113          1           0       13.394169    0.379903   -1.639785
    114          1           0       14.653728   -0.914549    0.793634
    115          1           0       14.059713   -1.697569   -0.724613
    116          1           0       15.399325   -0.704951   -0.776277
    117          1           0       13.414424    2.491488   -0.295862
    118          1           0       14.445728    1.760673    0.917241
    119          1           0       16.195433    1.342279   -0.558460
    120          1           0       15.321660    1.988935   -2.017807
    121          1           0       15.374982    4.473004   -0.886369
    122          1           0       16.201706    3.463540    0.441764
    123          1           0       17.991320    3.308654   -1.141844
    124          1           0       16.120168    4.837896   -2.971531
    125          1           0       17.913258    4.379417   -3.637938
    126          1           0       16.457595    3.249733   -3.267695
    127          1           0       18.074572    5.122443    0.309723
    128          1           0       18.602070    5.654741   -1.322964
    129          1           0       17.061396    6.070200   -0.700267
    130          1           0       -4.961951   -7.679708   -0.218347
    131          1           0       -6.197399   -7.213941    0.466788
    132          1           0       -4.768000   -6.719048    1.542980
    133          8           0       -7.596208    6.966354   -0.315631
    134          1           0       -8.700602    6.338024   -2.027122
 ---------------------------------------------------------------------

 SCF Done:  E(RCAM-B3LYP) =  -3043.42796186     A.U. after   16 cycles

 Excitation energies and oscillator strengths:

 Excited State   1:      Singlet-A      2.0143 eV  615.52 nm  f=0.1647  <S**2>=0.000
     243 -> 246        0.24730
     244 -> 245        0.65497
 This state for optimization and/or second-order correction.
 Total Energy, E(TD-HF/TD-KS) =  -3043.35393772
 Copying the excited state density for this state as the 1-particle RhoCI density.

 The electronic state is 1-A.
 Alpha  occ. eigenvalues --  -46.81100 -19.23941 -19.22198 -19.17746 -19.17398
 Alpha  occ. eigenvalues --  -19.16702 -19.16580 -19.16241 -14.39125 -14.37303
 Alpha  occ. eigenvalues --  -14.36438 -14.35929 -10.35143 -10.35026 -10.31525
 Alpha  occ. eigenvalues --  -10.29989 -10.29970 -10.28043 -10.28002 -10.27864
 Alpha  occ. eigenvalues --  -10.27575 -10.27040 -10.26327 -10.26106 -10.25925
 Alpha  occ. eigenvalues --  -10.25676 -10.25526 -10.25360 -10.25358 -10.25236
 Alpha  occ. eigenvalues --  -10.24709 -10.24608 -10.24494 -10.24463 -10.24305
 Alpha  occ. eigenvalues --  -10.24272 -10.24209 -10.23990 -10.23196 -10.23115
 Alpha  occ. eigenvalues --  -10.23050 -10.23027 -10.22764 -10.22612 -10.22474
 Alpha  occ. eigenvalues --  -10.22459 -10.22131 -10.22125 -10.22073 -10.22005
 Alpha  occ. eigenvalues --  -10.21952 -10.21931 -10.21492 -10.21462 -10.21459
 Alpha  occ. eigenvalues --  -10.21455 -10.21234 -10.21212 -10.21195 -10.20965
 Alpha  occ. eigenvalues --  -10.20935 -10.20827 -10.20083 -10.19813 -10.19684
 Alpha  occ. eigenvalues --  -10.19648  -3.09779  -1.84712  -1.84248  -1.84192
 Alpha  occ. eigenvalues --   -1.15982  -1.12544  -1.10347  -1.04810  -1.04138
 Alpha  occ. eigenvalues --   -1.03798  -1.02642  -1.02177  -0.99973  -0.99689
 Alpha  occ. eigenvalues --   -0.98824  -0.88319  -0.86978  -0.86846  -0.86423
 Alpha  occ. eigenvalues --   -0.85959  -0.84886  -0.84589  -0.84578  -0.83613
 Alpha  occ. eigenvalues --   -0.83433  -0.83295  -0.82028  -0.81768  -0.80863
 Alpha  occ. eigenvalues --   -0.79384  -0.79126  -0.77981  -0.77787  -0.76307
 Alpha  occ. eigenvalues --   -0.75350  -0.75057  -0.74490  -0.73965  -0.72868
 Alpha  occ. eigenvalues --   -0.72277  -0.70911  -0.70375  -0.70298  -0.69789
 Alpha  occ. eigenvalues --   -0.69558  -0.68438  -0.67626  -0.66612  -0.66261
 Alpha  occ. eigenvalues --   -0.65639  -0.64420  -0.64183  -0.62772  -0.62552
 Alpha  occ. eigenvalues --   -0.62085  -0.61375  -0.60649  -0.59458  -0.58991
 Alpha  occ. eigenvalues --   -0.58920  -0.57799  -0.57686  -0.57210  -0.57066
 Alpha  occ. eigenvalues --   -0.56611  -0.55769  -0.55487  -0.55132  -0.54763
 Alpha  occ. eigenvalues --   -0.54328  -0.53670  -0.53220  -0.52848  -0.52715
 Alpha  occ. eigenvalues --   -0.52408  -0.51995  -0.51672  -0.51377  -0.51198
 Alpha  occ. eigenvalues --   -0.50605  -0.50352  -0.50148  -0.49682  -0.49436
 Alpha  occ. eigenvalues --   -0.49114  -0.48969  -0.48722  -0.48230  -0.48047
 Alpha  occ. eigenvalues --   -0.47895  -0.47570  -0.47492  -0.47360  -0.47218
 Alpha  occ. eigenvalues --   -0.47051  -0.46711  -0.46555  -0.46258  -0.46127
 Alpha  occ. eigenvalues --   -0.45885  -0.45609  -0.45142  -0.45008  -0.44985
 Alpha  occ. eigenvalues --   -0.44755  -0.44385  -0.44222  -0.43852  -0.43768
 Alpha  occ. eigenvalues --   -0.43619  -0.43307  -0.43202  -0.43120  -0.42814
 Alpha  occ. eigenvalues --   -0.42653  -0.42400  -0.42030  -0.41905  -0.41746
 Alpha  occ. eigenvalues --   -0.41640  -0.41608  -0.41355  -0.41098  -0.40901
 Alpha  occ. eigenvalues --   -0.40823  -0.40325  -0.40238  -0.40191  -0.40032
 Alpha  occ. eigenvalues --   -0.39687  -0.39609  -0.39471  -0.39360  -0.39278
 Alpha  occ. eigenvalues --   -0.38962  -0.38624  -0.38493  -0.38429  -0.38303
 Alpha  occ. eigenvalues --   -0.37878  -0.37659  -0.37557  -0.37468  -0.37260
 Alpha  occ. eigenvalues --   -0.36699  -0.36438  -0.36182  -0.35792  -0.35550
 Alpha  occ. eigenvalues --   -0.35417  -0.35221  -0.35111  -0.34752  -0.34443
 Alpha  occ. eigenvalues --   -0.34397  -0.33929  -0.33705  -0.33320  -0.33251
 Alpha  occ. eigenvalues --   -0.32993  -0.32694  -0.31710  -0.31640  -0.31241
 Alpha  occ. eigenvalues --   -0.31226  -0.30870  -0.30266  -0.30096  -0.29842
 Alpha  occ. eigenvalues --   -0.28801  -0.28316  -0.28176  -0.27919  -0.27397
 Alpha  occ. eigenvalues --   -0.27304  -0.27197  -0.23535  -0.20899
 Alpha virt. eigenvalues --   -0.08011  -0.06901  -0.01946  -0.00544   0.00778
 Alpha virt. eigenvalues --    0.02737   0.02955   0.03317   0.04521   0.04944
 Alpha virt. eigenvalues --    0.05196   0.05876   0.07867   0.08002   0.09391

 Mulliken charges:
               1
     1  Mg   0.827698
     2  C    0.085849
     3  C   -0.220821
     4  C   -0.166016
     5  C   -0.116632
     6  N   -0.608483
     7  C    0.317586
     8  C   -0.172405
     9  C   -0.116512
    10  C    0.344139
    11  C   -0.319100
    12  C   -0.147342
    13  C   -0.254514
    14  C    0.607515
    15  O   -0.478427
    16  O   -0.473549
    17  N   -0.722998
    18  C    0.353539
    19  C    0.092834
    20  C   -0.010451
    21  C    0.266141
    22  C   -0.406214
    23  C    0.243219
    24  O   -0.434148
    25  N   -0.687614
    26  C    0.292485
    27  C   -0.008842
    28  C    0.024007
    29  C    0.297178
    30  C    0.245934
    31  C   -0.263154
    32  C   -0.280244
    33  N   -0.760159
    34  C    0.263655
    35  C    0.006884
    36  C    0.038219
    37  C    0.329914
    38  C   -0.380384
    39  C    0.334040
    40  O   -0.412592
    41  C   -0.343649
    42  C    0.624043
    43  O   -0.513406
    44  O   -0.409997
    45  C   -0.069612
    46  C    0.015352
    47  C   -0.131414
    48  C    0.128948
    49  C   -0.375377
    50  C   -0.219814
    51  C   -0.159720
    52  C   -0.155067
    53  C   -0.064586
    54  C   -0.318954
    55  C   -0.158500
    56  C   -0.145828
    57  C   -0.141083
    58  C   -0.080995
    59  C   -0.329435
    60  C   -0.140054
    61  C   -0.188169
    62  C   -0.159953
    63  C   -0.010331
    64  C   -0.298267
    65  C   -0.312133
    66  H    0.079465
    67  H    0.131934
    68  H    0.060141
    69  H    0.123864
    70  H    0.108564
    71  H    0.121125
    72  H    0.114214
    73  H    0.089286
    74  H    0.102235
    75  H    0.114150
    76  H    0.113435
    77  H    0.129693
    78  H    0.099726
    79  H    0.163731
    80  H    0.112166
    81  H    0.112530
    82  H    0.082631
    83  H    0.127784
    84  H    0.101502
    85  H    0.124997
    86  H    0.122717
    87  H    0.112724
    88  H    0.147789
    89  H    0.139709
    90  H    0.160318
    91  H    0.086392
    92  H    0.137002
    93  H    0.079645
    94  H    0.143710
    95  H    0.103235
    96  H    0.132800
    97  H    0.091014
    98  H    0.091066
    99  H    0.101169
   100  H    0.102333
   101  H    0.082575
   102  H    0.084876
   103  H    0.063375
   104  H    0.104741
   105  H    0.107516
   106  H    0.084619
   107  H    0.070981
   108  H    0.088291
   109  H    0.067454
   110  H    0.083016
   111  H    0.043434
   112  H    0.082575
   113  H    0.084604
   114  H    0.089695
   115  H    0.111872
   116  H    0.104532
   117  H    0.107792
   118  H    0.085804
   119  H    0.070355
   120  H    0.099277
   121  H    0.057721
   122  H    0.077945
   123  H    0.098800
   124  H    0.107423
   125  H    0.090971
   126  H    0.067735
   127  H    0.093667
   128  H    0.085930
   129  H    0.095610
   130  H    0.129132
   131  H    0.144543
   132  H    0.119285
   133  O   -0.457747
   134  H    0.034575
 Sum of Mulliken charges =   0.00000

 Dipole moment (field-independent basis, Debye):
    X=              2.4117    Y=             -7.6032    Z=             -2.5110  Tot=              8.3624
 Quadrupole moment (field-independent basis, Debye-Ang):
   XX=           -389.2444   YY=           -436.4702   ZZ=           -394.1750
   XY=             16.1277   XZ=             24.9636   YZ=            -30.8609

 Normal termination of Gaussian 09 at Wed Oct  9 03:05:07 2019.
