 Gaussian 09, Revision D.01,
 Gaussian 09:  ES64L-G09RevD.01 24-Apr-2013

 ----------------------------------------------------------------------
 # td=(NStates=1) iop(3/107=0140000000,3/108=0140000000) iop(3/107=0140
 000000,3/108=0140000000) CAM-B3LYP/6-31G(d,p)
 ----------------------------------------------------------------------

 --
 TD
 --
 Symbolic Z-matrix:
 Charge =  0 Multiplicity = 1

                         Standard orientation:
 ---------------------------------------------------------------------
 Center     Atomic      Atomic             Coordinates (Angstroms)
 Number     Number       Type             X           Y           Z
 ---------------------------------------------------------------------
      1         12           0       -5.587439    1.197532    0.202935
      2          6           0       -4.980711   -2.211789   -0.298759
      3          6           0       -3.448706    1.206903    2.678221
      4          6           0       -6.204417    4.524039    0.593423
      5          6           0       -8.049856    1.184006   -2.318543
      6          7           0       -4.374769   -0.281571    0.975226
      7          6           0       -4.214340   -1.569194    0.657145
      8          6           0       -3.096157   -2.257942    1.450910
      9          6           0       -2.984490   -1.359893    2.608830
     10          6           0       -3.621302   -0.020749    2.134287
     11          6           0       -3.567083   -1.796434    3.979477
     12          6           0       -1.895197   -2.728008    0.605514
     13          6           0       -1.043263   -3.683368    1.390167
     14          6           0        0.232579   -3.926294    0.624649
     15          8           0        0.521769   -3.483424   -0.486639
     16          8           0        1.096170   -4.660195    1.250674
     17          7           0       -4.828707    2.626395    1.409899
     18          6           0       -4.008210    2.475928    2.478148
     19          6           0       -3.768135    3.741848    3.203831
     20          6           0       -4.604975    4.611510    2.571077
     21          6           0       -5.306362    3.954469    1.500682
     22          6           0       -2.897267    3.906486    4.384614
     23          6           0       -4.766695    6.039341    2.933462
     24          8           0       -4.093817    6.634761    3.730422
     25          7           0       -6.984874    2.624182   -0.688821
     26          6           0       -6.988185    3.972690   -0.369561
     27          6           0       -7.949665    4.628075   -1.245728
     28          6           0       -8.574561    3.609757   -2.003406
     29          6           0       -7.842898    2.395402   -1.685024
     30          6           0       -8.343485    6.004864   -1.151674
     31          6           0       -9.570540    3.777807   -3.107160
     32          6           0       -8.903583    3.970167   -4.498360
     33          7           0       -6.389277   -0.189948   -1.068935
     34          6           0       -7.377324   -0.008594   -2.079090
     35          6           0       -7.507522   -1.354938   -2.773289
     36          6           0       -6.673944   -2.176378   -2.161891
     37          6           0       -5.945281   -1.425776   -1.155474
     38          6           0       -8.467717   -1.681376   -3.829027
     39          6           0       -6.217202   -3.568443   -2.038989
     40          8           0       -6.520122   -4.566376   -2.646264
     41          6           0       -5.059326   -3.627991   -0.878155
     42          6           0       -5.260953   -4.629110    0.144006
     43          8           0       -5.674049   -4.426009    1.262966
     44          8           0       -4.903165   -5.881113   -0.320603
     45          6           0       -5.320338   -6.958611    0.594298
     46          6           0        2.326559   -5.011584    0.665900
     47          6           0        3.372305   -4.087202    1.053200
     48          6           0        4.035008   -3.284127    0.184866
     49          6           0        3.625546   -3.068653   -1.300483
     50          6           0        5.150161   -2.418798    0.699693
     51          6           0        6.579302   -2.715776    0.030702
     52          6           0        7.622854   -1.753329    0.612156
     53          6           0        9.075130   -2.017049   -0.014247
     54          6           0        9.613736   -3.446923    0.238011
     55          6           0       10.069114   -0.922659    0.423284
     56          6           0       11.407431   -0.794056   -0.242191
     57          6           0       12.278483    0.384444    0.143412
     58          6           0       13.517418    0.561264   -0.618724
     59          6           0       14.465599   -0.667977   -0.254922
     60          6           0       14.139907    1.882635   -0.245314
     61          6           0       15.486128    2.132732   -1.006488
     62          6           0       16.074622    3.563879   -0.617694
     63          6           0       17.432049    3.900052   -1.374510
     64          6           0       17.296616    4.008206   -2.866187
     65          6           0       18.005557    5.093648   -0.872756
     66          1           0       -2.531485    1.318395    3.438795
     67          1           0       -6.439936    5.706615    0.721254
     68          1           0       -8.758546    1.201048   -3.334434
     69          1           0       -3.523929   -3.253024    1.758004
     70          1           0       -1.964537   -1.152080    2.787008
     71          1           0       -3.012977   -2.733422    4.340139
     72          1           0       -3.217666   -1.027580    4.666829
     73          1           0       -4.606615   -2.108491    4.170153
     74          1           0       -2.212542   -3.319136   -0.285394
     75          1           0       -1.318058   -1.935135    0.142021
     76          1           0       -0.676586   -3.275973    2.187728
     77          1           0       -1.542784   -4.423840    1.594665
     78          1           0       -1.895768    3.484217    4.317039
     79          1           0       -2.822654    5.069469    4.437449
     80          1           0       -3.306577    3.432166    5.366715
     81          1           0       -5.404578    6.648778    2.252096
     82          1           0      -10.073028    2.795231   -3.195320
     83          1           0      -10.192929    4.582534   -2.818232
     84          1           0       -9.658876    3.869279   -5.304621
     85          1           0       -8.407918    4.835310   -4.511419
     86          1           0       -8.218586    3.135714   -4.857939
     87          1           0       -8.452446   -1.252858   -4.978748
     88          1           0       -8.406872   -2.566084   -4.002900
     89          1           0       -9.557201   -1.530848   -3.446763
     90          1           0       -4.057147   -3.906717   -1.406291
     91          1           0        2.463446   -6.190466    0.880660
     92          1           0        2.157618   -5.108097   -0.374004
     93          1           0        3.630573   -4.364095    2.012934
     94          1           0        2.527328   -3.145832   -1.381808
     95          1           0        3.813786   -2.079766   -1.435569
     96          1           0        4.061825   -3.722759   -2.001944
     97          1           0        4.970537   -1.428632    0.468235
     98          1           0        5.226397   -2.405293    1.724225
     99          1           0        6.710442   -3.739015    0.235739
    100          1           0        6.534206   -2.573984   -0.989188
    101          1           0        7.197454   -0.865046    0.422749
    102          1           0        7.759682   -2.046780    1.666104
    103          1           0        9.045555   -2.087437   -1.137911
    104          1           0        8.878123   -4.158721    0.001539
    105          1           0       10.604028   -3.438534   -0.304934
    106          1           0        9.826607   -3.592237    1.222863
    107          1           0        9.460176   -0.062654    0.191567
    108          1           0       10.190343   -1.029950    1.513830
    109          1           0       12.128099   -1.571386   -0.120958
    110          1           0       11.374023   -0.656176   -1.282149
    111          1           0       11.661207    1.177977    0.097640
    112          1           0       12.841141    0.214956    1.105627
    113          1           0       13.193268    0.546636   -1.602767
    114          1           0       14.779091   -0.677697    0.882956
    115          1           0       13.829414   -1.648607   -0.386342
    116          1           0       15.460311   -0.713769   -0.894106
    117          1           0       13.410510    2.801218   -0.423241
    118          1           0       14.421316    2.110548    0.977908
    119          1           0       16.161882    1.137183   -0.694571
    120          1           0       15.391463    2.204394   -2.062342
    121          1           0       15.494766    4.493076   -1.003752
    122          1           0       16.083845    3.325800    0.484876
    123          1           0       18.131928    3.038417   -1.218411
    124          1           0       16.571112    4.695850   -3.331133
    125          1           0       18.271128    4.403786   -3.245866
    126          1           0       17.143677    3.015678   -3.254105
    127          1           0       17.858090    5.305245    0.412098
    128          1           0       19.127911    5.221969   -1.103671
    129          1           0       17.404703    6.021312   -1.266307
    130          1           0       -4.978617   -7.836361   -0.020028
    131          1           0       -6.477225   -6.973271    0.834521
    132          1           0       -4.861931   -6.884222    1.523569
    133          8           0       -7.803599    6.812465   -0.506909
    134          1           0       -9.190347    6.285715   -1.716279
 ---------------------------------------------------------------------

 SCF Done:  E(RCAM-B3LYP) =  -3043.48695262     A.U. after   15 cycles

 Excitation energies and oscillator strengths:

 Excited State   1:      Singlet-A      2.0677 eV  599.61 nm  f=0.1874  <S**2>=0.000
     243 -> 246       -0.27355
     244 -> 245        0.63592
 This state for optimization and/or second-order correction.
 Total Energy, E(TD-HF/TD-KS) =  -3043.41096485
 Copying the excited state density for this state as the 1-particle RhoCI density.

 The electronic state is 1-A.
 Alpha  occ. eigenvalues --  -46.81629 -19.22310 -19.22023 -19.18260 -19.17457
 Alpha  occ. eigenvalues --  -19.17345 -19.16775 -19.15816 -14.38242 -14.37047
 Alpha  occ. eigenvalues --  -14.36837 -14.36573 -10.34688 -10.34477 -10.32793
 Alpha  occ. eigenvalues --  -10.30161 -10.28996 -10.27681 -10.27291 -10.27016
 Alpha  occ. eigenvalues --  -10.26976 -10.26960 -10.26533 -10.26358 -10.26173
 Alpha  occ. eigenvalues --  -10.25646 -10.25593 -10.25534 -10.25526 -10.25521
 Alpha  occ. eigenvalues --  -10.24294 -10.24152 -10.23969 -10.23938 -10.23893
 Alpha  occ. eigenvalues --  -10.23574 -10.23423 -10.23386 -10.23119 -10.23090
 Alpha  occ. eigenvalues --  -10.22951 -10.22907 -10.22750 -10.22678 -10.22529
 Alpha  occ. eigenvalues --  -10.22484 -10.22408 -10.22212 -10.22209 -10.21890
 Alpha  occ. eigenvalues --  -10.21811 -10.21809 -10.21705 -10.21250 -10.21155
 Alpha  occ. eigenvalues --  -10.20900 -10.20561 -10.20497 -10.20336 -10.20220
 Alpha  occ. eigenvalues --  -10.20191 -10.20186 -10.19415 -10.19387 -10.18861
 Alpha  occ. eigenvalues --  -10.18701  -3.10139  -1.85088  -1.84589  -1.84561
 Alpha  occ. eigenvalues --   -1.15420  -1.12559  -1.09840  -1.08382  -1.07924
 Alpha  occ. eigenvalues --   -1.04516  -1.03532  -1.00457  -0.99551  -0.99432
 Alpha  occ. eigenvalues --   -0.98556  -0.87422  -0.87079  -0.86733  -0.85733
 Alpha  occ. eigenvalues --   -0.85371  -0.84903  -0.84680  -0.84060  -0.83930
 Alpha  occ. eigenvalues --   -0.83734  -0.83270  -0.82627  -0.80842  -0.80079
 Alpha  occ. eigenvalues --   -0.78993  -0.78673  -0.77682  -0.77080  -0.76723
 Alpha  occ. eigenvalues --   -0.75364  -0.75184  -0.74513  -0.72658  -0.72214
 Alpha  occ. eigenvalues --   -0.71998  -0.70731  -0.70480  -0.70000  -0.69799
 Alpha  occ. eigenvalues --   -0.69193  -0.69026  -0.67665  -0.66992  -0.66431
 Alpha  occ. eigenvalues --   -0.66196  -0.65472  -0.64501  -0.63057  -0.62226
 Alpha  occ. eigenvalues --   -0.61305  -0.60210  -0.59957  -0.59715  -0.58944
 Alpha  occ. eigenvalues --   -0.58738  -0.58361  -0.57959  -0.57774  -0.57413
 Alpha  occ. eigenvalues --   -0.57277  -0.56407  -0.55769  -0.55655  -0.55231
 Alpha  occ. eigenvalues --   -0.54738  -0.54121  -0.53289  -0.52857  -0.52506
 Alpha  occ. eigenvalues --   -0.52397  -0.52175  -0.51981  -0.51328  -0.51235
 Alpha  occ. eigenvalues --   -0.50660  -0.50153  -0.50094  -0.49586  -0.49231
 Alpha  occ. eigenvalues --   -0.48797  -0.48458  -0.48439  -0.48260  -0.48076
 Alpha  occ. eigenvalues --   -0.47508  -0.47434  -0.47336  -0.47262  -0.47100
 Alpha  occ. eigenvalues --   -0.46914  -0.46781  -0.46568  -0.46119  -0.45804
 Alpha  occ. eigenvalues --   -0.45750  -0.45546  -0.45433  -0.45301  -0.44681
 Alpha  occ. eigenvalues --   -0.44336  -0.44119  -0.43954  -0.43508  -0.43357
 Alpha  occ. eigenvalues --   -0.43307  -0.43145  -0.42894  -0.42784  -0.42640
 Alpha  occ. eigenvalues --   -0.42512  -0.42334  -0.42219  -0.42069  -0.41977
 Alpha  occ. eigenvalues --   -0.41751  -0.41630  -0.41589  -0.41424  -0.41139
 Alpha  occ. eigenvalues --   -0.40837  -0.40615  -0.40412  -0.40305  -0.40126
 Alpha  occ. eigenvalues --   -0.40050  -0.40012  -0.39819  -0.39582  -0.39497
 Alpha  occ. eigenvalues --   -0.39383  -0.39256  -0.39103  -0.38707  -0.38651
 Alpha  occ. eigenvalues --   -0.38112  -0.38042  -0.37641  -0.37410  -0.37172
 Alpha  occ. eigenvalues --   -0.37031  -0.36660  -0.36504  -0.36098  -0.35766
 Alpha  occ. eigenvalues --   -0.35217  -0.35169  -0.35100  -0.34636  -0.34009
 Alpha  occ. eigenvalues --   -0.33760  -0.33496  -0.33428  -0.33316  -0.33254
 Alpha  occ. eigenvalues --   -0.33129  -0.32921  -0.32223  -0.32135  -0.31988
 Alpha  occ. eigenvalues --   -0.31212  -0.31112  -0.29998  -0.29919  -0.29738
 Alpha  occ. eigenvalues --   -0.29462  -0.28571  -0.28383  -0.27873  -0.27591
 Alpha  occ. eigenvalues --   -0.27349  -0.27206  -0.22630  -0.21550
 Alpha virt. eigenvalues --   -0.08322  -0.06126  -0.01089  -0.00271   0.00617
 Alpha virt. eigenvalues --    0.02600   0.03162   0.03814   0.04282   0.04705
 Alpha virt. eigenvalues --    0.05166   0.06159   0.07695   0.08197   0.09129

 Mulliken charges:
               1
     1  Mg   0.826584
     2  C    0.075373
     3  C   -0.232948
     4  C   -0.206688
     5  C   -0.174512
     6  N   -0.649234
     7  C    0.328084
     8  C   -0.148122
     9  C   -0.134714
    10  C    0.338033
    11  C   -0.311141
    12  C   -0.195671
    13  C   -0.211960
    14  C    0.565548
    15  O   -0.492052
    16  O   -0.426001
    17  N   -0.700374
    18  C    0.305320
    19  C    0.086066
    20  C   -0.042128
    21  C    0.311327
    22  C   -0.402381
    23  C    0.251586
    24  O   -0.402441
    25  N   -0.696375
    26  C    0.307278
    27  C   -0.033111
    28  C   -0.001082
    29  C    0.341815
    30  C    0.252205
    31  C   -0.238580
    32  C   -0.309786
    33  N   -0.710889
    34  C    0.258623
    35  C   -0.007767
    36  C    0.087254
    37  C    0.262909
    38  C   -0.363565
    39  C    0.368954
    40  O   -0.432862
    41  C   -0.339773
    42  C    0.644460
    43  O   -0.470272
    44  O   -0.470794
    45  C   -0.087596
    46  C   -0.017004
    47  C   -0.111832
    48  C    0.112208
    49  C   -0.388366
    50  C   -0.242879
    51  C   -0.198996
    52  C   -0.162217
    53  C   -0.084446
    54  C   -0.317026
    55  C   -0.153942
    56  C   -0.183963
    57  C   -0.154875
    58  C   -0.046774
    59  C   -0.323841
    60  C   -0.149945
    61  C   -0.180970
    62  C   -0.153516
    63  C   -0.043192
    64  C   -0.315841
    65  C   -0.274451
    66  H    0.067446
    67  H    0.141129
    68  H    0.094703
    69  H    0.116710
    70  H    0.109426
    71  H    0.093685
    72  H    0.116759
    73  H    0.134461
    74  H    0.112688
    75  H    0.126271
    76  H    0.140321
    77  H    0.133087
    78  H    0.122041
    79  H    0.158079
    80  H    0.122555
    81  H    0.077277
    82  H    0.106506
    83  H    0.117845
    84  H    0.107310
    85  H    0.128911
    86  H    0.104747
    87  H    0.104787
    88  H    0.146369
    89  H    0.117780
    90  H    0.155613
    91  H    0.088661
    92  H    0.122550
    93  H    0.087482
    94  H    0.162400
    95  H    0.114453
    96  H    0.124055
    97  H    0.103976
    98  H    0.101239
    99  H    0.103916
   100  H    0.106097
   101  H    0.098492
   102  H    0.092715
   103  H    0.072542
   104  H    0.105153
   105  H    0.099366
   106  H    0.102844
   107  H    0.089440
   108  H    0.088511
   109  H    0.087154
   110  H    0.087897
   111  H    0.086166
   112  H    0.076079
   113  H    0.091904
   114  H    0.100062
   115  H    0.096488
   116  H    0.096671
   117  H    0.076576
   118  H    0.053284
   119  H    0.070318
   120  H    0.100245
   121  H    0.081321
   122  H    0.091301
   123  H    0.084955
   124  H    0.101048
   125  H    0.098603
   126  H    0.107373
   127  H    0.051135
   128  H    0.096365
   129  H    0.084641
   130  H    0.126073
   131  H    0.121508
   132  H    0.138739
   133  O   -0.401007
   134  H    0.047969
 Sum of Mulliken charges =   0.00000

 Dipole moment (field-independent basis, Debye):
    X=              1.0371    Y=             -4.6582    Z=             -1.5259  Tot=              5.0102
 Quadrupole moment (field-independent basis, Debye-Ang):
   XX=           -375.4415   YY=           -436.6270   ZZ=           -389.7474
   XY=              4.1141   XZ=             14.5824   YZ=            -34.9481

 Normal termination of Gaussian 09 at Tue Oct  8 11:14:55 2019.
