 Gaussian 09, Revision D.01,
 Gaussian 09:  ES64L-G09RevD.01 24-Apr-2013

 ----------------------------------------------------------------------
 # td=(NStates=1) iop(3/107=0140000000,3/108=0140000000) iop(3/107=0140
 000000,3/108=0140000000) CAM-B3LYP/6-31G(d,p)
 ----------------------------------------------------------------------

 --
 TD
 --
 Symbolic Z-matrix:
 Charge =  0 Multiplicity = 1

                         Standard orientation:
 ---------------------------------------------------------------------
 Center     Atomic      Atomic             Coordinates (Angstroms)
 Number     Number       Type             X           Y           Z
 ---------------------------------------------------------------------
      1         12           0       -5.464669    1.225297    0.107962
      2          6           0       -4.951828   -2.026242   -0.407781
      3          6           0       -3.404758    1.259137    2.866113
      4          6           0       -6.152541    4.538861    0.534000
      5          6           0       -7.954240    1.076483   -2.497040
      6          7           0       -4.376823   -0.298765    1.087230
      7          6           0       -4.302415   -1.584652    0.655173
      8          6           0       -3.257861   -2.299331    1.549972
      9          6           0       -2.892602   -1.238353    2.597671
     10          6           0       -3.523768   -0.002751    2.178596
     11          6           0       -3.395573   -1.710900    3.997009
     12          6           0       -1.978195   -2.658949    0.674008
     13          6           0       -1.020277   -3.589881    1.345124
     14          6           0        0.296500   -3.900319    0.583537
     15          8           0        0.595635   -3.400917   -0.488245
     16          8           0        1.013720   -4.774334    1.245808
     17          7           0       -4.873791    2.665372    1.394674
     18          6           0       -4.019103    2.457119    2.481413
     19          6           0       -3.842311    3.686160    3.201602
     20          6           0       -4.532668    4.641630    2.564455
     21          6           0       -5.200987    3.918229    1.387557
     22          6           0       -2.945418    3.857970    4.358584
     23          6           0       -4.762505    6.019206    2.955902
     24          8           0       -4.124709    6.419697    3.947070
     25          7           0       -6.809765    2.552090   -0.719810
     26          6           0       -6.928164    3.902077   -0.453133
     27          6           0       -7.929573    4.593274   -1.225883
     28          6           0       -8.471446    3.613986   -2.094617
     29          6           0       -7.680240    2.345682   -1.838123
     30          6           0       -8.352496    5.962686   -1.226290
     31          6           0       -9.441355    3.697177   -3.165378
     32          6           0       -8.790095    3.861903   -4.531591
     33          7           0       -6.285630   -0.068537   -1.181446
     34          6           0       -7.345778   -0.053241   -2.083525
     35          6           0       -7.505570   -1.364249   -2.696804
     36          6           0       -6.478608   -2.177416   -2.170125
     37          6           0       -5.900153   -1.359226   -1.183371
     38          6           0       -8.491224   -1.603373   -3.743855
     39          6           0       -6.078115   -3.529126   -1.990721
     40          8           0       -6.386793   -4.502734   -2.529373
     41          6           0       -4.946864   -3.490999   -0.842576
     42          6           0       -5.281187   -4.550316    0.282573
     43          8           0       -5.696395   -4.384926    1.353566
     44          8           0       -5.095177   -5.745124   -0.287352
     45          6           0       -5.366671   -6.924803    0.549212
     46          6           0        2.215892   -5.167531    0.663441
     47          6           0        3.295226   -4.167527    0.958262
     48          6           0        4.008073   -3.341927    0.147506
     49          6           0        3.710603   -3.196710   -1.338125
     50          6           0        5.141764   -2.468572    0.612177
     51          6           0        6.562566   -2.739913   -0.033049
     52          6           0        7.551683   -1.783321    0.510318
     53          6           0        8.987838   -2.084604   -0.114157
     54          6           0        9.557291   -3.474032    0.076576
     55          6           0        9.943115   -0.996792    0.450090
     56          6           0       11.414633   -0.975532   -0.258561
     57          6           0       12.289817    0.262833    0.306350
     58          6           0       13.561250    0.456992   -0.569018
     59          6           0       14.591348   -0.756635   -0.565331
     60          6           0       14.291157    1.740434   -0.093656
     61          6           0       15.399237    2.316231   -0.995116
     62          6           0       15.983652    3.624392   -0.568549
     63          6           0       17.234875    4.096328   -1.252462
     64          6           0       16.893386    4.240988   -2.751985
     65          6           0       17.698722    5.383349   -0.848029
     66          1           0       -2.867029    1.212238    3.718022
     67          1           0       -6.303558    5.611034    0.654771
     68          1           0       -8.750249    1.069236   -3.162153
     69          1           0       -3.667552   -3.245631    2.032633
     70          1           0       -1.974519   -0.836616    2.851906
     71          1           0       -2.914226   -2.642542    4.134128
     72          1           0       -3.205896   -1.132253    4.807285
     73          1           0       -4.513145   -1.843278    3.948208
     74          1           0       -2.155533   -3.253514   -0.269132
     75          1           0       -1.474937   -1.685459    0.301028
     76          1           0       -0.497225   -3.143612    2.357855
     77          1           0       -1.345652   -4.651449    1.665414
     78          1           0       -1.828330    3.444800    4.280940
     79          1           0       -2.931098    4.928402    4.498127
     80          1           0       -3.477635    3.289076    5.256355
     81          1           0       -5.553076    6.795397    2.470506
     82          1           0      -10.076626    2.830860   -3.024727
     83          1           0      -10.246518    4.375603   -2.859154
     84          1           0       -9.647536    3.997068   -5.343616
     85          1           0       -7.964779    4.749593   -4.466263
     86          1           0       -8.209455    2.860489   -4.649865
     87          1           0       -8.061453   -1.085140   -4.740704
     88          1           0       -8.778147   -2.611186   -4.129999
     89          1           0       -9.471031   -1.135480   -3.595476
     90          1           0       -4.102090   -4.049311   -1.436599
     91          1           0        2.674270   -6.141191    1.080683
     92          1           0        2.179584   -5.169038   -0.373098
     93          1           0        3.748947   -4.313153    1.959367
     94          1           0        2.674977   -3.445453   -1.602680
     95          1           0        3.938211   -2.189593   -1.717293
     96          1           0        4.439272   -3.822091   -1.626410
     97          1           0        4.547106   -1.548426    0.487493
     98          1           0        5.371269   -2.684280    1.772474
     99          1           0        6.973532   -3.823671    0.327148
    100          1           0        6.469750   -2.955664   -1.181819
    101          1           0        7.309321   -0.926766    0.390439
    102          1           0        7.530570   -1.934738    1.651910
    103          1           0        9.070182   -1.762379   -1.182428
    104          1           0        8.929922   -4.194852   -0.312692
    105          1           0       10.624735   -3.692749   -0.287751
    106          1           0        9.618207   -3.727528    1.140251
    107          1           0        9.454449   -0.077678    0.430147
    108          1           0       10.418073   -1.255491    1.593333
    109          1           0       11.891899   -1.966312   -0.240882
    110          1           0       11.163395   -0.878336   -1.401149
    111          1           0       11.791198    1.034378    0.492254
    112          1           0       12.534733    0.091033    1.422324
    113          1           0       13.065890    0.627983   -1.663219
    114          1           0       14.866744   -0.861205    0.532376
    115          1           0       13.993618   -1.812264   -0.669475
    116          1           0       15.538092   -0.619688   -1.111923
    117          1           0       13.524172    2.455657   -0.266370
    118          1           0       14.675318    1.714324    0.948549
    119          1           0       16.166392    1.576367   -0.947706
    120          1           0       15.015738    2.204673   -2.103700
    121          1           0       15.325065    4.398358   -0.752274
    122          1           0       16.104631    3.514046    0.578311
    123          1           0       18.062092    3.309816   -1.316486
    124          1           0       15.942853    4.894345   -2.983239
    125          1           0       17.816694    4.421334   -3.333589
    126          1           0       16.616957    3.318800   -3.164194
    127          1           0       18.251854    5.335347    0.110972
    128          1           0       18.460701    5.805484   -1.456043
    129          1           0       16.895095    6.191626   -0.681400
    130          1           0       -4.904779   -7.637785    0.072374
    131          1           0       -6.473426   -7.093742    0.839066
    132          1           0       -5.129236   -6.641160    1.579015
    133          8           0       -7.941720    6.823870   -0.425389
    134          1           0       -9.093390    6.278980   -1.911093
 ---------------------------------------------------------------------

 SCF Done:  E(RCAM-B3LYP) =  -3043.48137639     A.U. after   15 cycles

 Excitation energies and oscillator strengths:

 Excited State   1:      Singlet-A      1.9741 eV  628.07 nm  f=0.1912  <S**2>=0.000
     243 -> 246        0.24898
     244 -> 245        0.65530
 This state for optimization and/or second-order correction.
 Total Energy, E(TD-HF/TD-KS) =  -3043.40883122
 Copying the excited state density for this state as the 1-particle RhoCI density.

 The electronic state is 1-A.
 Alpha  occ. eigenvalues --  -46.80873 -19.23226 -19.22050 -19.17647 -19.16770
 Alpha  occ. eigenvalues --  -19.16762 -19.16702 -19.16144 -14.38456 -14.37150
 Alpha  occ. eigenvalues --  -14.36931 -14.36470 -10.34971 -10.34605 -10.31159
 Alpha  occ. eigenvalues --  -10.30408 -10.29380 -10.27989 -10.27344 -10.26831
 Alpha  occ. eigenvalues --  -10.26762 -10.26706 -10.26646 -10.26213 -10.26127
 Alpha  occ. eigenvalues --  -10.25686 -10.25621 -10.25602 -10.25229 -10.25222
 Alpha  occ. eigenvalues --  -10.25140 -10.24794 -10.24671 -10.24145 -10.23985
 Alpha  occ. eigenvalues --  -10.23846 -10.23593 -10.23509 -10.23292 -10.23273
 Alpha  occ. eigenvalues --  -10.23070 -10.23003 -10.22979 -10.22943 -10.22870
 Alpha  occ. eigenvalues --  -10.22712 -10.22705 -10.22654 -10.22467 -10.22272
 Alpha  occ. eigenvalues --  -10.22116 -10.21908 -10.21870 -10.21814 -10.21347
 Alpha  occ. eigenvalues --  -10.21201 -10.20550 -10.20411 -10.20281 -10.20258
 Alpha  occ. eigenvalues --  -10.20235 -10.20167 -10.20124 -10.19658 -10.19502
 Alpha  occ. eigenvalues --  -10.19442  -3.09564  -1.84496  -1.84034  -1.83981
 Alpha  occ. eigenvalues --   -1.15784  -1.14813  -1.10285  -1.06336  -1.05600
 Alpha  occ. eigenvalues --   -1.05046  -1.04673  -1.00874  -1.00458  -0.98876
 Alpha  occ. eigenvalues --   -0.97164  -0.88745  -0.85969  -0.85879  -0.85842
 Alpha  occ. eigenvalues --   -0.85548  -0.84869  -0.84428  -0.84174  -0.83833
 Alpha  occ. eigenvalues --   -0.83171  -0.82732  -0.81771  -0.80028  -0.79319
 Alpha  occ. eigenvalues --   -0.79106  -0.78368  -0.77689  -0.77567  -0.77172
 Alpha  occ. eigenvalues --   -0.74656  -0.74458  -0.73829  -0.72586  -0.71993
 Alpha  occ. eigenvalues --   -0.71942  -0.70969  -0.70699  -0.70054  -0.69897
 Alpha  occ. eigenvalues --   -0.69608  -0.69237  -0.67764  -0.66492  -0.66170
 Alpha  occ. eigenvalues --   -0.65708  -0.64624  -0.64029  -0.62825  -0.62314
 Alpha  occ. eigenvalues --   -0.61745  -0.61424  -0.61260  -0.59730  -0.59139
 Alpha  occ. eigenvalues --   -0.58933  -0.58276  -0.57959  -0.57412  -0.56979
 Alpha  occ. eigenvalues --   -0.56538  -0.55858  -0.55374  -0.55218  -0.54250
 Alpha  occ. eigenvalues --   -0.53787  -0.53323  -0.52612  -0.52446  -0.52238
 Alpha  occ. eigenvalues --   -0.51955  -0.51555  -0.51318  -0.51096  -0.50922
 Alpha  occ. eigenvalues --   -0.50795  -0.49904  -0.49560  -0.49244  -0.49083
 Alpha  occ. eigenvalues --   -0.48925  -0.48542  -0.48445  -0.48217  -0.47801
 Alpha  occ. eigenvalues --   -0.47701  -0.47420  -0.47400  -0.47217  -0.46702
 Alpha  occ. eigenvalues --   -0.46542  -0.46448  -0.46330  -0.45780  -0.45568
 Alpha  occ. eigenvalues --   -0.45387  -0.45073  -0.44943  -0.44830  -0.44737
 Alpha  occ. eigenvalues --   -0.44653  -0.44270  -0.43952  -0.43890  -0.43632
 Alpha  occ. eigenvalues --   -0.43448  -0.43261  -0.42913  -0.42834  -0.42663
 Alpha  occ. eigenvalues --   -0.42591  -0.42315  -0.42159  -0.42122  -0.41872
 Alpha  occ. eigenvalues --   -0.41550  -0.41443  -0.41405  -0.41337  -0.41040
 Alpha  occ. eigenvalues --   -0.40885  -0.40822  -0.40760  -0.40229  -0.40135
 Alpha  occ. eigenvalues --   -0.40070  -0.39988  -0.39755  -0.39612  -0.39408
 Alpha  occ. eigenvalues --   -0.39201  -0.39065  -0.38600  -0.38560  -0.38384
 Alpha  occ. eigenvalues --   -0.38123  -0.37832  -0.37648  -0.37602  -0.37169
 Alpha  occ. eigenvalues --   -0.36923  -0.36713  -0.36474  -0.35872  -0.35700
 Alpha  occ. eigenvalues --   -0.35329  -0.35021  -0.34995  -0.34673  -0.34586
 Alpha  occ. eigenvalues --   -0.34209  -0.33800  -0.33582  -0.33097  -0.33027
 Alpha  occ. eigenvalues --   -0.32505  -0.32355  -0.31978  -0.31812  -0.31753
 Alpha  occ. eigenvalues --   -0.31648  -0.31152  -0.30294  -0.30139  -0.29323
 Alpha  occ. eigenvalues --   -0.28533  -0.28336  -0.27772  -0.27501  -0.27401
 Alpha  occ. eigenvalues --   -0.27184  -0.26189  -0.23147  -0.20914
 Alpha virt. eigenvalues --   -0.08188  -0.06588  -0.01561  -0.00715   0.01061
 Alpha virt. eigenvalues --    0.03169   0.04128   0.04451   0.04828   0.05275
 Alpha virt. eigenvalues --    0.05574   0.06344   0.08259   0.08549   0.09545

 Mulliken charges:
               1
     1  Mg   0.821176
     2  C    0.076155
     3  C   -0.165924
     4  C   -0.176592
     5  C   -0.161929
     6  N   -0.665180
     7  C    0.321581
     8  C   -0.172663
     9  C   -0.142146
    10  C    0.329539
    11  C   -0.319142
    12  C   -0.162578
    13  C   -0.255847
    14  C    0.594660
    15  O   -0.480560
    16  O   -0.414321
    17  N   -0.711342
    18  C    0.305282
    19  C    0.080304
    20  C   -0.032721
    21  C    0.326863
    22  C   -0.385540
    23  C    0.217293
    24  O   -0.422195
    25  N   -0.673935
    26  C    0.305100
    27  C    0.034060
    28  C   -0.000584
    29  C    0.244834
    30  C    0.226234
    31  C   -0.256358
    32  C   -0.283653
    33  N   -0.724834
    34  C    0.308916
    35  C    0.033074
    36  C    0.023259
    37  C    0.310096
    38  C   -0.405338
    39  C    0.356694
    40  O   -0.407157
    41  C   -0.345977
    42  C    0.604513
    43  O   -0.445873
    44  O   -0.444662
    45  C   -0.085136
    46  C   -0.002832
    47  C   -0.161490
    48  C    0.097304
    49  C   -0.368663
    50  C   -0.213310
    51  C   -0.187107
    52  C   -0.127235
    53  C   -0.058241
    54  C   -0.321238
    55  C   -0.164135
    56  C   -0.194817
    57  C   -0.148445
    58  C   -0.047796
    59  C   -0.312839
    60  C   -0.175490
    61  C   -0.187127
    62  C   -0.138584
    63  C   -0.051379
    64  C   -0.312143
    65  C   -0.293261
    66  H    0.077054
    67  H    0.122481
    68  H    0.090864
    69  H    0.130201
    70  H    0.118380
    71  H    0.118582
    72  H    0.115516
    73  H    0.120779
    74  H    0.116534
    75  H    0.119508
    76  H    0.104530
    77  H    0.128054
    78  H    0.103502
    79  H    0.174042
    80  H    0.106479
    81  H    0.100568
    82  H    0.115383
    83  H    0.108727
    84  H    0.106254
    85  H    0.109194
    86  H    0.108754
    87  H    0.117052
    88  H    0.145040
    89  H    0.127030
    90  H    0.150520
    91  H    0.115338
    92  H    0.124169
    93  H    0.064424
    94  H    0.149285
    95  H    0.100497
    96  H    0.133584
    97  H    0.120613
    98  H    0.076921
    99  H    0.082354
   100  H    0.088045
   101  H    0.098242
   102  H    0.087412
   103  H    0.087439
   104  H    0.109527
   105  H    0.097677
   106  H    0.105016
   107  H    0.093671
   108  H    0.048710
   109  H    0.102170
   110  H    0.067325
   111  H    0.102207
   112  H    0.068277
   113  H    0.064880
   114  H    0.096503
   115  H    0.079521
   116  H    0.115858
   117  H    0.095451
   118  H    0.086661
   119  H    0.090796
   120  H    0.075295
   121  H    0.095854
   122  H    0.071173
   123  H    0.076864
   124  H    0.083684
   125  H    0.092833
   126  H    0.105788
   127  H    0.087697
   128  H    0.105682
   129  H    0.090546
   130  H    0.133192
   131  H    0.120044
   132  H    0.131831
   133  O   -0.443706
   134  H    0.077008
 Sum of Mulliken charges =   0.00000

 Dipole moment (field-independent basis, Debye):
    X=              1.3935    Y=             -5.2980    Z=             -1.3305  Tot=              5.6374
 Quadrupole moment (field-independent basis, Debye-Ang):
   XX=           -371.5178   YY=           -433.8002   ZZ=           -395.9095
   XY=             12.3856   XZ=             27.9442   YZ=            -33.8170

 Normal termination of Gaussian 09 at Tue Oct  8 15:50:59 2019.
