 Gaussian 09, Revision D.01,
 Gaussian 09:  ES64L-G09RevD.01 24-Apr-2013

 ----------------------------------------------------------------------
 # td=(NStates=1) iop(3/107=0140000000,3/108=0140000000) iop(3/107=0140
 000000,3/108=0140000000) CAM-B3LYP/6-31G(d,p)
 ----------------------------------------------------------------------

 --
 TD
 --
 Symbolic Z-matrix:
 Charge =  0 Multiplicity = 1

                         Standard orientation:
 ---------------------------------------------------------------------
 Center     Atomic      Atomic             Coordinates (Angstroms)
 Number     Number       Type             X           Y           Z
 ---------------------------------------------------------------------
      1         12           0       -5.560043    1.254344    0.180997
      2          6           0       -4.942140   -2.149373   -0.374965
      3          6           0       -3.349373    1.236976    2.719068
      4          6           0       -6.105847    4.442372    0.610952
      5          6           0       -8.099032    1.029367   -2.195815
      6          7           0       -4.378305   -0.292698    1.078708
      7          6           0       -4.234061   -1.613376    0.651597
      8          6           0       -3.161099   -2.259620    1.532240
      9          6           0       -2.880500   -1.314411    2.697750
     10          6           0       -3.565068   -0.008143    2.042213
     11          6           0       -3.532489   -1.751945    4.014231
     12          6           0       -1.984584   -2.650981    0.708102
     13          6           0       -0.866176   -3.402361    1.511956
     14          6           0        0.320691   -3.777111    0.718310
     15          8           0        0.534157   -3.287011   -0.383652
     16          8           0        1.036899   -4.746571    1.248659
     17          7           0       -4.835662    2.679251    1.414034
     18          6           0       -3.926838    2.418557    2.479865
     19          6           0       -3.615441    3.635307    3.057199
     20          6           0       -4.441031    4.660034    2.488434
     21          6           0       -5.154846    3.977198    1.455524
     22          6           0       -2.766810    3.874634    4.300317
     23          6           0       -4.397055    6.056238    2.805646
     24          8           0       -3.796579    6.738456    3.727193
     25          7           0       -6.845462    2.630220   -0.783197
     26          6           0       -6.910645    3.878952   -0.436443
     27          6           0       -7.961216    4.522429   -1.187394
     28          6           0       -8.491664    3.549959   -1.965814
     29          6           0       -7.842826    2.355421   -1.640289
     30          6           0       -8.329463    5.921739   -1.171304
     31          6           0       -9.496638    3.672966   -3.051826
     32          6           0       -9.034311    4.121207   -4.434256
     33          7           0       -6.297084   -0.115007   -1.111322
     34          6           0       -7.337875   -0.080507   -2.044764
     35          6           0       -7.541055   -1.357778   -2.622861
     36          6           0       -6.644749   -2.215850   -2.024293
     37          6           0       -5.847933   -1.396703   -1.207728
     38          6           0       -8.587128   -1.790351   -3.672831
     39          6           0       -6.164020   -3.602760   -1.985563
     40          8           0       -6.421361   -4.538585   -2.664644
     41          6           0       -4.921380   -3.539821   -1.008999
     42          6           0       -5.153655   -4.616187    0.005724
     43          8           0       -5.592530   -4.449381    1.128348
     44          8           0       -4.996202   -5.867370   -0.438969
     45          6           0       -5.213534   -6.948967    0.469553
     46          6           0        2.267621   -4.995200    0.621113
     47          6           0        3.359876   -4.048425    0.969555
     48          6           0        4.079203   -3.295659    0.154292
     49          6           0        3.731076   -3.010033   -1.301710
     50          6           0        5.175690   -2.416667    0.765773
     51          6           0        6.536900   -2.773318    0.168370
     52          6           0        7.628319   -1.878998    0.723628
     53          6           0        9.004673   -2.002540   -0.061261
     54          6           0        9.587617   -3.422532    0.277811
     55          6           0        9.985855   -0.861878    0.409464
     56          6           0       11.365131   -0.939492   -0.216484
     57          6           0       12.142901    0.274215    0.145005
     58          6           0       13.458913    0.460528   -0.587754
     59          6           0       14.292382   -0.858349   -0.445725
     60          6           0       14.218895    1.705907   -0.221165
     61          6           0       15.272359    2.169237   -1.110994
     62          6           0       15.883265    3.570971   -0.659309
     63          6           0       17.117382    3.973726   -1.441618
     64          6           0       16.962925    4.086267   -2.968934
     65          6           0       17.640203    5.242539   -0.851722
     66          1           0       -2.828666    1.403207    3.711218
     67          1           0       -6.326908    5.582081    0.735821
     68          1           0       -8.934434    0.885219   -2.957702
     69          1           0       -3.762901   -3.259261    1.797226
     70          1           0       -1.777176   -1.063514    2.778117
     71          1           0       -2.913125   -2.618402    4.318559
     72          1           0       -3.385646   -0.974938    4.948712
     73          1           0       -4.550969   -2.168208    3.888907
     74          1           0       -2.501448   -3.239563   -0.184007
     75          1           0       -1.703171   -1.661094    0.067394
     76          1           0       -0.332351   -2.595331    2.292041
     77          1           0       -1.428046   -4.306974    2.204820
     78          1           0       -1.523596    3.882780    3.984376
     79          1           0       -3.077544    4.990310    4.538979
     80          1           0       -3.143668    3.248239    5.129435
     81          1           0       -5.226719    6.578337    2.158102
     82          1           0       -9.921050    2.767333   -3.092740
     83          1           0      -10.426579    4.310675   -2.806815
     84          1           0       -9.819422    3.988697   -5.058857
     85          1           0       -8.739985    5.008303   -4.552192
     86          1           0       -8.145728    3.275695   -4.938504
     87          1           0       -8.481392   -1.283875   -4.714831
     88          1           0       -8.499208   -2.933227   -3.846189
     89          1           0       -9.488629   -1.839941   -3.114775
     90          1           0       -4.081709   -3.955454   -1.529020
     91          1           0        2.300256   -6.049720    1.163716
     92          1           0        1.884286   -5.207215   -0.526625
     93          1           0        3.649370   -4.158897    2.032393
     94          1           0        2.506002   -3.218548   -1.248337
     95          1           0        4.030170   -1.984914   -1.575019
     96          1           0        4.110217   -3.704226   -2.066821
     97          1           0        4.813729   -1.468954    0.547046
     98          1           0        5.249579   -2.530784    1.998399
     99          1           0        6.766098   -3.703000    0.626582
    100          1           0        6.508742   -2.829721   -0.959723
    101          1           0        7.410254   -0.791174    0.529953
    102          1           0        7.818377   -1.916222    1.816395
    103          1           0        8.902994   -2.091944   -1.222441
    104          1           0        8.825411   -4.212429    0.078751
    105          1           0       10.421447   -3.728737   -0.247802
    106          1           0       10.112538   -3.565403    1.243124
    107          1           0        9.322778   -0.027471    0.295559
    108          1           0       10.110254   -0.971825    1.543695
    109          1           0       11.937383   -1.830510    0.035621
    110          1           0       11.493356   -1.072738   -1.387880
    111          1           0       11.602138    1.121304   -0.030946
    112          1           0       12.156830    0.267911    1.428902
    113          1           0       13.240418    0.534594   -1.715550
    114          1           0       14.356305   -0.854814    0.709342
    115          1           0       13.501760   -1.747966   -0.763017
    116          1           0       15.295768   -0.649084   -1.001269
    117          1           0       13.440357    2.469850   -0.165671
    118          1           0       14.636512    1.731800    0.819405
    119          1           0       16.223014    1.592283   -1.302432
    120          1           0       14.905772    2.586814   -2.180609
    121          1           0       15.058795    4.350158   -0.927118
    122          1           0       16.103654    3.461045    0.417750
    123          1           0       17.970848    3.129136   -1.422721
    124          1           0       16.185147    4.813683   -3.164490
    125          1           0       17.754923    4.532488   -3.354766
    126          1           0       16.403757    3.191922   -3.303418
    127          1           0       17.950945    4.959246    0.180531
    128          1           0       18.617316    5.673436   -1.329870
    129          1           0       16.692227    5.968579   -0.795200
    130          1           0       -5.052542   -7.844821   -0.071208
    131          1           0       -6.308509   -6.927016    0.618474
    132          1           0       -4.657688   -6.886129    1.352566
    133          8           0       -7.785804    6.753180   -0.431520
    134          1           0       -9.031823    6.238234   -1.947414
 ---------------------------------------------------------------------

 SCF Done:  E(RCAM-B3LYP) =  -3043.45116373     A.U. after   15 cycles

 Excitation energies and oscillator strengths:

 Excited State   1:      Singlet-A      2.0438 eV  606.65 nm  f=0.1434  <S**2>=0.000
     243 -> 246        0.24853
     244 -> 245        0.65114
 This state for optimization and/or second-order correction.
 Total Energy, E(TD-HF/TD-KS) =  -3043.37605668
 Copying the excited state density for this state as the 1-particle RhoCI density.

 The electronic state is 1-A.
 Alpha  occ. eigenvalues --  -46.81885 -19.22704 -19.22427 -19.18494 -19.17024
 Alpha  occ. eigenvalues --  -19.17018 -19.16704 -19.16609 -14.39457 -14.37127
 Alpha  occ. eigenvalues --  -14.36470 -14.36022 -10.35010 -10.34986 -10.32471
 Alpha  occ. eigenvalues --  -10.30678 -10.29847 -10.28986 -10.28372 -10.27776
 Alpha  occ. eigenvalues --  -10.27373 -10.26929 -10.26456 -10.25967 -10.25936
 Alpha  occ. eigenvalues --  -10.25883 -10.25784 -10.25727 -10.25534 -10.25486
 Alpha  occ. eigenvalues --  -10.25409 -10.25223 -10.25020 -10.24765 -10.24609
 Alpha  occ. eigenvalues --  -10.24105 -10.24103 -10.23818 -10.23575 -10.23379
 Alpha  occ. eigenvalues --  -10.23356 -10.23294 -10.23124 -10.22972 -10.22858
 Alpha  occ. eigenvalues --  -10.22799 -10.22505 -10.22377 -10.22246 -10.21966
 Alpha  occ. eigenvalues --  -10.21925 -10.21883 -10.21766 -10.21757 -10.21687
 Alpha  occ. eigenvalues --  -10.21682 -10.21587 -10.21577 -10.21508 -10.21507
 Alpha  occ. eigenvalues --  -10.21478 -10.21393 -10.21059 -10.20752 -10.19299
 Alpha  occ. eigenvalues --  -10.18757  -3.10416  -1.85366  -1.84881  -1.84822
 Alpha  occ. eigenvalues --   -1.15558  -1.14418  -1.10028  -1.05347  -1.05144
 Alpha  occ. eigenvalues --   -1.04441  -1.02443  -1.02317  -1.01477  -1.00331
 Alpha  occ. eigenvalues --   -0.99510  -0.89440  -0.86306  -0.86260  -0.86085
 Alpha  occ. eigenvalues --   -0.85830  -0.85159  -0.84546  -0.84093  -0.83457
 Alpha  occ. eigenvalues --   -0.83319  -0.82808  -0.81634  -0.81064  -0.80358
 Alpha  occ. eigenvalues --   -0.79797  -0.78950  -0.78297  -0.77999  -0.76689
 Alpha  occ. eigenvalues --   -0.75137  -0.74977  -0.74264  -0.73708  -0.72834
 Alpha  occ. eigenvalues --   -0.71765  -0.70894  -0.70683  -0.70188  -0.69668
 Alpha  occ. eigenvalues --   -0.69398  -0.69232  -0.68439  -0.67328  -0.66862
 Alpha  occ. eigenvalues --   -0.66110  -0.65251  -0.64538  -0.62511  -0.62366
 Alpha  occ. eigenvalues --   -0.61360  -0.60587  -0.60317  -0.59119  -0.58732
 Alpha  occ. eigenvalues --   -0.58601  -0.57890  -0.57473  -0.56821  -0.56558
 Alpha  occ. eigenvalues --   -0.56533  -0.55844  -0.55621  -0.55319  -0.54963
 Alpha  occ. eigenvalues --   -0.54832  -0.53451  -0.53132  -0.52555  -0.52278
 Alpha  occ. eigenvalues --   -0.51680  -0.51642  -0.50948  -0.50713  -0.50672
 Alpha  occ. eigenvalues --   -0.50615  -0.50080  -0.49863  -0.49637  -0.49457
 Alpha  occ. eigenvalues --   -0.49201  -0.48820  -0.48576  -0.48558  -0.48242
 Alpha  occ. eigenvalues --   -0.47640  -0.47509  -0.47398  -0.47223  -0.47133
 Alpha  occ. eigenvalues --   -0.46764  -0.46746  -0.46596  -0.46197  -0.45721
 Alpha  occ. eigenvalues --   -0.45676  -0.45555  -0.45156  -0.44961  -0.44776
 Alpha  occ. eigenvalues --   -0.44598  -0.44382  -0.44267  -0.44044  -0.43719
 Alpha  occ. eigenvalues --   -0.43634  -0.43553  -0.43157  -0.42806  -0.42596
 Alpha  occ. eigenvalues --   -0.42536  -0.42379  -0.42264  -0.42206  -0.42007
 Alpha  occ. eigenvalues --   -0.41926  -0.41202  -0.40941  -0.40812  -0.40692
 Alpha  occ. eigenvalues --   -0.40584  -0.40528  -0.40351  -0.40316  -0.39901
 Alpha  occ. eigenvalues --   -0.39770  -0.39750  -0.39622  -0.39188  -0.39047
 Alpha  occ. eigenvalues --   -0.38685  -0.38541  -0.38490  -0.38348  -0.38329
 Alpha  occ. eigenvalues --   -0.38056  -0.37914  -0.37586  -0.36861  -0.36681
 Alpha  occ. eigenvalues --   -0.36458  -0.36282  -0.35841  -0.35649  -0.35464
 Alpha  occ. eigenvalues --   -0.35434  -0.35144  -0.34911  -0.34665  -0.34413
 Alpha  occ. eigenvalues --   -0.33921  -0.33848  -0.33431  -0.33104  -0.32933
 Alpha  occ. eigenvalues --   -0.32821  -0.32587  -0.32516  -0.32166  -0.32020
 Alpha  occ. eigenvalues --   -0.31500  -0.30983  -0.30655  -0.30543  -0.30029
 Alpha  occ. eigenvalues --   -0.29481  -0.28749  -0.28395  -0.27769  -0.27747
 Alpha  occ. eigenvalues --   -0.27587  -0.26922  -0.23761  -0.21774
 Alpha virt. eigenvalues --   -0.08673  -0.07148  -0.02284  -0.00988   0.00491
 Alpha virt. eigenvalues --    0.02820   0.03289   0.03561   0.03774   0.03856
 Alpha virt. eigenvalues --    0.05077   0.05609   0.07890   0.08273   0.08997

 Mulliken charges:
               1
     1  Mg   0.818426
     2  C    0.099141
     3  C   -0.183316
     4  C   -0.219579
     5  C   -0.187517
     6  N   -0.615492
     7  C    0.297455
     8  C   -0.176552
     9  C   -0.114295
    10  C    0.323848
    11  C   -0.302770
    12  C   -0.145681
    13  C   -0.247948
    14  C    0.615559
    15  O   -0.476375
    16  O   -0.432174
    17  N   -0.750044
    18  C    0.330617
    19  C    0.033616
    20  C    0.014571
    21  C    0.382450
    22  C   -0.398542
    23  C    0.223285
    24  O   -0.455581
    25  N   -0.682131
    26  C    0.322095
    27  C   -0.017216
    28  C    0.038033
    29  C    0.271745
    30  C    0.238127
    31  C   -0.250644
    32  C   -0.274350
    33  N   -0.699853
    34  C    0.313896
    35  C   -0.009765
    36  C    0.049488
    37  C    0.239268
    38  C   -0.393321
    39  C    0.377381
    40  O   -0.420254
    41  C   -0.340487
    42  C    0.600257
    43  O   -0.481155
    44  O   -0.447023
    45  C   -0.080311
    46  C   -0.017442
    47  C   -0.125503
    48  C    0.144895
    49  C   -0.389137
    50  C   -0.224235
    51  C   -0.169008
    52  C   -0.173970
    53  C   -0.062676
    54  C   -0.325917
    55  C   -0.172943
    56  C   -0.182984
    57  C   -0.135605
    58  C   -0.074002
    59  C   -0.291103
    60  C   -0.154446
    61  C   -0.178511
    62  C   -0.170704
    63  C   -0.051122
    64  C   -0.304076
    65  C   -0.288746
    66  H    0.086294
    67  H    0.129923
    68  H    0.102656
    69  H    0.120499
    70  H    0.104401
    71  H    0.114627
    72  H    0.093711
    73  H    0.136680
    74  H    0.093941
    75  H    0.107252
    76  H    0.120342
    77  H    0.113560
    78  H    0.102942
    79  H    0.165632
    80  H    0.127525
    81  H    0.077340
    82  H    0.114195
    83  H    0.099780
    84  H    0.123012
    85  H    0.128128
    86  H    0.053958
    87  H    0.130677
    88  H    0.139040
    89  H    0.144535
    90  H    0.168730
    91  H    0.102465
    92  H    0.106445
    93  H    0.084925
    94  H    0.150108
    95  H    0.109257
    96  H    0.122040
    97  H    0.115018
    98  H    0.067154
    99  H    0.118961
   100  H    0.098966
   101  H    0.075377
   102  H    0.097139
   103  H    0.077013
   104  H    0.092886
   105  H    0.102507
   106  H    0.089543
   107  H    0.098489
   108  H    0.088935
   109  H    0.111056
   110  H    0.075386
   111  H    0.102727
   112  H    0.038624
   113  H    0.077120
   114  H    0.095613
   115  H    0.081858
   116  H    0.098398
   117  H    0.093482
   118  H    0.085655
   119  H    0.095469
   120  H    0.070445
   121  H    0.081878
   122  H    0.089910
   123  H    0.060015
   124  H    0.087526
   125  H    0.111079
   126  H    0.104312
   127  H    0.100834
   128  H    0.086215
   129  H    0.085796
   130  H    0.130530
   131  H    0.129382
   132  H    0.133511
   133  O   -0.432926
   134  H    0.069852
 Sum of Mulliken charges =   0.00000

 Dipole moment (field-independent basis, Debye):
    X=              0.1242    Y=             -6.5634    Z=             -1.5286  Tot=              6.7402
 Quadrupole moment (field-independent basis, Debye-Ang):
   XX=           -371.4285   YY=           -449.6740   ZZ=           -395.9806
   XY=             22.8193   XZ=             27.5808   YZ=            -38.3291

 Normal termination of Gaussian 09 at Thu Oct  3 11:54:53 2019.
