 Gaussian 09, Revision D.01,
 Gaussian 09:  ES64L-G09RevD.01 24-Apr-2013

 ----------------------------------------------------------------------
 # td=(NStates=1) iop(3/107=0140000000,3/108=0140000000) iop(3/107=0140
 000000,3/108=0140000000) CAM-B3LYP/6-31G(d,p)
 ----------------------------------------------------------------------

 --
 TD
 --
 Symbolic Z-matrix:
 Charge =  0 Multiplicity = 1

                         Standard orientation:
 ---------------------------------------------------------------------
 Center     Atomic      Atomic             Coordinates (Angstroms)
 Number     Number       Type             X           Y           Z
 ---------------------------------------------------------------------
      1         12           0        5.799426    1.197316   -0.258502
      2          6           0        5.188054   -2.125548    0.354075
      3          6           0        3.370318    1.229891   -2.665174
      4          6           0        6.264503    4.565750   -0.643775
      5          6           0        8.085063    1.115801    2.384005
      6          7           0        4.429548   -0.262473   -1.028063
      7          6           0        4.266616   -1.614609   -0.556356
      8          6           0        3.141119   -2.262205   -1.451836
      9          6           0        2.898166   -1.232920   -2.599555
     10          6           0        3.506750    0.045715   -1.996280
     11          6           0        3.392316   -1.607141   -3.851743
     12          6           0        1.928470   -2.565485   -0.509706
     13          6           0        0.957864   -3.486706   -1.266268
     14          6           0       -0.305632   -3.816480   -0.581595
     15          8           0       -0.621021   -3.382188    0.486510
     16          8           0       -1.123691   -4.513451   -1.399340
     17          7           0        4.948892    2.636818   -1.498971
     18          6           0        4.022196    2.363284   -2.429788
     19          6           0        3.748519    3.685785   -3.118222
     20          6           0        4.586836    4.621810   -2.535363
     21          6           0        5.274987    3.921263   -1.523455
     22          6           0        2.811733    3.902558   -4.304609
     23          6           0        4.589854    6.087925   -2.774921
     24          8           0        3.851065    6.619873   -3.558817
     25          7           0        7.011727    2.536470    0.645226
     26          6           0        7.106676    3.862633    0.249852
     27          6           0        8.100650    4.529086    1.070055
     28          6           0        8.566273    3.623279    1.985618
     29          6           0        7.843593    2.339575    1.676452
     30          6           0        8.457573    5.979161    1.088677
     31          6           0        9.524501    3.779662    3.043216
     32          6           0        9.102497    3.889230    4.547913
     33          7           0        6.520580   -0.188913    1.094244
     34          6           0        7.471000   -0.076038    2.075332
     35          6           0        7.613498   -1.448399    2.773708
     36          6           0        6.816517   -2.250444    2.028611
     37          6           0        6.110986   -1.407148    1.051320
     38          6           0        8.456219   -1.738630    3.851217
     39          6           0        6.267029   -3.599128    2.048319
     40          8           0        6.597037   -4.559168    2.632069
     41          6           0        5.132118   -3.621437    0.878108
     42          6           0        5.378484   -4.676442   -0.154023
     43          8           0        5.750463   -4.450184   -1.242094
     44          8           0        5.050934   -5.839773    0.403717
     45          6           0        5.261174   -6.952334   -0.569313
     46          6           0       -2.352275   -4.980358   -0.890076
     47          6           0       -3.463205   -3.933965   -1.156757
     48          6           0       -4.129063   -3.277801   -0.249163
     49          6           0       -3.811371   -3.218622    1.292605
     50          6           0       -5.295376   -2.390532   -0.621654
     51          6           0       -6.646042   -2.770671   -0.053595
     52          6           0       -7.787968   -1.913806   -0.605866
     53          6           0       -9.185789   -2.105829    0.038169
     54          6           0       -9.746275   -3.486787   -0.406556
     55          6           0      -10.149660   -0.956680   -0.468967
     56          6           0      -11.530032   -0.897210    0.256718
     57          6           0      -12.332684    0.274919   -0.238760
     58          6           0      -13.637814    0.487786    0.600860
     59          6           0      -14.482602   -0.720297    0.356958
     60          6           0      -14.258009    1.823374    0.165913
     61          6           0      -15.460152    2.212468    1.039247
     62          6           0      -16.024796    3.667860    0.818125
     63          6           0      -17.374145    3.951253    1.441418
     64          6           0      -17.138743    4.030984    3.050853
     65          6           0      -18.049126    5.201300    0.871410
     66          1           0        2.642883    1.229896   -3.576069
     67          1           0        6.349919    5.548404   -0.739809
     68          1           0        8.705734    1.232504    3.334996
     69          1           0        3.389331   -3.313735   -1.889535
     70          1           0        1.951288   -1.105222   -2.783666
     71          1           0        2.821798   -2.583588   -4.292198
     72          1           0        3.134550   -0.932716   -4.519476
     73          1           0        4.475376   -2.003995   -3.885124
     74          1           0        2.351687   -3.000229    0.498485
     75          1           0        1.686173   -1.440621   -0.241579
     76          1           0        0.543257   -3.159098   -2.430435
     77          1           0        1.647964   -4.358310   -1.409638
     78          1           0        1.913980    3.488366   -3.911343
     79          1           0        2.826018    4.911446   -4.571783
     80          1           0        2.914742    3.338228   -5.088097
     81          1           0        5.285739    6.735605   -2.137817
     82          1           0       10.330539    2.926324    2.975778
     83          1           0       10.223330    4.677111    2.759146
     84          1           0       10.041527    3.624808    5.291730
     85          1           0        8.754586    4.840657    4.844066
     86          1           0        8.357126    3.086044    4.774432
     87          1           0        8.211700   -1.030030    4.681704
     88          1           0        8.369342   -2.781189    4.262173
     89          1           0        9.547808   -1.560922    3.825430
     90          1           0        4.168130   -3.913104    1.405466
     91          1           0       -2.692498   -5.747404   -1.452096
     92          1           0       -2.078142   -5.174193    0.013600
     93          1           0       -3.936890   -3.809228   -2.120408
     94          1           0       -3.029077   -3.827220    1.620467
     95          1           0       -3.697133   -2.228110    1.625207
     96          1           0       -4.671797   -3.744830    1.716191
     97          1           0       -5.148917   -1.305803   -0.058984
     98          1           0       -5.358705   -2.194205   -1.664696
     99          1           0       -6.828368   -3.841011   -0.403912
    100          1           0       -6.468641   -2.909386    0.948210
    101          1           0       -7.594508   -0.795820   -0.463768
    102          1           0       -7.925113   -1.960114   -1.777141
    103          1           0       -9.106170   -1.646717    1.104886
    104          1           0       -9.086204   -4.431291   -0.040430
    105          1           0      -10.802277   -3.875236   -0.265292
    106          1           0       -9.759759   -3.288190   -1.526336
    107          1           0       -9.820577    0.102110   -0.592412
    108          1           0      -10.421539   -1.033581   -1.508552
    109          1           0      -12.072055   -1.889762   -0.079513
    110          1           0      -11.422903   -0.849567    1.397375
    111          1           0      -11.720738    1.035545    0.135200
    112          1           0      -12.487386    0.208151   -1.287236
    113          1           0      -13.120068    0.561378    1.565644
    114          1           0      -14.622893   -0.898968   -0.788846
    115          1           0      -14.020062   -1.582981    0.845819
    116          1           0      -15.553063   -0.698458    0.843268
    117          1           0      -13.598055    2.674092    0.234605
    118          1           0      -14.416597    1.829002   -0.893260
    119          1           0      -16.275483    1.493168    0.993510
    120          1           0      -15.157618    2.208773    2.072375
    121          1           0      -15.270045    4.471195    1.359033
    122          1           0      -16.164984    3.789612   -0.387409
    123          1           0      -17.934049    3.060647    1.149425
    124          1           0      -16.572046    5.059498    3.322472
    125          1           0      -18.126079    4.170189    3.494218
    126          1           0      -16.625043    3.262479    3.640125
    127          1           0      -18.209736    5.058325   -0.237740
    128          1           0      -19.085153    5.229368    1.190703
    129          1           0      -17.549157    6.289060    1.000586
    130          1           0        4.699357   -7.885235   -0.054215
    131          1           0        6.418061   -6.965206   -0.794475
    132          1           0        4.859069   -6.643621   -1.588827
    133          8           0        8.021675    6.675288    0.223154
    134          1           0        9.140118    6.090445    1.896907
 ---------------------------------------------------------------------

 SCF Done:  E(RCAM-B3LYP) =  -3043.50392480     A.U. after   16 cycles

 Excitation energies and oscillator strengths:

 Excited State   1:      Singlet-A      2.0500 eV  604.81 nm  f=0.2085  <S**2>=0.000
     243 -> 246        0.23478
     244 -> 245        0.65198
 This state for optimization and/or second-order correction.
 Total Energy, E(TD-HF/TD-KS) =  -3043.42858976
 Copying the excited state density for this state as the 1-particle RhoCI density.

 The electronic state is 1-A.
 Alpha  occ. eigenvalues --  -46.81597 -19.23017 -19.21307 -19.17856 -19.17667
 Alpha  occ. eigenvalues --  -19.17436 -19.16849 -19.16701 -14.38809 -14.36881
 Alpha  occ. eigenvalues --  -14.36841 -14.36128 -10.34417 -10.34371 -10.31386
 Alpha  occ. eigenvalues --  -10.30419 -10.30186 -10.29872 -10.27842 -10.26625
 Alpha  occ. eigenvalues --  -10.26618 -10.26176 -10.25844 -10.25818 -10.25619
 Alpha  occ. eigenvalues --  -10.25487 -10.25413 -10.25382 -10.25248 -10.24817
 Alpha  occ. eigenvalues --  -10.24675 -10.24634 -10.24473 -10.24382 -10.23834
 Alpha  occ. eigenvalues --  -10.23826 -10.23729 -10.23654 -10.23445 -10.22843
 Alpha  occ. eigenvalues --  -10.22733 -10.22652 -10.22610 -10.22378 -10.22299
 Alpha  occ. eigenvalues --  -10.22277 -10.22210 -10.22087 -10.21914 -10.21746
 Alpha  occ. eigenvalues --  -10.21710 -10.21519 -10.21459 -10.21428 -10.21333
 Alpha  occ. eigenvalues --  -10.21305 -10.21132 -10.21095 -10.20799 -10.20556
 Alpha  occ. eigenvalues --  -10.20524 -10.20060 -10.19829 -10.19791 -10.19175
 Alpha  occ. eigenvalues --  -10.19002  -3.10104  -1.85055  -1.84564  -1.84511
 Alpha  occ. eigenvalues --   -1.14736  -1.13937  -1.09945  -1.08827  -1.07305
 Alpha  occ. eigenvalues --   -1.06656  -1.05600  -1.01614  -1.00541  -0.99078
 Alpha  occ. eigenvalues --   -0.97419  -0.87843  -0.86124  -0.85835  -0.85478
 Alpha  occ. eigenvalues --   -0.85331  -0.84885  -0.84287  -0.83684  -0.83286
 Alpha  occ. eigenvalues --   -0.82711  -0.82407  -0.82195  -0.80327  -0.79461
 Alpha  occ. eigenvalues --   -0.78760  -0.78043  -0.77166  -0.77078  -0.76597
 Alpha  occ. eigenvalues --   -0.75506  -0.74915  -0.74051  -0.72379  -0.71735
 Alpha  occ. eigenvalues --   -0.71522  -0.70305  -0.69778  -0.69544  -0.69412
 Alpha  occ. eigenvalues --   -0.69013  -0.68768  -0.67462  -0.66642  -0.66054
 Alpha  occ. eigenvalues --   -0.65311  -0.64338  -0.64151  -0.62568  -0.61778
 Alpha  occ. eigenvalues --   -0.61370  -0.60690  -0.59968  -0.59193  -0.59066
 Alpha  occ. eigenvalues --   -0.58839  -0.58069  -0.57435  -0.57326  -0.56829
 Alpha  occ. eigenvalues --   -0.56737  -0.56107  -0.55749  -0.55623  -0.54720
 Alpha  occ. eigenvalues --   -0.54266  -0.53550  -0.52757  -0.52285  -0.52164
 Alpha  occ. eigenvalues --   -0.51629  -0.51318  -0.51296  -0.51225  -0.50625
 Alpha  occ. eigenvalues --   -0.50358  -0.49849  -0.49566  -0.49432  -0.48904
 Alpha  occ. eigenvalues --   -0.48802  -0.48553  -0.48308  -0.48144  -0.47967
 Alpha  occ. eigenvalues --   -0.47882  -0.47284  -0.47217  -0.46784  -0.46761
 Alpha  occ. eigenvalues --   -0.46492  -0.46437  -0.46213  -0.45821  -0.45652
 Alpha  occ. eigenvalues --   -0.45469  -0.45371  -0.45316  -0.44976  -0.44846
 Alpha  occ. eigenvalues --   -0.44552  -0.44388  -0.44155  -0.44047  -0.43911
 Alpha  occ. eigenvalues --   -0.43496  -0.43154  -0.43089  -0.42954  -0.42896
 Alpha  occ. eigenvalues --   -0.42832  -0.42703  -0.42324  -0.42128  -0.42027
 Alpha  occ. eigenvalues --   -0.41708  -0.41640  -0.41484  -0.41427  -0.41096
 Alpha  occ. eigenvalues --   -0.40638  -0.40422  -0.40356  -0.40102  -0.39927
 Alpha  occ. eigenvalues --   -0.39822  -0.39484  -0.39445  -0.39307  -0.38732
 Alpha  occ. eigenvalues --   -0.38608  -0.38465  -0.38203  -0.37955  -0.37911
 Alpha  occ. eigenvalues --   -0.37664  -0.37452  -0.37428  -0.37242  -0.36986
 Alpha  occ. eigenvalues --   -0.36671  -0.36332  -0.36154  -0.35908  -0.35771
 Alpha  occ. eigenvalues --   -0.35562  -0.34829  -0.34708  -0.34410  -0.34036
 Alpha  occ. eigenvalues --   -0.33970  -0.33828  -0.33475  -0.33418  -0.33162
 Alpha  occ. eigenvalues --   -0.32849  -0.32395  -0.32189  -0.31776  -0.31580
 Alpha  occ. eigenvalues --   -0.31212  -0.31005  -0.30513  -0.30191  -0.29660
 Alpha  occ. eigenvalues --   -0.29026  -0.28379  -0.28090  -0.27650  -0.27581
 Alpha  occ. eigenvalues --   -0.27479  -0.27319  -0.23053  -0.20395
 Alpha virt. eigenvalues --   -0.07487  -0.05848  -0.01328  -0.00044   0.00732
 Alpha virt. eigenvalues --    0.02941   0.03407   0.04383   0.04769   0.04924
 Alpha virt. eigenvalues --    0.05504   0.06044   0.07873   0.08241   0.09480

 Mulliken charges:
               1
     1  Mg   0.827674
     2  C    0.058740
     3  C   -0.187846
     4  C   -0.112555
     5  C   -0.189189
     6  N   -0.630768
     7  C    0.272857
     8  C   -0.166146
     9  C   -0.078355
    10  C    0.325380
    11  C   -0.291578
    12  C   -0.160613
    13  C   -0.258148
    14  C    0.606030
    15  O   -0.454553
    16  O   -0.472350
    17  N   -0.725757
    18  C    0.347820
    19  C   -0.021871
    20  C   -0.026652
    21  C    0.291460
    22  C   -0.364696
    23  C    0.249282
    24  O   -0.405124
    25  N   -0.710053
    26  C    0.279983
    27  C   -0.049542
    28  C    0.062632
    29  C    0.303005
    30  C    0.289378
    31  C   -0.294329
    32  C   -0.301365
    33  N   -0.730544
    34  C    0.269852
    35  C    0.085144
    36  C   -0.002888
    37  C    0.358237
    38  C   -0.429509
    39  C    0.360970
    40  O   -0.411355
    41  C   -0.353739
    42  C    0.643851
    43  O   -0.451520
    44  O   -0.443969
    45  C   -0.104051
    46  C    0.059644
    47  C   -0.178336
    48  C    0.155020
    49  C   -0.355374
    50  C   -0.225185
    51  C   -0.160936
    52  C   -0.161394
    53  C   -0.052536
    54  C   -0.297165
    55  C   -0.199861
    56  C   -0.176865
    57  C   -0.176901
    58  C   -0.052791
    59  C   -0.297455
    60  C   -0.164739
    61  C   -0.179060
    62  C   -0.145435
    63  C   -0.037901
    64  C   -0.324719
    65  C   -0.309556
    66  H    0.083565
    67  H    0.098380
    68  H    0.093059
    69  H    0.095607
    70  H    0.101717
    71  H    0.075277
    72  H    0.115662
    73  H    0.119816
    74  H    0.110812
    75  H    0.104438
    76  H    0.118078
    77  H    0.134350
    78  H    0.115936
    79  H    0.157506
    80  H    0.128959
    81  H    0.078472
    82  H    0.109544
    83  H    0.096330
    84  H    0.088203
    85  H    0.129556
    86  H    0.112716
    87  H    0.123978
    88  H    0.146338
    89  H    0.139089
    90  H    0.146371
    91  H    0.119128
    92  H    0.106294
    93  H    0.075394
    94  H    0.127075
    95  H    0.127995
    96  H    0.106032
    97  H    0.066833
    98  H    0.094942
    99  H    0.081927
   100  H    0.107469
   101  H    0.083810
   102  H    0.076668
   103  H    0.085794
   104  H    0.089986
   105  H    0.104473
   106  H    0.102524
   107  H    0.081791
   108  H    0.083062
   109  H    0.077994
   110  H    0.076136
   111  H    0.097379
   112  H    0.091546
   113  H    0.079960
   114  H    0.089239
   115  H    0.113873
   116  H    0.079676
   117  H    0.091175
   118  H    0.087255
   119  H    0.088522
   120  H    0.095781
   121  H    0.061423
   122  H    0.054736
   123  H    0.090808
   124  H    0.081183
   125  H    0.102657
   126  H    0.112527
   127  H    0.097561
   128  H    0.106380
   129  H    0.092332
   130  H    0.127691
   131  H    0.136408
   132  H    0.137889
   133  O   -0.414196
   134  H    0.077424
 Sum of Mulliken charges =   0.00000

 Dipole moment (field-independent basis, Debye):
    X=             -0.7956    Y=             -5.3257    Z=              1.4691  Tot=              5.5816
 Quadrupole moment (field-independent basis, Debye-Ang):
   XX=           -368.6704   YY=           -427.0568   ZZ=           -388.8962
   XY=             -1.5679   XZ=             30.2633   YZ=             35.4458

 Normal termination of Gaussian 09 at Thu Oct  3 18:08:53 2019.
