 Gaussian 09, Revision D.01,
 Gaussian 09:  ES64L-G09RevD.01 24-Apr-2013

 ----------------------------------------------------------------------
 # td=(NStates=1) iop(3/107=0140000000,3/108=0140000000) iop(3/107=0140
 000000,3/108=0140000000) CAM-B3LYP/6-31G(d,p)
 ----------------------------------------------------------------------

 --
 TD
 --
 Symbolic Z-matrix:
 Charge =  0 Multiplicity = 1

                         Standard orientation:
 ---------------------------------------------------------------------
 Center     Atomic      Atomic             Coordinates (Angstroms)
 Number     Number       Type             X           Y           Z
 ---------------------------------------------------------------------
      1         12           0       -5.550208    1.253169    0.180492
      2          6           0       -4.990901   -2.130040   -0.388507
      3          6           0       -3.237778    1.198302    2.694301
      4          6           0       -6.145681    4.591862    0.634756
      5          6           0       -7.919534    1.251772   -2.386434
      6          7           0       -4.325006   -0.292227    0.982084
      7          6           0       -4.231171   -1.604837    0.608349
      8          6           0       -3.157663   -2.337504    1.465572
      9          6           0       -2.897029   -1.343777    2.599137
     10          6           0       -3.495544   -0.073450    2.076098
     11          6           0       -3.471953   -1.790085    3.935656
     12          6           0       -1.946201   -2.719234    0.584962
     13          6           0       -0.952603   -3.703491    1.352187
     14          6           0        0.171996   -4.000786    0.491360
     15          8           0        0.432155   -3.499320   -0.557659
     16          8           0        0.968934   -4.758826    1.188633
     17          7           0       -4.806859    2.681476    1.333137
     18          6           0       -3.884910    2.412047    2.373410
     19          6           0       -3.616289    3.690111    3.083059
     20          6           0       -4.459638    4.678407    2.581306
     21          6           0       -5.140613    4.008305    1.467885
     22          6           0       -2.635494    3.730131    4.322392
     23          6           0       -4.653835    5.956777    2.925072
     24          8           0       -3.948302    6.564727    3.818217
     25          7           0       -6.779150    2.638243   -0.728499
     26          6           0       -6.948155    4.000237   -0.340704
     27          6           0       -7.991867    4.536717   -1.127900
     28          6           0       -8.407288    3.612180   -1.967577
     29          6           0       -7.682996    2.375576   -1.738273
     30          6           0       -8.408203    5.944579   -1.104918
     31          6           0       -9.404595    3.874983   -3.055234
     32          6           0       -8.798540    3.922844   -4.461341
     33          7           0       -6.290885   -0.170340   -1.067814
     34          6           0       -7.202405    0.023538   -2.082018
     35          6           0       -7.499990   -1.258740   -2.687160
     36          6           0       -6.644352   -2.155421   -2.083513
     37          6           0       -5.964217   -1.435459   -1.016110
     38          6           0       -8.538167   -1.535997   -3.776286
     39          6           0       -6.231176   -3.569081   -1.989009
     40          8           0       -6.654725   -4.574735   -2.512296
     41          6           0       -4.956727   -3.579830   -0.882491
     42          6           0       -5.254728   -4.566597    0.089361
     43          8           0       -5.866523   -4.370685    1.189271
     44          8           0       -4.894395   -5.774793   -0.296696
     45          6           0       -5.192621   -6.958392    0.360153
     46          6           0        2.344893   -5.066691    0.513043
     47          6           0        3.279821   -4.133172    1.059176
     48          6           0        4.064621   -3.281834    0.297661
     49          6           0        3.735109   -3.060856   -1.256680
     50          6           0        5.049465   -2.329294    0.787538
     51          6           0        6.446127   -2.683599    0.196394
     52          6           0        7.570076   -1.785197    0.753424
     53          6           0        8.936984   -1.957757    0.052025
     54          6           0        9.483892   -3.454662    0.106602
     55          6           0        9.901930   -0.994454    0.579416
     56          6           0       11.315523   -0.947622   -0.198250
     57          6           0       12.105930    0.307947    0.179126
     58          6           0       13.435302    0.415098   -0.543645
     59          6           0       14.446831   -0.668116   -0.385199
     60          6           0       14.135685    1.733625   -0.126781
     61          6           0       15.394525    2.106025   -1.000615
     62          6           0       16.001032    3.595333   -0.803956
     63          6           0       17.236447    3.893992   -1.475129
     64          6           0       17.144480    4.118076   -2.988590
     65          6           0       17.809016    5.238781   -0.842234
     66          1           0       -2.659085    1.276155    3.595886
     67          1           0       -6.239856    5.692833    0.563632
     68          1           0       -8.733221    1.278149   -3.207765
     69          1           0       -3.634886   -3.176383    1.773299
     70          1           0       -1.880328   -1.116936    2.719585
     71          1           0       -3.031184   -2.804972    4.244314
     72          1           0       -3.437765   -1.007282    4.619318
     73          1           0       -4.558397   -1.920110    3.899934
     74          1           0       -2.165358   -3.248296   -0.186993
     75          1           0       -1.518517   -1.872863    0.073349
     76          1           0       -0.549935   -3.169424    2.212616
     77          1           0       -1.579243   -4.631010    1.694047
     78          1           0       -1.611749    3.445248    4.225439
     79          1           0       -2.581625    4.829785    4.423827
     80          1           0       -3.184731    3.200012    5.072862
     81          1           0       -5.486232    6.508076    2.340828
     82          1           0      -10.245329    2.979004   -2.932190
     83          1           0       -9.964118    4.830029   -2.877380
     84          1           0       -9.436841    4.178643   -5.217299
     85          1           0       -8.049722    4.640347   -4.470332
     86          1           0       -8.129684    2.953442   -4.855833
     87          1           0       -8.557428   -0.878308   -4.661212
     88          1           0       -8.322099   -2.490197   -4.047939
     89          1           0       -9.707281   -1.724570   -3.394407
     90          1           0       -4.039375   -3.898943   -1.586206
     91          1           0        2.441964   -6.081428    0.889155
     92          1           0        2.235546   -5.161505   -0.462812
     93          1           0        3.642692   -4.165158    2.022310
     94          1           0        2.664099   -3.496873   -1.499613
     95          1           0        3.675032   -1.749889   -1.156719
     96          1           0        4.509900   -3.546537   -1.989928
     97          1           0        4.779798   -1.399606    0.637634
     98          1           0        5.034108   -2.326869    1.936820
     99          1           0        6.789309   -3.746530    0.391454
    100          1           0        6.353118   -2.360773   -0.779549
    101          1           0        7.262456   -0.798376    0.605969
    102          1           0        7.624469   -1.998551    1.734596
    103          1           0        8.540200   -1.890592   -1.005618
    104          1           0        8.742955   -4.322295   -0.153166
    105          1           0       10.297266   -3.600381   -0.592025
    106          1           0        9.676508   -3.724212    1.249933
    107          1           0        9.447123   -0.029997    0.415842
    108          1           0       10.123758   -1.129982    1.648208
    109          1           0       11.860496   -1.930681    0.163217
    110          1           0       11.165096   -0.837898   -1.347796
    111          1           0       11.632226    1.220631    0.075998
    112          1           0       12.433366    0.383652    1.269192
    113          1           0       13.155879    0.715506   -1.582464
    114          1           0       14.895518   -0.701008    0.596454
    115          1           0       13.940088   -1.684306   -0.456275
    116          1           0       15.253536   -0.743058   -1.000630
    117          1           0       13.398195    2.585631   -0.168581
    118          1           0       14.685862    1.788623    0.947628
    119          1           0       16.285797    1.465069   -0.552179
    120          1           0       15.113056    1.902019   -2.118879
    121          1           0       15.202011    4.282433   -0.818375
    122          1           0       15.941616    3.509645    0.249906
    123          1           0       17.966820    3.131731   -1.276661
    124          1           0       16.383689    4.804769   -3.062586
    125          1           0       17.884725    4.339077   -3.436345
    126          1           0       16.641727    3.140136   -3.683084
    127          1           0       17.921498    5.297453    0.252272
    128          1           0       18.812478    5.485622   -1.281940
    129          1           0       17.141287    6.127247   -1.113689
    130          1           0       -4.796459   -7.704657   -0.423964
    131          1           0       -6.477594   -7.054944    0.357540
    132          1           0       -4.788076   -6.992317    1.512988
    133          8           0       -7.937708    6.833784   -0.312299
    134          1           0       -9.249761    6.179841   -1.716457
 ---------------------------------------------------------------------

 SCF Done:  E(RCAM-B3LYP) =  -3043.44764246     A.U. after   16 cycles

 Excitation energies and oscillator strengths:

 Excited State   1:      Singlet-A      1.9389 eV  639.45 nm  f=0.2435  <S**2>=0.000
     243 -> 246       -0.23044
     244 -> 245        0.66218
 This state for optimization and/or second-order correction.
 Total Energy, E(TD-HF/TD-KS) =  -3043.37638820
 Copying the excited state density for this state as the 1-particle RhoCI density.

 The electronic state is 1-A.
 Alpha  occ. eigenvalues --  -46.80816 -19.22885 -19.21149 -19.18193 -19.17775
 Alpha  occ. eigenvalues --  -19.16176 -19.15742 -19.15720 -14.39414 -14.37424
 Alpha  occ. eigenvalues --  -14.36670 -14.36616 -10.34572 -10.33271 -10.32600
 Alpha  occ. eigenvalues --  -10.31015 -10.30584 -10.29104 -10.28244 -10.27235
 Alpha  occ. eigenvalues --  -10.27143 -10.26976 -10.26849 -10.26585 -10.26414
 Alpha  occ. eigenvalues --  -10.25695 -10.25662 -10.25662 -10.25458 -10.25168
 Alpha  occ. eigenvalues --  -10.25069 -10.24824 -10.24584 -10.24265 -10.24155
 Alpha  occ. eigenvalues --  -10.23965 -10.23549 -10.23482 -10.23400 -10.23268
 Alpha  occ. eigenvalues --  -10.23238 -10.22891 -10.22839 -10.22712 -10.22671
 Alpha  occ. eigenvalues --  -10.22585 -10.22570 -10.22147 -10.22132 -10.22031
 Alpha  occ. eigenvalues --  -10.22001 -10.21853 -10.21730 -10.21637 -10.21572
 Alpha  occ. eigenvalues --  -10.21384 -10.21365 -10.21200 -10.21097 -10.21082
 Alpha  occ. eigenvalues --  -10.21004 -10.20405 -10.19460 -10.19328 -10.19256
 Alpha  occ. eigenvalues --  -10.19239  -3.09532  -1.84468  -1.84006  -1.83944
 Alpha  occ. eigenvalues --   -1.14535  -1.13547  -1.07951  -1.04466  -1.04067
 Alpha  occ. eigenvalues --   -1.02091  -1.02007  -1.01290  -0.99482  -0.99166
 Alpha  occ. eigenvalues --   -0.98140  -0.88656  -0.86895  -0.85862  -0.85794
 Alpha  occ. eigenvalues --   -0.85530  -0.84897  -0.84775  -0.84151  -0.83986
 Alpha  occ. eigenvalues --   -0.83425  -0.83230  -0.82346  -0.81150  -0.80432
 Alpha  occ. eigenvalues --   -0.79296  -0.78506  -0.78050  -0.77646  -0.76479
 Alpha  occ. eigenvalues --   -0.75354  -0.75094  -0.74185  -0.73163  -0.72286
 Alpha  occ. eigenvalues --   -0.71722  -0.71091  -0.70537  -0.70229  -0.69828
 Alpha  occ. eigenvalues --   -0.69698  -0.69426  -0.68280  -0.67902  -0.67102
 Alpha  occ. eigenvalues --   -0.66671  -0.65803  -0.64635  -0.62930  -0.62659
 Alpha  occ. eigenvalues --   -0.62236  -0.60750  -0.60630  -0.59322  -0.59042
 Alpha  occ. eigenvalues --   -0.58772  -0.58267  -0.57635  -0.57566  -0.56961
 Alpha  occ. eigenvalues --   -0.56178  -0.56087  -0.55511  -0.55441  -0.54410
 Alpha  occ. eigenvalues --   -0.53860  -0.53517  -0.52876  -0.52581  -0.52181
 Alpha  occ. eigenvalues --   -0.52128  -0.51918  -0.51741  -0.51603  -0.51027
 Alpha  occ. eigenvalues --   -0.50855  -0.50660  -0.49926  -0.49575  -0.49196
 Alpha  occ. eigenvalues --   -0.48996  -0.48516  -0.48447  -0.48240  -0.47822
 Alpha  occ. eigenvalues --   -0.47765  -0.47520  -0.47311  -0.47105  -0.47018
 Alpha  occ. eigenvalues --   -0.46995  -0.46194  -0.45857  -0.45847  -0.45624
 Alpha  occ. eigenvalues --   -0.45485  -0.45369  -0.45025  -0.44927  -0.44847
 Alpha  occ. eigenvalues --   -0.44531  -0.44364  -0.44355  -0.44201  -0.43873
 Alpha  occ. eigenvalues --   -0.43581  -0.43411  -0.43110  -0.42959  -0.42672
 Alpha  occ. eigenvalues --   -0.42567  -0.42271  -0.42222  -0.41940  -0.41610
 Alpha  occ. eigenvalues --   -0.41259  -0.41154  -0.41120  -0.41015  -0.40850
 Alpha  occ. eigenvalues --   -0.40792  -0.40709  -0.40357  -0.40297  -0.40054
 Alpha  occ. eigenvalues --   -0.40035  -0.39630  -0.39314  -0.39041  -0.38969
 Alpha  occ. eigenvalues --   -0.38656  -0.38550  -0.38437  -0.38385  -0.38299
 Alpha  occ. eigenvalues --   -0.38090  -0.37614  -0.37584  -0.37393  -0.37173
 Alpha  occ. eigenvalues --   -0.37007  -0.36877  -0.36664  -0.36451  -0.36356
 Alpha  occ. eigenvalues --   -0.35233  -0.35151  -0.34793  -0.34577  -0.34389
 Alpha  occ. eigenvalues --   -0.34191  -0.34102  -0.33936  -0.33383  -0.33249
 Alpha  occ. eigenvalues --   -0.33055  -0.32782  -0.32076  -0.31741  -0.31692
 Alpha  occ. eigenvalues --   -0.31524  -0.30535  -0.30420  -0.30324  -0.29520
 Alpha  occ. eigenvalues --   -0.29119  -0.28664  -0.28465  -0.28063  -0.27888
 Alpha  occ. eigenvalues --   -0.27193  -0.26904  -0.23146  -0.21507
 Alpha virt. eigenvalues --   -0.09124  -0.06415  -0.02190  -0.01871  -0.00007
 Alpha virt. eigenvalues --    0.01900   0.02139   0.03895   0.04268   0.04608
 Alpha virt. eigenvalues --    0.05243   0.05463   0.07990   0.08577   0.09167

 Mulliken charges:
               1
     1  Mg   0.819036
     2  C    0.101358
     3  C   -0.177380
     4  C   -0.192995
     5  C   -0.166141
     6  N   -0.629021
     7  C    0.288338
     8  C   -0.133741
     9  C   -0.133014
    10  C    0.317153
    11  C   -0.312372
    12  C   -0.173955
    13  C   -0.283290
    14  C    0.617757
    15  O   -0.477439
    16  O   -0.477171
    17  N   -0.712125
    18  C    0.308624
    19  C   -0.012661
    20  C    0.117397
    21  C    0.296348
    22  C   -0.385247
    23  C    0.155085
    24  O   -0.466135
    25  N   -0.727827
    26  C    0.276434
    27  C    0.022503
    28  C    0.019448
    29  C    0.378834
    30  C    0.248295
    31  C   -0.254066
    32  C   -0.307453
    33  N   -0.719636
    34  C    0.257624
    35  C    0.001249
    36  C    0.021779
    37  C    0.305878
    38  C   -0.376126
    39  C    0.360980
    40  O   -0.441068
    41  C   -0.338716
    42  C    0.640159
    43  O   -0.527980
    44  O   -0.407433
    45  C   -0.069506
    46  C   -0.009816
    47  C   -0.098327
    48  C    0.120078
    49  C   -0.345495
    50  C   -0.232743
    51  C   -0.182475
    52  C   -0.180620
    53  C   -0.047008
    54  C   -0.322182
    55  C   -0.163923
    56  C   -0.180834
    57  C   -0.165129
    58  C   -0.042053
    59  C   -0.315842
    60  C   -0.180447
    61  C   -0.188316
    62  C   -0.161270
    63  C   -0.055100
    64  C   -0.257348
    65  C   -0.323696
    66  H    0.093141
    67  H    0.135754
    68  H    0.111061
    69  H    0.116187
    70  H    0.113211
    71  H    0.110169
    72  H    0.114168
    73  H    0.128231
    74  H    0.119263
    75  H    0.119935
    76  H    0.143158
    77  H    0.124116
    78  H    0.127716
    79  H    0.163162
    80  H    0.136355
    81  H    0.090143
    82  H    0.089192
    83  H    0.111445
    84  H    0.127125
    85  H    0.128904
    86  H    0.084836
    87  H    0.124213
    88  H    0.153352
    89  H    0.104231
    90  H    0.153424
    91  H    0.121070
    92  H    0.133368
    93  H    0.080720
    94  H    0.140686
    95  H    0.073118
    96  H    0.114562
    97  H    0.118584
    98  H    0.078078
    99  H    0.100161
   100  H    0.110684
   101  H    0.090278
   102  H    0.095346
   103  H    0.076805
   104  H    0.084558
   105  H    0.117168
   106  H    0.080220
   107  H    0.092590
   108  H    0.099259
   109  H    0.097188
   110  H    0.084534
   111  H    0.098090
   112  H    0.076948
   113  H    0.082313
   114  H    0.103696
   115  H    0.081590
   116  H    0.124405
   117  H    0.075504
   118  H    0.063719
   119  H    0.077619
   120  H    0.074658
   121  H    0.087745
   122  H    0.092179
   123  H    0.090887
   124  H    0.111415
   125  H    0.106338
   126  H    0.045777
   127  H    0.105560
   128  H    0.092318
   129  H    0.092025
   130  H    0.131311
   131  H    0.102011
   132  H    0.117124
   133  O   -0.446437
   134  H    0.082500
 Sum of Mulliken charges =   0.00000

 Dipole moment (field-independent basis, Debye):
    X=              3.0994    Y=             -5.0452    Z=             -2.2818  Tot=              6.3456
 Quadrupole moment (field-independent basis, Debye-Ang):
   XX=           -375.0905   YY=           -441.1659   ZZ=           -393.9115
   XY=              3.0934   XZ=             34.3720   YZ=            -36.9780

 Normal termination of Gaussian 09 at Fri Oct  4 11:07:33 2019.
