 Gaussian 09, Revision D.01,
 Gaussian 09:  ES64L-G09RevD.01 24-Apr-2013

 ----------------------------------------------------------------------
 # td=(NStates=1) iop(3/107=0140000000,3/108=0140000000) iop(3/107=0140
 000000,3/108=0140000000) CAM-B3LYP/6-31G(d,p)
 ----------------------------------------------------------------------

 --
 TD
 --
 Symbolic Z-matrix:
 Charge =  0 Multiplicity = 1

                         Standard orientation:
 ---------------------------------------------------------------------
 Center     Atomic      Atomic             Coordinates (Angstroms)
 Number     Number       Type             X           Y           Z
 ---------------------------------------------------------------------
      1         12           0       -5.770946    1.255502    0.220110
      2          6           0       -5.100023   -2.129489   -0.409762
      3          6           0       -3.472504    1.075640    2.766271
      4          6           0       -6.137582    4.572896    0.653480
      5          6           0       -7.980926    1.283082   -2.421693
      6          7           0       -4.471125   -0.338694    1.013258
      7          6           0       -4.302451   -1.664366    0.656631
      8          6           0       -3.353855   -2.396364    1.527540
      9          6           0       -3.027557   -1.355318    2.595948
     10          6           0       -3.758890   -0.123607    2.129080
     11          6           0       -3.530043   -1.795891    3.976604
     12          6           0       -2.038313   -2.661573    0.673074
     13          6           0       -1.005060   -3.535462    1.345094
     14          6           0        0.122859   -3.931148    0.409757
     15          8           0        0.426845   -3.464743   -0.641933
     16          8           0        1.005376   -4.746971    1.101424
     17          7           0       -4.955099    2.633801    1.554452
     18          6           0       -3.969615    2.400561    2.499659
     19          6           0       -3.661366    3.579519    3.237557
     20          6           0       -4.383320    4.582028    2.679799
     21          6           0       -5.120080    3.987868    1.568498
     22          6           0       -2.732451    3.622754    4.419246
     23          6           0       -4.509023    6.011720    3.049012
     24          8           0       -3.717398    6.489800    3.878888
     25          7           0       -6.897023    2.604951   -0.668528
     26          6           0       -6.894586    3.995125   -0.317785
     27          6           0       -7.820912    4.731953   -1.185624
     28          6           0       -8.344668    3.773344   -1.996531
     29          6           0       -7.758282    2.442827   -1.731304
     30          6           0       -8.091263    6.181512   -1.208479
     31          6           0       -9.331449    3.967659   -3.170374
     32          6           0       -8.702166    4.026365   -4.424633
     33          7           0       -6.391075   -0.048559   -1.145295
     34          6           0       -7.298517    0.135385   -2.183726
     35          6           0       -7.606061   -1.305147   -2.756342
     36          6           0       -6.777171   -2.095248   -2.082527
     37          6           0       -6.110759   -1.338665   -1.150031
     38          6           0       -8.538490   -1.543314   -3.822370
     39          6           0       -6.201131   -3.543385   -2.151205
     40          8           0       -6.488922   -4.530169   -2.710358
     41          6           0       -5.071668   -3.554839   -0.863721
     42          6           0       -5.380432   -4.713316    0.115885
     43          8           0       -5.894348   -4.515750    1.210914
     44          8           0       -5.135829   -5.844205   -0.437585
     45          6           0       -5.405244   -6.967975    0.497657
     46          6           0        2.187670   -5.100728    0.574436
     47          6           0        3.313832   -4.188068    1.032163
     48          6           0        3.958794   -3.274255    0.299712
     49          6           0        3.749373   -3.042679   -1.208706
     50          6           0        5.133949   -2.418035    0.802578
     51          6           0        6.451539   -2.673993    0.120554
     52          6           0        7.565095   -1.819323    0.728343
     53          6           0        8.987612   -2.029657   -0.077128
     54          6           0        9.664835   -3.466407    0.291361
     55          6           0        9.966481   -0.902919    0.360744
     56          6           0       11.409483   -0.846810   -0.238140
     57          6           0       12.221618    0.321370    0.212253
     58          6           0       13.521130    0.443076   -0.544520
     59          6           0       14.428972   -0.682259   -0.322118
     60          6           0       14.226382    1.786601   -0.155079
     61          6           0       15.631379    2.133643   -0.936926
     62          6           0       16.179073    3.461597   -0.655751
     63          6           0       17.409286    3.832474   -1.383672
     64          6           0       17.232365    3.824997   -3.042856
     65          6           0       17.928301    5.287018   -0.879540
     66          1           0       -2.690721    1.040200    3.686022
     67          1           0       -6.425853    5.617230    0.668839
     68          1           0       -8.786149    1.355052   -3.252537
     69          1           0       -3.674618   -3.375579    1.800895
     70          1           0       -1.871531   -1.055789    2.705118
     71          1           0       -3.052828   -2.628923    4.469704
     72          1           0       -3.475514   -1.025301    4.743421
     73          1           0       -4.709243   -2.085888    4.013784
     74          1           0       -2.454864   -3.385868   -0.173576
     75          1           0       -1.776472   -1.759528    0.207233
     76          1           0       -0.635685   -3.211512    2.321796
     77          1           0       -1.486078   -4.379595    1.563069
     78          1           0       -1.822789    2.893153    4.283948
     79          1           0       -2.482637    4.677576    4.783048
     80          1           0       -3.295309    3.158157    5.287628
     81          1           0       -5.302474    6.625050    2.487201
     82          1           0       -9.914739    3.076519   -3.131209
     83          1           0      -10.022984    4.804989   -3.045650
     84          1           0       -9.324645    4.396501   -5.300496
     85          1           0       -7.775700    4.851547   -4.413526
     86          1           0       -8.082485    2.990628   -4.735155
     87          1           0       -8.531658   -0.865195   -4.673199
     88          1           0       -8.200859   -2.653042   -4.522354
     89          1           0       -9.656035   -1.670874   -3.427128
     90          1           0       -4.255202   -4.023440   -1.438602
     91          1           0        2.382519   -6.137646    1.032695
     92          1           0        2.252294   -5.156276   -0.460088
     93          1           0        3.527630   -4.286367    2.003042
     94          1           0        2.735923   -3.198370   -1.452553
     95          1           0        3.851252   -2.029931   -1.488090
     96          1           0        4.305984   -3.876911   -1.889336
     97          1           0        4.955392   -1.341868    0.665952
     98          1           0        5.222127   -2.612177    1.835548
     99          1           0        6.595513   -3.635877   -0.102262
    100          1           0        6.129801   -2.283180   -1.109769
    101          1           0        7.300373   -0.828630    0.520749
    102          1           0        7.818784   -2.079587    1.858911
    103          1           0        8.844319   -1.916157   -1.303249
    104          1           0        8.987179   -4.530781    0.228669
    105          1           0       10.503390   -3.593300   -0.254897
    106          1           0       10.049743   -3.385765    1.504488
    107          1           0        9.651245    0.084588    0.340501
    108          1           0        9.976576   -1.088934    1.509093
    109          1           0       12.142124   -1.806634   -0.224892
    110          1           0       11.365321   -1.132680   -1.294398
    111          1           0       11.631408    1.325307   -0.008341
    112          1           0       12.512222    0.325556    1.307406
    113          1           0       13.083102    0.490268   -1.551682
    114          1           0       14.521654   -0.824124    0.858543
    115          1           0       14.148195   -1.767434   -0.749184
    116          1           0       15.528497   -0.755487   -0.714727
    117          1           0       13.537212    2.588982   -0.387161
    118          1           0       14.637059    1.788818    1.050068
    119          1           0       16.502334    1.524100   -0.693456
    120          1           0       15.489991    2.031072   -2.106598
    121          1           0       15.500883    4.181083   -1.046794
    122          1           0       16.252293    3.535227    0.557430
    123          1           0       18.068372    2.989600   -1.290017
    124          1           0       16.184572    4.199254   -3.300410
    125          1           0       18.170140    4.304770   -3.322827
    126          1           0       17.251259    2.846989   -3.250849
    127          1           0       18.322760    5.098491    0.159853
    128          1           0       18.784729    5.693298   -1.604820
    129          1           0       17.123404    5.963306   -0.995776
    130          1           0       -5.184362   -7.850368   -0.250033
    131          1           0       -6.523392   -6.811320    0.647987
    132          1           0       -4.825021   -6.826931    1.241505
    133          8           0       -7.684316    7.089611   -0.469100
    134          1           0       -8.692415    6.408197   -2.169383
 ---------------------------------------------------------------------

 SCF Done:  E(RCAM-B3LYP) =  -3043.41917285     A.U. after   16 cycles

 Excitation energies and oscillator strengths:

 Excited State   1:      Singlet-A      1.9469 eV  636.83 nm  f=0.2154  <S**2>=0.000
     243 -> 246       -0.22606
     244 -> 245        0.65690
 This state for optimization and/or second-order correction.
 Total Energy, E(TD-HF/TD-KS) =  -3043.34762593
 Copying the excited state density for this state as the 1-particle RhoCI density.

 The electronic state is 1-A.
 Alpha  occ. eigenvalues --  -46.81414 -19.23811 -19.21454 -19.19795 -19.18440
 Alpha  occ. eigenvalues --  -19.18234 -19.16812 -19.16489 -14.39019 -14.37365
 Alpha  occ. eigenvalues --  -14.36993 -14.36756 -10.35550 -10.34789 -10.33532
 Alpha  occ. eigenvalues --  -10.31855 -10.30608 -10.28577 -10.27498 -10.27111
 Alpha  occ. eigenvalues --  -10.26824 -10.26717 -10.26526 -10.26490 -10.26482
 Alpha  occ. eigenvalues --  -10.26245 -10.26014 -10.25636 -10.25574 -10.25104
 Alpha  occ. eigenvalues --  -10.25027 -10.24544 -10.24510 -10.24490 -10.24482
 Alpha  occ. eigenvalues --  -10.24234 -10.24015 -10.23881 -10.23760 -10.23641
 Alpha  occ. eigenvalues --  -10.23594 -10.23534 -10.23383 -10.23225 -10.22998
 Alpha  occ. eigenvalues --  -10.22980 -10.22979 -10.22904 -10.22646 -10.22622
 Alpha  occ. eigenvalues --  -10.22542 -10.22362 -10.22339 -10.21869 -10.21757
 Alpha  occ. eigenvalues --  -10.21668 -10.21598 -10.21514 -10.21447 -10.21221
 Alpha  occ. eigenvalues --  -10.21211 -10.20506 -10.20360 -10.20094 -10.19945
 Alpha  occ. eigenvalues --  -10.19715  -3.10086  -1.85010  -1.84548  -1.84515
 Alpha  occ. eigenvalues --   -1.15902  -1.14621  -1.11399  -1.06757  -1.06404
 Alpha  occ. eigenvalues --   -1.05057  -1.04524  -1.01462  -1.00399  -0.99293
 Alpha  occ. eigenvalues --   -0.98069  -0.87601  -0.86600  -0.85916  -0.85758
 Alpha  occ. eigenvalues --   -0.85068  -0.84827  -0.84499  -0.83950  -0.83332
 Alpha  occ. eigenvalues --   -0.82867  -0.82553  -0.81842  -0.80435  -0.79938
 Alpha  occ. eigenvalues --   -0.79483  -0.78433  -0.77689  -0.77032  -0.76019
 Alpha  occ. eigenvalues --   -0.74870  -0.74437  -0.73768  -0.72662  -0.71661
 Alpha  occ. eigenvalues --   -0.70845  -0.70645  -0.69707  -0.69543  -0.69259
 Alpha  occ. eigenvalues --   -0.69088  -0.68720  -0.67103  -0.66159  -0.65602
 Alpha  occ. eigenvalues --   -0.64929  -0.64679  -0.63973  -0.62321  -0.61977
 Alpha  occ. eigenvalues --   -0.61595  -0.61014  -0.60785  -0.59901  -0.59328
 Alpha  occ. eigenvalues --   -0.58456  -0.57807  -0.57645  -0.57480  -0.57154
 Alpha  occ. eigenvalues --   -0.56480  -0.56201  -0.55400  -0.55192  -0.54646
 Alpha  occ. eigenvalues --   -0.54408  -0.54095  -0.53623  -0.52796  -0.52350
 Alpha  occ. eigenvalues --   -0.52031  -0.51829  -0.51553  -0.50810  -0.50725
 Alpha  occ. eigenvalues --   -0.50402  -0.50325  -0.49994  -0.49331  -0.49191
 Alpha  occ. eigenvalues --   -0.48998  -0.48450  -0.48314  -0.48115  -0.47617
 Alpha  occ. eigenvalues --   -0.47480  -0.47279  -0.46920  -0.46750  -0.46704
 Alpha  occ. eigenvalues --   -0.46395  -0.46163  -0.45896  -0.45708  -0.45593
 Alpha  occ. eigenvalues --   -0.45349  -0.45191  -0.45082  -0.44856  -0.44685
 Alpha  occ. eigenvalues --   -0.44454  -0.44296  -0.44166  -0.43950  -0.43706
 Alpha  occ. eigenvalues --   -0.43525  -0.43249  -0.43025  -0.42994  -0.42912
 Alpha  occ. eigenvalues --   -0.42722  -0.42522  -0.42153  -0.42050  -0.41767
 Alpha  occ. eigenvalues --   -0.41536  -0.41416  -0.41349  -0.41271  -0.41056
 Alpha  occ. eigenvalues --   -0.40910  -0.40726  -0.40503  -0.40202  -0.40119
 Alpha  occ. eigenvalues --   -0.39939  -0.39702  -0.39642  -0.39490  -0.39468
 Alpha  occ. eigenvalues --   -0.39221  -0.38884  -0.38457  -0.38369  -0.38198
 Alpha  occ. eigenvalues --   -0.37870  -0.37809  -0.37163  -0.37070  -0.36986
 Alpha  occ. eigenvalues --   -0.36712  -0.36155  -0.35874  -0.35492  -0.35377
 Alpha  occ. eigenvalues --   -0.35194  -0.35169  -0.34969  -0.34789  -0.34484
 Alpha  occ. eigenvalues --   -0.34274  -0.34082  -0.33697  -0.33483  -0.33246
 Alpha  occ. eigenvalues --   -0.32526  -0.32301  -0.31880  -0.31321  -0.31241
 Alpha  occ. eigenvalues --   -0.31088  -0.30757  -0.30695  -0.30016  -0.29575
 Alpha  occ. eigenvalues --   -0.29290  -0.29126  -0.28699  -0.27919  -0.27738
 Alpha  occ. eigenvalues --   -0.27453  -0.27126  -0.23048  -0.20899
 Alpha virt. eigenvalues --   -0.08520  -0.06288  -0.01228  -0.01103   0.00028
 Alpha virt. eigenvalues --    0.02450   0.03073   0.03801   0.04004   0.04814
 Alpha virt. eigenvalues --    0.04904   0.05563   0.07104   0.07916   0.08645

 Mulliken charges:
               1
     1  Mg   0.844050
     2  C    0.049863
     3  C   -0.193964
     4  C   -0.191824
     5  C   -0.180663
     6  N   -0.625558
     7  C    0.306939
     8  C   -0.141919
     9  C   -0.140688
    10  C    0.370818
    11  C   -0.318312
    12  C   -0.184995
    13  C   -0.252451
    14  C    0.583133
    15  O   -0.427657
    16  O   -0.443577
    17  N   -0.672065
    18  C    0.295623
    19  C    0.071763
    20  C   -0.014476
    21  C    0.270736
    22  C   -0.392246
    23  C    0.236976
    24  O   -0.424933
    25  N   -0.745426
    26  C    0.285684
    27  C    0.031864
    28  C   -0.033664
    29  C    0.349377
    30  C    0.258623
    31  C   -0.226207
    32  C   -0.283087
    33  N   -0.722329
    34  C    0.259615
    35  C    0.014729
    36  C    0.056179
    37  C    0.329325
    38  C   -0.400300
    39  C    0.379171
    40  O   -0.385799
    41  C   -0.348598
    42  C    0.606428
    43  O   -0.505540
    44  O   -0.423955
    45  C   -0.078639
    46  C    0.012873
    47  C   -0.137970
    48  C    0.132572
    49  C   -0.385135
    50  C   -0.221948
    51  C   -0.149999
    52  C   -0.153443
    53  C   -0.071994
    54  C   -0.282702
    55  C   -0.154062
    56  C   -0.182823
    57  C   -0.155264
    58  C   -0.050977
    59  C   -0.290638
    60  C   -0.153489
    61  C   -0.183187
    62  C   -0.127423
    63  C   -0.084722
    64  C   -0.326124
    65  C   -0.303679
    66  H    0.077720
    67  H    0.117639
    68  H    0.099699
    69  H    0.121092
    70  H    0.103282
    71  H    0.112946
    72  H    0.111946
    73  H    0.104267
    74  H    0.087928
    75  H    0.129685
    76  H    0.144251
    77  H    0.140398
    78  H    0.106586
    79  H    0.160275
    80  H    0.124066
    81  H    0.097000
    82  H    0.116037
    83  H    0.115864
    84  H    0.112254
    85  H    0.082507
    86  H    0.083834
    87  H    0.139185
    88  H    0.090075
    89  H    0.129021
    90  H    0.145056
    91  H    0.089944
    92  H    0.113584
    93  H    0.072580
    94  H    0.141739
    95  H    0.116977
    96  H    0.098795
    97  H    0.099364
    98  H    0.091641
    99  H    0.109389
   100  H    0.036428
   101  H    0.109234
   102  H    0.087785
   103  H    0.060029
   104  H    0.075667
   105  H    0.125276
   106  H    0.065633
   107  H    0.099967
   108  H    0.073081
   109  H    0.069443
   110  H    0.094424
   111  H    0.070250
   112  H    0.090958
   113  H    0.092596
   114  H    0.084503
   115  H    0.079284
   116  H    0.099721
   117  H    0.097242
   118  H    0.058170
   119  H    0.091224
   120  H    0.068786
   121  H    0.085651
   122  H    0.058102
   123  H    0.080335
   124  H    0.094988
   125  H    0.108637
   126  H    0.120256
   127  H    0.106855
   128  H    0.077654
   129  H    0.118165
   130  H    0.128187
   131  H    0.150738
   132  H    0.145866
   133  O   -0.425371
   134  H    0.061721
 Sum of Mulliken charges =   0.00000

 Dipole moment (field-independent basis, Debye):
    X=             -0.4349    Y=             -6.5074    Z=             -1.6040  Tot=              6.7162
 Quadrupole moment (field-independent basis, Debye-Ang):
   XX=           -371.1950   YY=           -434.0817   ZZ=           -395.5622
   XY=             14.4482   XZ=             22.0271   YZ=            -32.3911

 Normal termination of Gaussian 09 at Fri Oct  4 00:11:14 2019.
