 Gaussian 09, Revision D.01,
 Gaussian 09:  ES64L-G09RevD.01 24-Apr-2013

 ----------------------------------------------------------------------
 # td=(NStates=1) iop(3/107=0140000000,3/108=0140000000) iop(3/107=0140
 000000,3/108=0140000000) CAM-B3LYP/6-31G(d,p)
 ----------------------------------------------------------------------

 --
 TD
 --
 Symbolic Z-matrix:
 Charge =  0 Multiplicity = 1

                         Standard orientation:
 ---------------------------------------------------------------------
 Center     Atomic      Atomic             Coordinates (Angstroms)
 Number     Number       Type             X           Y           Z
 ---------------------------------------------------------------------
      1         12           0       -5.703185    1.227114    0.212579
      2          6           0       -4.965425   -2.216856   -0.329265
      3          6           0       -3.523350    1.235949    2.798276
      4          6           0       -6.410957    4.450718    0.609229
      5          6           0       -8.194306    1.009743   -2.347357
      6          7           0       -4.507145   -0.276253    1.082324
      7          6           0       -4.388574   -1.671521    0.707574
      8          6           0       -3.254625   -2.284431    1.507895
      9          6           0       -2.985286   -1.190302    2.604558
     10          6           0       -3.646101    0.000607    2.180902
     11          6           0       -3.495768   -1.669195    4.001152
     12          6           0       -2.065414   -2.592497    0.705891
     13          6           0       -1.076163   -3.551999    1.356119
     14          6           0        0.284330   -3.732146    0.587633
     15          8           0        0.493427   -3.345708   -0.529823
     16          8           0        1.087276   -4.502433    1.336066
     17          7           0       -4.925610    2.643947    1.405944
     18          6           0       -4.098020    2.391518    2.414359
     19          6           0       -3.858381    3.665957    3.156680
     20          6           0       -4.777311    4.593705    2.493641
     21          6           0       -5.406552    3.920998    1.426536
     22          6           0       -2.969435    3.837373    4.287041
     23          6           0       -4.953148    5.977614    2.834521
     24          8           0       -4.348038    6.662391    3.767623
     25          7           0       -6.983266    2.544670   -0.704720
     26          6           0       -7.074035    3.846187   -0.444949
     27          6           0       -8.100686    4.497491   -1.259891
     28          6           0       -8.611810    3.529554   -2.174108
     29          6           0       -7.909790    2.313953   -1.722121
     30          6           0       -8.525081    5.836648   -1.316033
     31          6           0       -9.527839    3.755897   -3.273775
     32          6           0       -8.953890    3.991947   -4.661410
     33          7           0       -6.402864   -0.190132   -1.053191
     34          6           0       -7.429288   -0.093217   -1.993538
     35          6           0       -7.577737   -1.430435   -2.675794
     36          6           0       -6.745140   -2.232113   -2.040828
     37          6           0       -6.013412   -1.486562   -1.049606
     38          6           0       -8.556841   -1.814875   -3.740481
     39          6           0       -6.308299   -3.688297   -1.910134
     40          8           0       -6.421958   -4.634800   -2.664057
     41          6           0       -5.090632   -3.634814   -0.880308
     42          6           0       -5.335560   -4.696678    0.220918
     43          8           0       -5.805190   -4.474831    1.351965
     44          8           0       -4.971706   -5.815824   -0.273757
     45          6           0       -5.203477   -6.990679    0.638506
     46          6           0        2.402965   -4.833090    0.686073
     47          6           0        3.496225   -3.826722    1.058726
     48          6           0        4.144599   -3.006376    0.189302
     49          6           0        3.726883   -2.742006   -1.181124
     50          6           0        5.273964   -2.146646    0.679461
     51          6           0        6.676632   -2.701633    0.057882
     52          6           0        7.783327   -1.706313    0.532020
     53          6           0        9.241714   -2.045448   -0.098228
     54          6           0        9.828286   -3.438216    0.145031
     55          6           0       10.237128   -0.948679    0.403487
     56          6           0       11.570332   -0.914090   -0.351121
     57          6           0       12.523313    0.269320    0.073844
     58          6           0       13.720069    0.447765   -0.765126
     59          6           0       14.651369   -0.759358   -0.590102
     60          6           0       14.365896    1.705637   -0.291588
     61          6           0       15.692477    2.079108   -0.993915
     62          6           0       16.147029    3.495393   -0.544891
     63          6           0       17.531831    3.830893   -1.270491
     64          6           0       17.483049    4.023370   -2.752823
     65          6           0       18.173636    5.144929   -0.483281
     66          1           0       -2.835575    0.954164    3.656459
     67          1           0       -6.515708    5.546405    0.646228
     68          1           0       -9.052863    0.851125   -2.960577
     69          1           0       -3.845005   -3.417327    1.969913
     70          1           0       -1.823501   -0.877567    2.552234
     71          1           0       -3.160462   -2.752991    4.243203
     72          1           0       -3.253288   -0.778428    4.832480
     73          1           0       -4.653021   -1.929840    3.958735
     74          1           0       -2.107017   -2.817537   -0.396164
     75          1           0       -1.681664   -1.514182    0.446851
     76          1           0       -0.676812   -3.019197    2.364896
     77          1           0       -1.379495   -4.514706    1.654917
     78          1           0       -1.872931    3.915039    3.994058
     79          1           0       -3.236287    4.862945    4.925085
     80          1           0       -3.248439    3.053414    4.971610
     81          1           0       -5.803861    6.610046    2.518943
     82          1           0      -10.183496    2.811054   -3.276629
     83          1           0      -10.210275    4.576833   -2.862939
     84          1           0       -9.645485    3.679021   -5.234323
     85          1           0       -8.451719    4.984727   -4.637083
     86          1           0       -8.210717    3.329133   -4.780392
     87          1           0       -8.154899   -1.561466   -4.825041
     88          1           0       -8.859452   -2.772143   -3.749107
     89          1           0       -9.603457   -1.302345   -3.612837
     90          1           0       -4.268420   -3.927371   -1.624228
     91          1           0        2.685756   -5.798714    0.865962
     92          1           0        2.236582   -4.702002   -0.492095
     93          1           0        3.873365   -3.738376    2.143725
     94          1           0        2.579427   -3.105031   -1.181059
     95          1           0        3.865531   -1.814051   -1.588545
     96          1           0        4.399442   -3.594850   -1.670528
     97          1           0        5.252382   -0.894109    0.668405
     98          1           0        5.394862   -2.288055    1.775518
     99          1           0        6.705310   -3.697419    0.400664
    100          1           0        6.383127   -2.787296   -1.051632
    101          1           0        7.452778   -0.668752    0.476644
    102          1           0        7.854187   -1.765006    1.675769
    103          1           0        9.170909   -1.869389   -1.196172
    104          1           0        9.005598   -4.155715   -0.201349
    105          1           0       10.640688   -3.605844   -0.390746
    106          1           0        9.816518   -3.500549    1.201250
    107          1           0        9.791896    0.080877    0.201855
    108          1           0       10.433217   -1.155726    1.493206
    109          1           0       12.040058   -1.930414   -0.196423
    110          1           0       11.334026   -0.737893   -1.434519
    111          1           0       12.009006    1.224345    0.095920
    112          1           0       12.618069    0.378017    1.102985
    113          1           0       13.455568    0.594301   -1.854794
    114          1           0       15.029259   -0.868464    0.381088
    115          1           0       14.206166   -1.811452   -0.892702
    116          1           0       15.444007   -0.664960   -1.343603
    117          1           0       13.680825    2.485833   -0.343038
    118          1           0       14.332987    1.574647    0.922607
    119          1           0       16.442656    1.406088   -0.694041
    120          1           0       15.602263    2.185758   -2.223693
    121          1           0       15.365762    4.147673   -0.601240
    122          1           0       16.261511    3.620968    0.637187
    123          1           0       18.289510    2.898243   -1.081343
    124          1           0       16.726808    4.788816   -2.848203
    125          1           0       18.407441    4.699945   -3.152523
    126          1           0       17.205825    3.109363   -3.534874
    127          1           0       18.255222    5.146470    0.722908
    128          1           0       19.230024    5.249250   -0.853978
    129          1           0       17.516051    6.053407   -0.808269
    130          1           0       -4.948377   -8.018024    0.135123
    131          1           0       -6.260153   -7.054762    0.910276
    132          1           0       -4.347480   -6.879187    1.371674
    133          8           0       -7.877734    6.699963   -0.644580
    134          1           0       -9.319282    6.139701   -2.024444
 ---------------------------------------------------------------------

 SCF Done:  E(RCAM-B3LYP) =  -3043.42734222     A.U. after   16 cycles

 Excitation energies and oscillator strengths:

 Excited State   1:      Singlet-A      1.9822 eV  625.48 nm  f=0.2048  <S**2>=0.000
     243 -> 246        0.21653
     244 -> 245        0.66470
 This state for optimization and/or second-order correction.
 Total Energy, E(TD-HF/TD-KS) =  -3043.35449723
 Copying the excited state density for this state as the 1-particle RhoCI density.

 The electronic state is 1-A.
 Alpha  occ. eigenvalues --  -46.80612 -19.24763 -19.22962 -19.18401 -19.17886
 Alpha  occ. eigenvalues --  -19.17100 -19.15581 -19.14954 -14.38228 -14.37462
 Alpha  occ. eigenvalues --  -14.37297 -14.36409 -10.35739 -10.35436 -10.32701
 Alpha  occ. eigenvalues --  -10.30250 -10.29296 -10.28861 -10.28429 -10.27186
 Alpha  occ. eigenvalues --  -10.26875 -10.26782 -10.26589 -10.26588 -10.26587
 Alpha  occ. eigenvalues --  -10.25899 -10.25879 -10.25748 -10.25650 -10.25425
 Alpha  occ. eigenvalues --  -10.25191 -10.25128 -10.24992 -10.24833 -10.24779
 Alpha  occ. eigenvalues --  -10.24316 -10.24241 -10.23982 -10.23925 -10.23666
 Alpha  occ. eigenvalues --  -10.23551 -10.23151 -10.22923 -10.22896 -10.22833
 Alpha  occ. eigenvalues --  -10.22740 -10.22682 -10.22502 -10.22488 -10.22455
 Alpha  occ. eigenvalues --  -10.22443 -10.22219 -10.22201 -10.22011 -10.21994
 Alpha  occ. eigenvalues --  -10.21662 -10.21421 -10.21015 -10.20910 -10.20834
 Alpha  occ. eigenvalues --  -10.20834 -10.20682 -10.20413 -10.19840 -10.19518
 Alpha  occ. eigenvalues --  -10.19239  -3.09334  -1.84272  -1.83794  -1.83759
 Alpha  occ. eigenvalues --   -1.15941  -1.13566  -1.08052  -1.05500  -1.04138
 Alpha  occ. eigenvalues --   -1.03155  -1.00870  -1.00250  -0.99851  -0.99313
 Alpha  occ. eigenvalues --   -0.97170  -0.88210  -0.86329  -0.85981  -0.85853
 Alpha  occ. eigenvalues --   -0.85365  -0.84945  -0.84000  -0.83441  -0.83273
 Alpha  occ. eigenvalues --   -0.82426  -0.82135  -0.81407  -0.80067  -0.79877
 Alpha  occ. eigenvalues --   -0.79037  -0.78203  -0.78101  -0.77413  -0.76317
 Alpha  occ. eigenvalues --   -0.75375  -0.74984  -0.73901  -0.73116  -0.72368
 Alpha  occ. eigenvalues --   -0.71214  -0.70903  -0.70002  -0.69765  -0.69562
 Alpha  occ. eigenvalues --   -0.69006  -0.68199  -0.67659  -0.67262  -0.66095
 Alpha  occ. eigenvalues --   -0.65421  -0.64048  -0.63755  -0.62207  -0.61876
 Alpha  occ. eigenvalues --   -0.61566  -0.60611  -0.60397  -0.59200  -0.59063
 Alpha  occ. eigenvalues --   -0.58680  -0.57992  -0.57665  -0.57248  -0.56426
 Alpha  occ. eigenvalues --   -0.56121  -0.55741  -0.54773  -0.54680  -0.54425
 Alpha  occ. eigenvalues --   -0.54174  -0.53969  -0.53169  -0.52919  -0.52100
 Alpha  occ. eigenvalues --   -0.51975  -0.51902  -0.51496  -0.51056  -0.50822
 Alpha  occ. eigenvalues --   -0.50528  -0.50150  -0.49307  -0.49058  -0.48914
 Alpha  occ. eigenvalues --   -0.48388  -0.48248  -0.48171  -0.47840  -0.47706
 Alpha  occ. eigenvalues --   -0.47589  -0.47494  -0.47312  -0.46861  -0.46624
 Alpha  occ. eigenvalues --   -0.46595  -0.46260  -0.46054  -0.45915  -0.45818
 Alpha  occ. eigenvalues --   -0.45466  -0.45253  -0.45120  -0.44868  -0.44562
 Alpha  occ. eigenvalues --   -0.44320  -0.44225  -0.43833  -0.43690  -0.43508
 Alpha  occ. eigenvalues --   -0.43433  -0.43127  -0.43108  -0.42806  -0.42503
 Alpha  occ. eigenvalues --   -0.42184  -0.41984  -0.41915  -0.41668  -0.41453
 Alpha  occ. eigenvalues --   -0.41284  -0.41199  -0.40994  -0.40797  -0.40565
 Alpha  occ. eigenvalues --   -0.40428  -0.40341  -0.40093  -0.39778  -0.39748
 Alpha  occ. eigenvalues --   -0.39498  -0.39203  -0.39053  -0.38939  -0.38834
 Alpha  occ. eigenvalues --   -0.38803  -0.38742  -0.38374  -0.38327  -0.38291
 Alpha  occ. eigenvalues --   -0.38028  -0.37593  -0.37434  -0.37024  -0.36884
 Alpha  occ. eigenvalues --   -0.36593  -0.36235  -0.35718  -0.35577  -0.35293
 Alpha  occ. eigenvalues --   -0.35107  -0.34754  -0.34563  -0.34309  -0.34096
 Alpha  occ. eigenvalues --   -0.34033  -0.33969  -0.33650  -0.33444  -0.33211
 Alpha  occ. eigenvalues --   -0.33058  -0.32937  -0.32691  -0.31583  -0.31503
 Alpha  occ. eigenvalues --   -0.31233  -0.31053  -0.30715  -0.29840  -0.29808
 Alpha  occ. eigenvalues --   -0.29351  -0.28302  -0.27832  -0.26885  -0.26688
 Alpha  occ. eigenvalues --   -0.26296  -0.25466  -0.23482  -0.21137
 Alpha virt. eigenvalues --   -0.08417  -0.06524  -0.01891  -0.01069   0.00127
 Alpha virt. eigenvalues --    0.03023   0.03352   0.03826   0.04236   0.04313
 Alpha virt. eigenvalues --    0.04708   0.05780   0.07520   0.07692   0.09011

 Mulliken charges:
               1
     1  Mg   0.818004
     2  C    0.117972
     3  C   -0.161427
     4  C   -0.166333
     5  C   -0.143358
     6  N   -0.646108
     7  C    0.274571
     8  C   -0.148022
     9  C   -0.166885
    10  C    0.363543
    11  C   -0.295607
    12  C   -0.171976
    13  C   -0.250941
    14  C    0.603002
    15  O   -0.456167
    16  O   -0.462426
    17  N   -0.750727
    18  C    0.351382
    19  C    0.061465
    20  C   -0.019802
    21  C    0.344229
    22  C   -0.401572
    23  C    0.186556
    24  O   -0.466909
    25  N   -0.676346
    26  C    0.333078
    27  C   -0.001485
    28  C    0.061530
    29  C    0.230399
    30  C    0.195557
    31  C   -0.285245
    32  C   -0.278904
    33  N   -0.710380
    34  C    0.272901
    35  C   -0.002061
    36  C    0.027078
    37  C    0.274735
    38  C   -0.377247
    39  C    0.373143
    40  O   -0.425710
    41  C   -0.312866
    42  C    0.614530
    43  O   -0.510185
    44  O   -0.402733
    45  C   -0.101583
    46  C   -0.025391
    47  C   -0.139910
    48  C    0.136268
    49  C   -0.359129
    50  C   -0.236945
    51  C   -0.179492
    52  C   -0.175398
    53  C   -0.067189
    54  C   -0.302544
    55  C   -0.170477
    56  C   -0.175362
    57  C   -0.175717
    58  C   -0.033909
    59  C   -0.304364
    60  C   -0.175167
    61  C   -0.167270
    62  C   -0.166958
    63  C   -0.037099
    64  C   -0.300278
    65  C   -0.315135
    66  H    0.087581
    67  H    0.143071
    68  H    0.100460
    69  H    0.083447
    70  H    0.104112
    71  H    0.114037
    72  H    0.090754
    73  H    0.125134
    74  H    0.125200
    75  H    0.103158
    76  H    0.114820
    77  H    0.141984
    78  H    0.133943
    79  H    0.146639
    80  H    0.125495
    81  H    0.100243
    82  H    0.095288
    83  H    0.107875
    84  H    0.122233
    85  H    0.121162
    86  H    0.124865
    87  H    0.122789
    88  H    0.153055
    89  H    0.101389
    90  H    0.165599
    91  H    0.131640
    92  H    0.120296
    93  H    0.077812
    94  H    0.141752
    95  H    0.127184
    96  H    0.102494
    97  H    0.073773
    98  H    0.091789
    99  H    0.113946
   100  H    0.089044
   101  H    0.101627
   102  H    0.081255
   103  H    0.077386
   104  H    0.087713
   105  H    0.121769
   106  H    0.109225
   107  H    0.078194
   108  H    0.078035
   109  H    0.088601
   110  H    0.084420
   111  H    0.073375
   112  H    0.090325
   113  H    0.076605
   114  H    0.108921
   115  H    0.079865
   116  H    0.098643
   117  H    0.097452
   118  H    0.059221
   119  H    0.113920
   120  H    0.069881
   121  H    0.100001
   122  H    0.067442
   123  H    0.064250
   124  H    0.110593
   125  H    0.086372
   126  H    0.096096
   127  H    0.093246
   128  H    0.102164
   129  H    0.093031
   130  H    0.125836
   131  H    0.160693
   132  H    0.138924
   133  O   -0.456967
   134  H    0.078618
 Sum of Mulliken charges =   0.00000

 Dipole moment (field-independent basis, Debye):
    X=              0.9828    Y=             -7.9205    Z=             -2.2118  Tot=              8.2820
 Quadrupole moment (field-independent basis, Debye-Ang):
   XX=           -371.4374   YY=           -437.1475   ZZ=           -396.5685
   XY=             31.2118   XZ=             29.7355   YZ=            -36.9528

 Normal termination of Gaussian 09 at Fri Oct  4 15:46:44 2019.
