 Gaussian 09, Revision D.01,
 Gaussian 09:  ES64L-G09RevD.01 24-Apr-2013

 ----------------------------------------------------------------------
 # td=(NStates=1) iop(3/107=0140000000,3/108=0140000000) iop(3/107=0140
 000000,3/108=0140000000) CAM-B3LYP/6-31G(d,p)
 ----------------------------------------------------------------------

 --
 TD
 --
 Symbolic Z-matrix:
 Charge =  0 Multiplicity = 1

                         Standard orientation:
 ---------------------------------------------------------------------
 Center     Atomic      Atomic             Coordinates (Angstroms)
 Number     Number       Type             X           Y           Z
 ---------------------------------------------------------------------
      1         12           0       -5.737834    1.252975    0.198485
      2          6           0       -5.051488   -2.094292   -0.378484
      3          6           0       -3.481447    1.190757    2.767856
      4          6           0       -6.227846    4.539544    0.588815
      5          6           0       -8.258124    1.060636   -2.319833
      6          7           0       -4.382014   -0.183929    1.026447
      7          6           0       -4.290346   -1.503467    0.640729
      8          6           0       -3.197394   -2.257256    1.528040
      9          6           0       -3.015006   -1.323004    2.650099
     10          6           0       -3.610616   -0.018207    2.158800
     11          6           0       -3.612271   -1.806414    4.010948
     12          6           0       -1.975933   -2.740077    0.635607
     13          6           0       -0.981432   -3.383242    1.407584
     14          6           0        0.197025   -3.690475    0.612694
     15          8           0        0.530921   -3.323213   -0.516224
     16          8           0        0.945829   -4.556518    1.350566
     17          7           0       -5.025591    2.631911    1.451658
     18          6           0       -4.041434    2.373769    2.491935
     19          6           0       -3.785872    3.676114    3.149668
     20          6           0       -4.501351    4.631347    2.518258
     21          6           0       -5.283674    3.989018    1.465697
     22          6           0       -2.844735    3.801817    4.284235
     23          6           0       -4.486152    6.101854    2.702959
     24          8           0       -3.845708    6.649967    3.563763
     25          7           0       -7.027464    2.519679   -0.677618
     26          6           0       -7.033429    3.897972   -0.365582
     27          6           0       -7.984267    4.582433   -1.186131
     28          6           0       -8.507945    3.588889   -2.080701
     29          6           0       -7.894495    2.288783   -1.621815
     30          6           0       -8.432098    5.980909   -1.136469
     31          6           0       -9.509146    3.730971   -3.204429
     32          6           0       -8.927364    3.858369   -4.600453
     33          7           0       -6.401705   -0.104072   -1.125108
     34          6           0       -7.384629   -0.007557   -2.068978
     35          6           0       -7.704247   -1.394777   -2.624157
     36          6           0       -6.764307   -2.248041   -2.010738
     37          6           0       -6.062906   -1.453858   -1.106193
     38          6           0       -8.598713   -1.765594   -3.697680
     39          6           0       -6.299905   -3.592381   -1.940227
     40          8           0       -6.729046   -4.595807   -2.478760
     41          6           0       -5.050179   -3.495084   -0.887322
     42          6           0       -5.256344   -4.588870    0.091271
     43          8           0       -5.700196   -4.465532    1.195949
     44          8           0       -5.001168   -5.812256   -0.422982
     45          6           0       -5.205841   -6.939563    0.470019
     46          6           0        2.258959   -5.090050    0.676604
     47          6           0        3.478049   -4.234317    1.005872
     48          6           0        4.125596   -3.252368    0.227058
     49          6           0        3.872003   -3.131819   -1.265478
     50          6           0        5.210432   -2.461493    0.682697
     51          6           0        6.578887   -2.638469   -0.046021
     52          6           0        7.709812   -1.728789    0.525763
     53          6           0        9.115527   -1.932822    0.044629
     54          6           0        9.640310   -3.348545    0.259262
     55          6           0       10.102231   -0.915317    0.439372
     56          6           0       11.437312   -0.887712   -0.270463
     57          6           0       12.292920    0.291299    0.151384
     58          6           0       13.613821    0.376468   -0.522466
     59          6           0       14.628842   -0.833194   -0.293876
     60          6           0       14.309794    1.737081   -0.257833
     61          6           0       15.561834    2.201942   -1.060985
     62          6           0       16.116454    3.514510   -0.745979
     63          6           0       17.523038    3.816776   -1.340022
     64          6           0       17.365584    3.994701   -2.896543
     65          6           0       18.066870    5.091471   -0.765920
     66          1           0       -2.603483    1.373586    3.613202
     67          1           0       -6.612562    5.482357    0.769900
     68          1           0       -8.891083    1.057554   -3.135259
     69          1           0       -3.784914   -3.112117    1.807932
     70          1           0       -1.936209   -0.852884    2.834293
     71          1           0       -3.037241   -2.660531    4.494072
     72          1           0       -3.526825   -0.988811    4.857482
     73          1           0       -4.629155   -1.880923    3.861461
     74          1           0       -2.456385   -3.173389   -0.269224
     75          1           0       -1.513532   -1.611069    0.360949
     76          1           0       -0.501431   -2.735646    2.253062
     77          1           0       -1.195288   -4.283242    1.846189
     78          1           0       -1.746247    3.589013    3.983942
     79          1           0       -2.939549    4.879559    4.832798
     80          1           0       -3.104363    2.940354    5.128504
     81          1           0       -5.216575    6.480526    1.855276
     82          1           0      -10.353122    3.003569   -3.029939
     83          1           0      -10.065735    4.622745   -3.055386
     84          1           0       -9.714668    3.888085   -5.355381
     85          1           0       -8.284496    4.745490   -4.584804
     86          1           0       -8.106616    2.949185   -4.850604
     87          1           0       -8.491848   -1.245219   -4.673525
     88          1           0       -8.269762   -2.930262   -3.832099
     89          1           0       -9.738373   -1.671171   -3.347037
     90          1           0       -4.104443   -3.744434   -1.540726
     91          1           0        2.250481   -6.081489    0.920452
     92          1           0        2.205499   -4.927565   -0.566476
     93          1           0        4.046092   -4.294011    1.937837
     94          1           0        2.917583   -3.529405   -1.476660
     95          1           0        3.968528   -2.062909   -1.577935
     96          1           0        4.411122   -3.603004   -1.864994
     97          1           0        4.920031   -1.470318    0.293587
     98          1           0        5.296950   -2.453866    1.711779
     99          1           0        6.928922   -3.592856    0.002466
    100          1           0        6.466489   -2.325816   -1.190203
    101          1           0        7.415882   -0.649643    0.646880
    102          1           0        7.778197   -2.137869    1.579763
    103          1           0        9.016403   -2.008851   -1.033463
    104          1           0        8.925893   -4.181493    0.042162
    105          1           0       10.466914   -3.213679   -0.449198
    106          1           0       10.082959   -3.636780    1.144201
    107          1           0        9.617892    0.202940    0.342471
    108          1           0       10.085349   -0.900215    1.691170
    109          1           0       11.997692   -1.675998   -0.033612
    110          1           0       11.179566   -0.728117   -1.399730
    111          1           0       11.962449    1.339987    0.262151
    112          1           0       12.577546    0.252005    1.128900
    113          1           0       13.487292    0.252151   -1.613588
    114          1           0       14.859183   -0.649210    0.757345
    115          1           0       14.083013   -1.685755   -0.536456
    116          1           0       15.668668   -0.642834   -0.645231
    117          1           0       13.739496    2.631375   -0.600330
    118          1           0       14.478398    2.055760    0.880687
    119          1           0       16.197090    1.364281   -0.911824
    120          1           0       15.419078    2.235599   -1.929615
    121          1           0       15.252287    4.206172   -1.223373
    122          1           0       16.198453    3.577245    0.345082
    123          1           0       18.282930    3.031995   -1.185452
    124          1           0       16.681222    4.924429   -2.843418
    125          1           0       18.401283    4.139440   -3.392259
    126          1           0       17.055238    2.972515   -3.415559
    127          1           0       18.090554    5.087843    0.274874
    128          1           0       19.076815    5.343723   -1.088324
    129          1           0       17.313183    6.088453   -0.976669
    130          1           0       -4.798729   -7.841531   -0.102684
    131          1           0       -6.365086   -6.881387    1.071232
    132          1           0       -4.267966   -6.924135    1.086157
    133          8           0       -8.000274    6.798343   -0.317850
    134          1           0       -9.104537    6.267548   -1.950870
 ---------------------------------------------------------------------

 SCF Done:  E(RCAM-B3LYP) =  -3043.39252440     A.U. after   16 cycles

 Excitation energies and oscillator strengths:

 Excited State   1:      Singlet-A      1.9465 eV  636.95 nm  f=0.1920  <S**2>=0.000
     243 -> 246       -0.24719
     244 -> 245        0.64522
 This state for optimization and/or second-order correction.
 Total Energy, E(TD-HF/TD-KS) =  -3043.32099030
 Copying the excited state density for this state as the 1-particle RhoCI density.

 The electronic state is 1-A.
 Alpha  occ. eigenvalues --  -46.80365 -19.22048 -19.21163 -19.18134 -19.17671
 Alpha  occ. eigenvalues --  -19.17315 -19.16806 -19.16290 -14.39192 -14.36925
 Alpha  occ. eigenvalues --  -14.36875 -14.36482 -10.34575 -10.33918 -10.32212
 Alpha  occ. eigenvalues --  -10.30747 -10.30631 -10.29582 -10.28847 -10.28033
 Alpha  occ. eigenvalues --  -10.27454 -10.26763 -10.26497 -10.26334 -10.26228
 Alpha  occ. eigenvalues --  -10.26088 -10.26076 -10.25894 -10.25880 -10.25120
 Alpha  occ. eigenvalues --  -10.24756 -10.24596 -10.24526 -10.24292 -10.24236
 Alpha  occ. eigenvalues --  -10.24124 -10.23997 -10.23727 -10.23688 -10.23624
 Alpha  occ. eigenvalues --  -10.23599 -10.23406 -10.23260 -10.23118 -10.23078
 Alpha  occ. eigenvalues --  -10.23042 -10.22520 -10.22377 -10.22284 -10.22226
 Alpha  occ. eigenvalues --  -10.22195 -10.22193 -10.22069 -10.21810 -10.21717
 Alpha  occ. eigenvalues --  -10.21453 -10.21388 -10.21334 -10.21306 -10.21188
 Alpha  occ. eigenvalues --  -10.20809 -10.20036 -10.19811 -10.19673 -10.18712
 Alpha  occ. eigenvalues --  -10.17327  -3.09176  -1.84103  -1.83660  -1.83588
 Alpha  occ. eigenvalues --   -1.13685  -1.10629  -1.07740  -1.07561  -1.06069
 Alpha  occ. eigenvalues --   -1.04794  -1.02060  -1.00373  -0.99620  -0.98953
 Alpha  occ. eigenvalues --   -0.97104  -0.89407  -0.87268  -0.86999  -0.86343
 Alpha  occ. eigenvalues --   -0.85490  -0.85238  -0.84338  -0.84043  -0.84012
 Alpha  occ. eigenvalues --   -0.83390  -0.82903  -0.82623  -0.80470  -0.80106
 Alpha  occ. eigenvalues --   -0.79348  -0.78915  -0.77627  -0.77300  -0.77114
 Alpha  occ. eigenvalues --   -0.75954  -0.74856  -0.74164  -0.72964  -0.72347
 Alpha  occ. eigenvalues --   -0.71470  -0.71363  -0.70317  -0.69844  -0.69548
 Alpha  occ. eigenvalues --   -0.69178  -0.68296  -0.67907  -0.67280  -0.66089
 Alpha  occ. eigenvalues --   -0.65771  -0.65475  -0.64233  -0.63188  -0.62015
 Alpha  occ. eigenvalues --   -0.61762  -0.61418  -0.61125  -0.59375  -0.58529
 Alpha  occ. eigenvalues --   -0.58289  -0.57879  -0.57604  -0.57042  -0.56068
 Alpha  occ. eigenvalues --   -0.55884  -0.55558  -0.55228  -0.54353  -0.54280
 Alpha  occ. eigenvalues --   -0.53945  -0.53492  -0.53001  -0.52385  -0.52221
 Alpha  occ. eigenvalues --   -0.51910  -0.51595  -0.51439  -0.51292  -0.51267
 Alpha  occ. eigenvalues --   -0.50901  -0.50426  -0.50348  -0.49535  -0.49398
 Alpha  occ. eigenvalues --   -0.49060  -0.48583  -0.48350  -0.48024  -0.47976
 Alpha  occ. eigenvalues --   -0.47615  -0.47356  -0.47304  -0.46961  -0.46844
 Alpha  occ. eigenvalues --   -0.46574  -0.46494  -0.46421  -0.46050  -0.46032
 Alpha  occ. eigenvalues --   -0.45744  -0.45637  -0.45400  -0.45137  -0.45013
 Alpha  occ. eigenvalues --   -0.44818  -0.44712  -0.44068  -0.43965  -0.43770
 Alpha  occ. eigenvalues --   -0.43538  -0.43493  -0.43173  -0.42936  -0.42899
 Alpha  occ. eigenvalues --   -0.42594  -0.42490  -0.42436  -0.41983  -0.41958
 Alpha  occ. eigenvalues --   -0.41622  -0.41566  -0.41499  -0.41310  -0.41140
 Alpha  occ. eigenvalues --   -0.41051  -0.40804  -0.40417  -0.40101  -0.39950
 Alpha  occ. eigenvalues --   -0.39690  -0.39490  -0.39327  -0.39289  -0.39021
 Alpha  occ. eigenvalues --   -0.38792  -0.38632  -0.38503  -0.38462  -0.38192
 Alpha  occ. eigenvalues --   -0.37821  -0.37644  -0.37328  -0.37242  -0.36910
 Alpha  occ. eigenvalues --   -0.36723  -0.36683  -0.36632  -0.36199  -0.35612
 Alpha  occ. eigenvalues --   -0.35280  -0.35170  -0.35148  -0.34891  -0.34498
 Alpha  occ. eigenvalues --   -0.34436  -0.34098  -0.33902  -0.33406  -0.32992
 Alpha  occ. eigenvalues --   -0.32674  -0.32346  -0.32073  -0.31932  -0.31426
 Alpha  occ. eigenvalues --   -0.31360  -0.30750  -0.30634  -0.29856  -0.29818
 Alpha  occ. eigenvalues --   -0.28644  -0.28546  -0.28419  -0.28167  -0.27605
 Alpha  occ. eigenvalues --   -0.27422  -0.26143  -0.23208  -0.20890
 Alpha virt. eigenvalues --   -0.08323  -0.06756  -0.02235  -0.00857   0.00182
 Alpha virt. eigenvalues --    0.01655   0.03505   0.04105   0.04237   0.04439
 Alpha virt. eigenvalues --    0.04802   0.05607   0.07339   0.08106   0.09026

 Mulliken charges:
               1
     1  Mg   0.819320
     2  C    0.106227
     3  C   -0.205113
     4  C   -0.172605
     5  C   -0.125570
     6  N   -0.616009
     7  C    0.279978
     8  C   -0.151763
     9  C   -0.141027
    10  C    0.334124
    11  C   -0.302495
    12  C   -0.145754
    13  C   -0.238574
    14  C    0.612999
    15  O   -0.491568
    16  O   -0.501256
    17  N   -0.724483
    18  C    0.319055
    19  C    0.075510
    20  C   -0.019966
    21  C    0.312426
    22  C   -0.399430
    23  C    0.271816
    24  O   -0.417976
    25  N   -0.699005
    26  C    0.268025
    27  C   -0.007135
    28  C   -0.021417
    29  C    0.310937
    30  C    0.250351
    31  C   -0.258227
    32  C   -0.294691
    33  N   -0.706154
    34  C    0.279230
    35  C    0.014073
    36  C    0.104050
    37  C    0.244851
    38  C   -0.408486
    39  C    0.352510
    40  O   -0.448935
    41  C   -0.376425
    42  C    0.633092
    43  O   -0.473314
    44  O   -0.450046
    45  C   -0.077528
    46  C    0.004334
    47  C   -0.131465
    48  C    0.135816
    49  C   -0.367808
    50  C   -0.227533
    51  C   -0.174340
    52  C   -0.173777
    53  C   -0.047115
    54  C   -0.322848
    55  C   -0.157207
    56  C   -0.168995
    57  C   -0.176335
    58  C   -0.066842
    59  C   -0.325353
    60  C   -0.203629
    61  C   -0.147218
    62  C   -0.163040
    63  C   -0.063566
    64  C   -0.289513
    65  C   -0.290112
    66  H    0.078607
    67  H    0.129402
    68  H    0.102251
    69  H    0.137018
    70  H    0.093240
    71  H    0.117826
    72  H    0.094893
    73  H    0.140078
    74  H    0.117167
    75  H    0.091833
    76  H    0.145026
    77  H    0.147556
    78  H    0.124895
    79  H    0.148923
    80  H    0.096765
    81  H    0.075435
    82  H    0.110445
    83  H    0.115388
    84  H    0.119481
    85  H    0.122923
    86  H    0.080693
    87  H    0.137557
    88  H    0.139813
    89  H    0.120240
    90  H    0.156403
    91  H    0.126578
    92  H    0.112530
    93  H    0.068148
    94  H    0.134371
    95  H    0.093839
    96  H    0.135691
    97  H    0.114215
    98  H    0.100026
    99  H    0.108527
   100  H    0.077359
   101  H    0.082562
   102  H    0.077816
   103  H    0.084386
   104  H    0.097353
   105  H    0.102342
   106  H    0.108353
   107  H    0.068463
   108  H    0.058839
   109  H    0.118246
   110  H    0.094457
   111  H    0.096061
   112  H    0.101759
   113  H    0.078991
   114  H    0.099707
   115  H    0.108876
   116  H    0.108793
   117  H    0.081774
   118  H    0.063545
   119  H    0.075289
   120  H    0.100871
   121  H    0.066923
   122  H    0.085489
   123  H    0.091050
   124  H    0.101931
   125  H    0.089360
   126  H    0.090760
   127  H    0.110914
   128  H    0.102067
   129  H    0.057974
   130  H    0.124926
   131  H    0.134974
   132  H    0.115430
   133  O   -0.428743
   134  H    0.076245
 Sum of Mulliken charges =   0.00000

 Dipole moment (field-independent basis, Debye):
    X=              2.6768    Y=             -4.9766    Z=             -1.3344  Tot=              5.8062
 Quadrupole moment (field-independent basis, Debye-Ang):
   XX=           -356.3654   YY=           -442.0319   ZZ=           -392.8695
   XY=             -0.1092   XZ=             27.1750   YZ=            -32.2636

 Normal termination of Gaussian 09 at Fri Oct  4 02:31:58 2019.
