 Gaussian 09, Revision D.01,
 Gaussian 09:  ES64L-G09RevD.01 24-Apr-2013

 ----------------------------------------------------------------------
 # td=(NStates=1) iop(3/107=0140000000,3/108=0140000000) iop(3/107=0140
 000000,3/108=0140000000) CAM-B3LYP/6-31G(d,p)
 ----------------------------------------------------------------------

 --
 TD
 --
 Symbolic Z-matrix:
 Charge =  0 Multiplicity = 1

                         Standard orientation:
 ---------------------------------------------------------------------
 Center     Atomic      Atomic             Coordinates (Angstroms)
 Number     Number       Type             X           Y           Z
 ---------------------------------------------------------------------
      1         12           0       -5.711479    1.257795    0.238755
      2          6           0       -5.082065   -2.124857   -0.311315
      3          6           0       -3.374936    1.156148    2.782464
      4          6           0       -6.152325    4.531046    0.664119
      5          6           0       -7.836324    1.156793   -2.391592
      6          7           0       -4.377015   -0.294976    1.103286
      7          6           0       -4.263833   -1.627565    0.701480
      8          6           0       -3.217129   -2.363126    1.542717
      9          6           0       -2.918155   -1.297957    2.628297
     10          6           0       -3.624676   -0.040551    2.199833
     11          6           0       -3.506428   -1.736536    3.987352
     12          6           0       -1.900145   -2.688901    0.650902
     13          6           0       -1.074052   -3.612564    1.413129
     14          6           0        0.198528   -3.957854    0.560841
     15          8           0        0.457619   -3.547302   -0.534009
     16          8           0        1.015248   -4.736832    1.328957
     17          7           0       -4.852712    2.590970    1.485683
     18          6           0       -4.033931    2.385304    2.517144
     19          6           0       -3.668833    3.576367    3.193613
     20          6           0       -4.551995    4.590204    2.673917
     21          6           0       -5.172135    3.934695    1.542500
     22          6           0       -2.815585    3.857983    4.329032
     23          6           0       -4.710705    6.004045    3.003944
     24          8           0       -4.108134    6.554665    3.893910
     25          7           0       -6.803808    2.602851   -0.800411
     26          6           0       -6.903221    3.977738   -0.360564
     27          6           0       -7.831571    4.634594   -1.248512
     28          6           0       -8.315089    3.605262   -2.135023
     29          6           0       -7.748920    2.357410   -1.718709
     30          6           0       -8.230358    6.036174   -1.272209
     31          6           0       -9.285258    3.785558   -3.375527
     32          6           0       -8.420109    3.976375   -4.640158
     33          7           0       -6.384373   -0.159297   -1.046847
     34          6           0       -7.331662   -0.057297   -2.051471
     35          6           0       -7.397277   -1.259229   -2.707259
     36          6           0       -6.564246   -2.105977   -2.079912
     37          6           0       -5.961217   -1.405300   -1.129517
     38          6           0       -8.395444   -1.567200   -3.842926
     39          6           0       -6.101539   -3.549609   -2.073847
     40          8           0       -6.464630   -4.497948   -2.671865
     41          6           0       -5.031726   -3.573113   -0.858537
     42          6           0       -5.425495   -4.670841    0.157948
     43          8           0       -5.871085   -4.455376    1.193077
     44          8           0       -5.150639   -5.868784   -0.319993
     45          6           0       -5.382896   -6.902232    0.592489
     46          6           0        2.355496   -5.079965    0.685027
     47          6           0        3.501736   -4.081501    1.000816
     48          6           0        3.967359   -3.094718    0.135573
     49          6           0        3.527114   -2.961785   -1.297143
     50          6           0        5.116838   -2.220199    0.554512
     51          6           0        6.466050   -2.629757   -0.037106
     52          6           0        7.542907   -1.733862    0.451775
     53          6           0        8.996514   -1.971393   -0.105580
     54          6           0        9.528708   -3.399299    0.090352
     55          6           0        9.954327   -0.941276    0.435700
     56          6           0       11.264143   -0.915343   -0.294165
     57          6           0       12.059454    0.258735    0.188016
     58          6           0       13.478220    0.459077   -0.501019
     59          6           0       14.435369   -0.752887   -0.212346
     60          6           0       14.120914    1.742096   -0.005565
     61          6           0       15.411756    2.061146   -0.889760
     62          6           0       15.977445    3.451736   -0.657376
     63          6           0       17.352504    3.830877   -1.403644
     64          6           0       17.167198    3.956218   -2.869354
     65          6           0       17.925247    5.156625   -0.725644
     66          1           0       -2.945143    1.132595    3.832845
     67          1           0       -6.378594    5.650719    0.795853
     68          1           0       -8.495799    1.217321   -3.204379
     69          1           0       -3.288374   -3.396025    2.033488
     70          1           0       -2.027743   -1.036279    2.867626
     71          1           0       -2.972929   -2.682837    4.364091
     72          1           0       -3.391997   -1.046131    4.865101
     73          1           0       -4.461225   -1.700203    3.531950
     74          1           0       -2.209952   -3.168373   -0.284105
     75          1           0       -1.474190   -1.898538    0.437999
     76          1           0       -0.822824   -3.173262    2.445042
     77          1           0       -1.742774   -4.546414    1.503115
     78          1           0       -1.736464    3.556045    4.138535
     79          1           0       -2.817652    4.824853    4.624877
     80          1           0       -3.054375    3.368967    5.460286
     81          1           0       -5.539253    6.577003    2.394618
     82          1           0       -9.810519    2.842556   -3.518478
     83          1           0       -9.820555    4.739510   -3.318870
     84          1           0       -9.016893    4.004569   -5.374232
     85          1           0       -7.783421    5.028993   -4.618709
     86          1           0       -7.833633    3.051347   -4.666556
     87          1           0       -8.370257   -0.836177   -4.747555
     88          1           0       -8.170487   -2.684568   -4.521500
     89          1           0       -9.362901   -1.486081   -3.462971
     90          1           0       -4.042568   -3.769460   -1.475018
     91          1           0        2.578317   -6.049775    1.075095
     92          1           0        2.303688   -5.218009   -0.459001
     93          1           0        3.936475   -4.039644    1.999961
     94          1           0        2.450368   -3.276270   -1.328593
     95          1           0        3.658563   -1.784827   -1.565650
     96          1           0        4.088600   -3.650984   -2.145595
     97          1           0        4.909841   -1.191322    0.294502
     98          1           0        5.109867   -2.334674    1.663860
     99          1           0        6.524629   -3.796298   -0.147449
    100          1           0        6.444300   -2.423009   -1.038152
    101          1           0        7.294750   -0.564474    0.283481
    102          1           0        7.548726   -1.618394    1.605306
    103          1           0        9.006551   -1.638824   -1.254388
    104          1           0        8.937106   -4.232067   -0.124859
    105          1           0       10.320238   -3.616902   -0.401667
    106          1           0        9.619435   -3.618734    1.237124
    107          1           0        9.217293    0.013473   -0.019672
    108          1           0       10.144098   -0.942928    1.510488
    109          1           0       11.791621   -1.841580   -0.053232
    110          1           0       11.056417   -0.912726   -1.404169
    111          1           0       11.678410    1.123733   -0.086349
    112          1           0       12.228630    0.143190    1.244661
    113          1           0       13.247557    0.668018   -1.486226
    114          1           0       14.670731   -0.769453    0.785011
    115          1           0       14.051270   -1.862321   -0.599421
    116          1           0       15.433399   -0.694277   -0.698183
    117          1           0       13.475110    2.652902   -0.168811
    118          1           0       14.223784    1.725909    0.975009
    119          1           0       16.035473    1.274816   -0.751726
    120          1           0       15.295067    2.077011   -1.997296
    121          1           0       15.293502    4.165768   -0.817759
    122          1           0       16.135478    3.602826    0.455619
    123          1           0       18.095214    3.152516   -1.398210
    124          1           0       16.417506    4.699960   -3.366569
    125          1           0       18.132910    4.317132   -3.417337
    126          1           0       17.194983    2.838057   -3.360193
    127          1           0       17.934388    4.885114    0.333489
    128          1           0       18.788817    5.482343   -1.078773
    129          1           0       17.104504    5.955822   -0.800548
    130          1           0       -5.251517   -7.979221    0.099584
    131          1           0       -6.412765   -6.532616    1.090050
    132          1           0       -4.730788   -6.755426    1.339182
    133          8           0       -7.704290    6.838438   -0.518247
    134          1           0       -9.052890    6.473699   -2.083595
 ---------------------------------------------------------------------

 SCF Done:  E(RCAM-B3LYP) =  -3043.40184228     A.U. after   15 cycles

 Excitation energies and oscillator strengths:

 Excited State   1:      Singlet-A      2.0532 eV  603.85 nm  f=0.1602  <S**2>=0.000
     243 -> 245       -0.18444
     243 -> 246       -0.26523
     244 -> 245        0.60856
     244 -> 246       -0.12954
 This state for optimization and/or second-order correction.
 Total Energy, E(TD-HF/TD-KS) =  -3043.32638697
 Copying the excited state density for this state as the 1-particle RhoCI density.

 The electronic state is 1-A.
 Alpha  occ. eigenvalues --  -46.81224 -19.22425 -19.22377 -19.18347 -19.18253
 Alpha  occ. eigenvalues --  -19.17728 -19.17521 -19.17050 -14.38636 -14.36930
 Alpha  occ. eigenvalues --  -14.36718 -14.35629 -10.35466 -10.34831 -10.32197
 Alpha  occ. eigenvalues --  -10.31726 -10.30582 -10.28592 -10.28053 -10.27640
 Alpha  occ. eigenvalues --  -10.26836 -10.26803 -10.26367 -10.26139 -10.25894
 Alpha  occ. eigenvalues --  -10.25458 -10.25371 -10.25181 -10.25069 -10.24788
 Alpha  occ. eigenvalues --  -10.24725 -10.24523 -10.24385 -10.24289 -10.24274
 Alpha  occ. eigenvalues --  -10.24227 -10.23842 -10.23831 -10.23748 -10.23552
 Alpha  occ. eigenvalues --  -10.23134 -10.22793 -10.22722 -10.22568 -10.22486
 Alpha  occ. eigenvalues --  -10.22254 -10.22038 -10.22010 -10.21997 -10.21927
 Alpha  occ. eigenvalues --  -10.21710 -10.21626 -10.21416 -10.21402 -10.21160
 Alpha  occ. eigenvalues --  -10.21096 -10.20902 -10.20857 -10.20683 -10.20277
 Alpha  occ. eigenvalues --  -10.19993 -10.19845 -10.19765 -10.19478 -10.18954
 Alpha  occ. eigenvalues --  -10.18822  -3.09822  -1.84761  -1.84287  -1.84235
 Alpha  occ. eigenvalues --   -1.17056  -1.12742  -1.09923  -1.08270  -1.07230
 Alpha  occ. eigenvalues --   -1.07210  -1.04885  -1.02489  -1.00600  -0.99183
 Alpha  occ. eigenvalues --   -0.98650  -0.88566  -0.86500  -0.86103  -0.85252
 Alpha  occ. eigenvalues --   -0.85013  -0.84580  -0.84020  -0.83803  -0.83674
 Alpha  occ. eigenvalues --   -0.83302  -0.82752  -0.82260  -0.80499  -0.79904
 Alpha  occ. eigenvalues --   -0.79181  -0.78331  -0.77846  -0.77436  -0.76153
 Alpha  occ. eigenvalues --   -0.75267  -0.74730  -0.73303  -0.72835  -0.71751
 Alpha  occ. eigenvalues --   -0.71566  -0.70671  -0.70455  -0.69957  -0.69714
 Alpha  occ. eigenvalues --   -0.69421  -0.68520  -0.66927  -0.66480  -0.66168
 Alpha  occ. eigenvalues --   -0.65815  -0.64880  -0.63982  -0.63071  -0.62723
 Alpha  occ. eigenvalues --   -0.62001  -0.60903  -0.60898  -0.59670  -0.59474
 Alpha  occ. eigenvalues --   -0.59238  -0.59127  -0.57778  -0.57577  -0.57206
 Alpha  occ. eigenvalues --   -0.56429  -0.56046  -0.55801  -0.55042  -0.54359
 Alpha  occ. eigenvalues --   -0.54079  -0.53815  -0.53089  -0.52799  -0.52661
 Alpha  occ. eigenvalues --   -0.52326  -0.51884  -0.51694  -0.51444  -0.51142
 Alpha  occ. eigenvalues --   -0.50623  -0.50290  -0.50097  -0.49316  -0.49288
 Alpha  occ. eigenvalues --   -0.48894  -0.48542  -0.48472  -0.48234  -0.48166
 Alpha  occ. eigenvalues --   -0.47993  -0.47420  -0.47218  -0.47155  -0.46923
 Alpha  occ. eigenvalues --   -0.46812  -0.46546  -0.46461  -0.46081  -0.45939
 Alpha  occ. eigenvalues --   -0.45542  -0.45250  -0.45213  -0.45107  -0.44626
 Alpha  occ. eigenvalues --   -0.44498  -0.44340  -0.44177  -0.43968  -0.43724
 Alpha  occ. eigenvalues --   -0.43504  -0.43210  -0.42940  -0.42877  -0.42716
 Alpha  occ. eigenvalues --   -0.42526  -0.42232  -0.42029  -0.41902  -0.41770
 Alpha  occ. eigenvalues --   -0.41754  -0.41552  -0.41315  -0.41076  -0.40840
 Alpha  occ. eigenvalues --   -0.40783  -0.40635  -0.40474  -0.40413  -0.40039
 Alpha  occ. eigenvalues --   -0.39824  -0.39784  -0.39469  -0.39294  -0.39238
 Alpha  occ. eigenvalues --   -0.38848  -0.38694  -0.38574  -0.38213  -0.38017
 Alpha  occ. eigenvalues --   -0.38011  -0.37813  -0.37625  -0.37450  -0.37405
 Alpha  occ. eigenvalues --   -0.37248  -0.36751  -0.36567  -0.36328  -0.35924
 Alpha  occ. eigenvalues --   -0.35644  -0.35382  -0.35216  -0.34860  -0.34633
 Alpha  occ. eigenvalues --   -0.34463  -0.34190  -0.34055  -0.33646  -0.33506
 Alpha  occ. eigenvalues --   -0.33208  -0.32770  -0.32277  -0.32122  -0.31874
 Alpha  occ. eigenvalues --   -0.31830  -0.31399  -0.31215  -0.30218  -0.29594
 Alpha  occ. eigenvalues --   -0.28812  -0.28385  -0.28028  -0.27982  -0.27627
 Alpha  occ. eigenvalues --   -0.27387  -0.26823  -0.22961  -0.22085
 Alpha virt. eigenvalues --   -0.09021  -0.06660  -0.01133  -0.01075   0.01180
 Alpha virt. eigenvalues --    0.01739   0.03032   0.03473   0.04434   0.04809
 Alpha virt. eigenvalues --    0.05339   0.05764   0.07638   0.08181   0.08603

 Mulliken charges:
               1
     1  Mg   0.834642
     2  C    0.065107
     3  C   -0.178052
     4  C   -0.195403
     5  C   -0.141161
     6  N   -0.629888
     7  C    0.291128
     8  C   -0.156618
     9  C   -0.145515
    10  C    0.341796
    11  C   -0.301431
    12  C   -0.132079
    13  C   -0.282145
    14  C    0.612022
    15  O   -0.442685
    16  O   -0.475336
    17  N   -0.697067
    18  C    0.308100
    19  C    0.058206
    20  C   -0.017358
    21  C    0.289471
    22  C   -0.394950
    23  C    0.242208
    24  O   -0.408272
    25  N   -0.694744
    26  C    0.294265
    27  C   -0.014341
    28  C    0.011472
    29  C    0.300864
    30  C    0.229904
    31  C   -0.248486
    32  C   -0.287067
    33  N   -0.737349
    34  C    0.284943
    35  C   -0.010183
    36  C    0.056431
    37  C    0.315706
    38  C   -0.376151
    39  C    0.371141
    40  O   -0.406688
    41  C   -0.359722
    42  C    0.625603
    43  O   -0.431119
    44  O   -0.422389
    45  C   -0.096359
    46  C   -0.013979
    47  C   -0.133252
    48  C    0.125337
    49  C   -0.369230
    50  C   -0.225486
    51  C   -0.156033
    52  C   -0.170539
    53  C   -0.051003
    54  C   -0.308624
    55  C   -0.135549
    56  C   -0.175980
    57  C   -0.154689
    58  C   -0.064482
    59  C   -0.316327
    60  C   -0.184058
    61  C   -0.183214
    62  C   -0.174344
    63  C   -0.040470
    64  C   -0.306162
    65  C   -0.311248
    66  H    0.089224
    67  H    0.140345
    68  H    0.070249
    69  H    0.110267
    70  H    0.101621
    71  H    0.097496
    72  H    0.103934
    73  H    0.131385
    74  H    0.110198
    75  H    0.120447
    76  H    0.132106
    77  H    0.124364
    78  H    0.114052
    79  H    0.166664
    80  H    0.088601
    81  H    0.073444
    82  H    0.115865
    83  H    0.115687
    84  H    0.124569
    85  H    0.092913
    86  H    0.107000
    87  H    0.109859
    88  H    0.107418
    89  H    0.144895
    90  H    0.148245
    91  H    0.122747
    92  H    0.125329
    93  H    0.082283
    94  H    0.158082
    95  H    0.086327
    96  H    0.097145
    97  H    0.102140
    98  H    0.090626
    99  H    0.091162
   100  H    0.116514
   101  H    0.071413
   102  H    0.077073
   103  H    0.063222
   104  H    0.101552
   105  H    0.115292
   106  H    0.080288
   107  H    0.042662
   108  H    0.089452
   109  H    0.099673
   110  H    0.078901
   111  H    0.098698
   112  H    0.082006
   113  H    0.090682
   114  H    0.114401
   115  H    0.073637
   116  H    0.099915
   117  H    0.076094
   118  H    0.099540
   119  H    0.101620
   120  H    0.090522
   121  H    0.103830
   122  H    0.067958
   123  H    0.098339
   124  H    0.093655
   125  H    0.081418
   126  H    0.075906
   127  H    0.103030
   128  H    0.108218
   129  H    0.088246
   130  H    0.121718
   131  H    0.122750
   132  H    0.129530
   133  O   -0.409660
   134  H    0.054093
 Sum of Mulliken charges =   0.00000

 Dipole moment (field-independent basis, Debye):
    X=              1.8222    Y=             -4.7861    Z=             -1.5181  Tot=              5.3415
 Quadrupole moment (field-independent basis, Debye-Ang):
   XX=           -364.1581   YY=           -434.6222   ZZ=           -393.3679
   XY=              1.1687   XZ=             25.6124   YZ=            -32.2128

 Normal termination of Gaussian 09 at Tue Oct  8 15:33:42 2019.
