 Gaussian 09, Revision D.01,
 Gaussian 09:  ES64L-G09RevD.01 24-Apr-2013

 ----------------------------------------------------------------------
 # td=(NStates=1) iop(3/107=0140000000,3/108=0140000000) iop(3/107=0140
 000000,3/108=0140000000) CAM-B3LYP/6-31G(d,p)
 ----------------------------------------------------------------------

 --
 TD
 --
 Symbolic Z-matrix:
 Charge =  0 Multiplicity = 1

                         Standard orientation:
 ---------------------------------------------------------------------
 Center     Atomic      Atomic             Coordinates (Angstroms)
 Number     Number       Type             X           Y           Z
 ---------------------------------------------------------------------
      1         12           0       -5.638729    1.225165    0.245747
      2          6           0       -4.954882   -2.112156   -0.473991
      3          6           0       -3.493105    1.144776    2.843599
      4          6           0       -6.160635    4.519749    0.717330
      5          6           0       -8.049064    1.230032   -2.324386
      6          7           0       -4.346465   -0.282907    1.059673
      7          6           0       -4.216681   -1.579242    0.617813
      8          6           0       -3.206862   -2.331293    1.406989
      9          6           0       -2.956547   -1.310210    2.631663
     10          6           0       -3.525121   -0.034651    2.143984
     11          6           0       -3.383581   -1.749810    3.939593
     12          6           0       -1.971539   -2.822211    0.562314
     13          6           0       -0.914248   -3.609645    1.390044
     14          6           0        0.267369   -3.951499    0.586367
     15          8           0        0.497524   -3.476649   -0.456425
     16          8           0        1.048862   -4.793084    1.311258
     17          7           0       -4.864295    2.673187    1.500234
     18          6           0       -3.918719    2.404274    2.461436
     19          6           0       -3.711639    3.609347    3.131425
     20          6           0       -4.480322    4.634126    2.664395
     21          6           0       -5.221998    3.975373    1.492521
     22          6           0       -2.737067    3.729682    4.263030
     23          6           0       -4.553638    6.003692    2.834242
     24          8           0       -3.842527    6.613373    3.651654
     25          7           0       -6.983654    2.591395   -0.541511
     26          6           0       -7.039804    3.935402   -0.237987
     27          6           0       -8.015643    4.579313   -1.124403
     28          6           0       -8.473695    3.627670   -1.992707
     29          6           0       -7.860772    2.343339   -1.591829
     30          6           0       -8.318337    6.063761   -1.163357
     31          6           0       -9.469450    3.784370   -3.156654
     32          6           0       -8.818771    3.904711   -4.508768
     33          7           0       -6.345533   -0.116708   -1.144356
     34          6           0       -7.311802    0.015105   -2.098486
     35          6           0       -7.575592   -1.372191   -2.843724
     36          6           0       -6.554320   -2.135055   -2.281209
     37          6           0       -5.904090   -1.492980   -1.215997
     38          6           0       -8.543173   -1.522520   -3.900902
     39          6           0       -6.165126   -3.637813   -2.064691
     40          8           0       -6.591975   -4.579034   -2.656749
     41          6           0       -5.014221   -3.637340   -0.881225
     42          6           0       -5.296832   -4.613799    0.163746
     43          8           0       -5.918753   -4.416181    1.192680
     44          8           0       -4.849022   -5.824493   -0.228725
     45          6           0       -5.267358   -6.899522    0.610944
     46          6           0        2.388763   -5.081058    0.602031
     47          6           0        3.483188   -4.152175    0.992904
     48          6           0        4.059285   -3.251576    0.219239
     49          6           0        3.591165   -3.072398   -1.263972
     50          6           0        5.219273   -2.405153    0.799674
     51          6           0        6.631707   -2.644808    0.112370
     52          6           0        7.665664   -1.748065    0.775706
     53          6           0        8.951948   -1.929231   -0.076504
     54          6           0        9.572699   -3.439609    0.004484
     55          6           0       10.015783   -0.804141    0.439090
     56          6           0       11.278965   -0.834401   -0.326280
     57          6           0       12.179737    0.237084    0.157998
     58          6           0       13.584858    0.433007   -0.589240
     59          6           0       14.491151   -0.824988   -0.253018
     60          6           0       14.201938    1.732456   -0.234307
     61          6           0       15.515703    2.032499   -1.120511
     62          6           0       16.048047    3.491480   -0.713272
     63          6           0       17.326686    3.954667   -1.392287
     64          6           0       17.026111    4.187830   -2.897962
     65          6           0       17.724876    5.382640   -0.792539
     66          1           0       -2.735221    1.054079    3.566398
     67          1           0       -6.381084    5.385775    0.782022
     68          1           0       -8.869871    1.068044   -2.885563
     69          1           0       -3.661119   -3.144715    1.885942
     70          1           0       -1.871459   -1.195645    2.609634
     71          1           0       -3.017881   -2.666738    4.344701
     72          1           0       -3.472900   -0.972668    4.694991
     73          1           0       -4.510854   -2.068342    3.896883
     74          1           0       -2.214737   -3.150914   -0.341965
     75          1           0       -1.762891   -1.691315    0.263638
     76          1           0       -0.296656   -3.013199    2.297339
     77          1           0       -1.525610   -4.778457    1.580815
     78          1           0       -1.658279    3.533110    3.805168
     79          1           0       -2.683529    4.698525    4.669312
     80          1           0       -2.990194    2.968272    5.047408
     81          1           0       -5.132726    6.537870    2.239906
     82          1           0      -10.077215    3.094560   -3.275689
     83          1           0      -10.218516    4.672956   -3.070768
     84          1           0       -9.544288    4.077069   -5.388836
     85          1           0       -8.188374    4.917393   -4.614874
     86          1           0       -8.154611    3.082513   -4.681237
     87          1           0       -8.081260   -1.000732   -4.952660
     88          1           0       -8.611376   -2.569604   -4.244086
     89          1           0       -9.606415   -1.196206   -3.581119
     90          1           0       -4.063698   -3.979076   -1.349200
     91          1           0        2.551704   -6.176100    1.044630
     92          1           0        2.030799   -5.335095   -0.403421
     93          1           0        3.593706   -4.295579    2.054632
     94          1           0        2.490710   -3.030863   -1.572051
     95          1           0        3.787774   -2.014217   -1.421002
     96          1           0        4.318165   -3.368649   -1.976049
     97          1           0        5.003337   -1.331182    0.503213
     98          1           0        5.304671   -2.542089    1.867156
     99          1           0        6.962916   -3.589496    0.437252
    100          1           0        6.660764   -2.392302   -1.039787
    101          1           0        7.415179   -0.657356    0.662504
    102          1           0        7.643436   -1.847173    1.767813
    103          1           0        8.562011   -1.504059   -0.927352
    104          1           0        8.923653   -3.974865   -0.596237
    105          1           0       10.520311   -3.438954   -0.573390
    106          1           0        9.815168   -3.619064    1.077138
    107          1           0        9.564087    0.210180    0.232585
    108          1           0       10.276918   -1.111353    1.351193
    109          1           0       11.947410   -1.804520   -0.358761
    110          1           0       11.015034   -0.627365   -1.357653
    111          1           0       11.636242    1.196965    0.082117
    112          1           0       12.501997    0.202373    1.334125
    113          1           0       13.261210    0.286857   -1.614570
    114          1           0       14.866780   -1.018111    0.800516
    115          1           0       13.819732   -1.696206   -0.520944
    116          1           0       15.385390   -1.032346   -0.956037
    117          1           0       13.540052    2.510039   -0.534584
    118          1           0       14.443322    1.536403    0.780263
    119          1           0       16.362330    1.320483   -1.009593
    120          1           0       15.179605    2.327069   -2.106043
    121          1           0       15.151722    4.201405   -0.766393
    122          1           0       15.991245    3.608819    0.473516
    123          1           0       18.052178    3.300604   -1.059737
    124          1           0       16.076418    4.727740   -2.918367
    125          1           0       17.889788    4.653295   -3.076880
    126          1           0       16.804921    3.313679   -3.495739
    127          1           0       17.738933    5.355479    0.383454
    128          1           0       18.797754    5.533292   -1.063167
    129          1           0       16.841329    6.038034   -0.968848
    130          1           0       -5.221161   -7.872156    0.035634
    131          1           0       -6.300257   -6.701511    0.838604
    132          1           0       -4.700834   -7.017030    1.437882
    133          8           0       -8.030825    6.863173   -0.245990
    134          1           0       -9.079299    6.417717   -2.022986
 ---------------------------------------------------------------------

 SCF Done:  E(RCAM-B3LYP) =  -3043.40686092     A.U. after   16 cycles

 Excitation energies and oscillator strengths:

 Excited State   1:      Singlet-A      1.9584 eV  633.09 nm  f=0.2245  <S**2>=0.000
     243 -> 246        0.24838
     244 -> 245        0.65800
 This state for optimization and/or second-order correction.
 Total Energy, E(TD-HF/TD-KS) =  -3043.33489147
 Copying the excited state density for this state as the 1-particle RhoCI density.

 The electronic state is 1-A.
 Alpha  occ. eigenvalues --  -46.81536 -19.23157 -19.21131 -19.19115 -19.17886
 Alpha  occ. eigenvalues --  -19.17356 -19.17153 -19.14945 -14.39229 -14.36975
 Alpha  occ. eigenvalues --  -14.36886 -14.36454 -10.35240 -10.33866 -10.33468
 Alpha  occ. eigenvalues --  -10.32008 -10.28085 -10.27961 -10.27299 -10.27270
 Alpha  occ. eigenvalues --  -10.27158 -10.27087 -10.26623 -10.26600 -10.26435
 Alpha  occ. eigenvalues --  -10.26023 -10.25998 -10.25931 -10.25885 -10.25633
 Alpha  occ. eigenvalues --  -10.25357 -10.24839 -10.24644 -10.24154 -10.23859
 Alpha  occ. eigenvalues --  -10.23746 -10.23688 -10.23685 -10.23635 -10.23467
 Alpha  occ. eigenvalues --  -10.22998 -10.22838 -10.22728 -10.22693 -10.22449
 Alpha  occ. eigenvalues --  -10.22044 -10.22015 -10.21878 -10.21717 -10.21567
 Alpha  occ. eigenvalues --  -10.21500 -10.21360 -10.21313 -10.21285 -10.21228
 Alpha  occ. eigenvalues --  -10.21218 -10.21081 -10.21079 -10.21039 -10.20996
 Alpha  occ. eigenvalues --  -10.20874 -10.20548 -10.20116 -10.20005 -10.19882
 Alpha  occ. eigenvalues --  -10.19177  -3.09987  -1.84944  -1.84441  -1.84394
 Alpha  occ. eigenvalues --   -1.14363  -1.13298  -1.09750  -1.05362  -1.05131
 Alpha  occ. eigenvalues --   -1.05030  -1.03908  -1.00217  -0.99376  -0.98717
 Alpha  occ. eigenvalues --   -0.97407  -0.88448  -0.86027  -0.85943  -0.85475
 Alpha  occ. eigenvalues --   -0.85063  -0.84890  -0.84065  -0.83966  -0.83119
 Alpha  occ. eigenvalues --   -0.83093  -0.82959  -0.82109  -0.81013  -0.80579
 Alpha  occ. eigenvalues --   -0.79461  -0.78798  -0.78374  -0.77314  -0.75997
 Alpha  occ. eigenvalues --   -0.75194  -0.74919  -0.74227  -0.73491  -0.71983
 Alpha  occ. eigenvalues --   -0.71777  -0.70723  -0.70291  -0.69884  -0.69590
 Alpha  occ. eigenvalues --   -0.69259  -0.68918  -0.67359  -0.66664  -0.66431
 Alpha  occ. eigenvalues --   -0.65732  -0.64291  -0.64076  -0.62844  -0.62363
 Alpha  occ. eigenvalues --   -0.62090  -0.61868  -0.60796  -0.59617  -0.59379
 Alpha  occ. eigenvalues --   -0.58690  -0.58155  -0.57946  -0.57708  -0.57191
 Alpha  occ. eigenvalues --   -0.57028  -0.56189  -0.55706  -0.55534  -0.54950
 Alpha  occ. eigenvalues --   -0.54099  -0.53767  -0.53094  -0.52591  -0.52489
 Alpha  occ. eigenvalues --   -0.51873  -0.51823  -0.51262  -0.51205  -0.50942
 Alpha  occ. eigenvalues --   -0.50805  -0.50553  -0.50213  -0.50120  -0.49583
 Alpha  occ. eigenvalues --   -0.49436  -0.48574  -0.48405  -0.48162  -0.47992
 Alpha  occ. eigenvalues --   -0.47956  -0.47732  -0.47364  -0.47267  -0.46947
 Alpha  occ. eigenvalues --   -0.46752  -0.46595  -0.46443  -0.46257  -0.45913
 Alpha  occ. eigenvalues --   -0.45770  -0.45446  -0.45135  -0.44934  -0.44687
 Alpha  occ. eigenvalues --   -0.44663  -0.44360  -0.44188  -0.43797  -0.43665
 Alpha  occ. eigenvalues --   -0.43360  -0.43175  -0.43134  -0.42945  -0.42864
 Alpha  occ. eigenvalues --   -0.42817  -0.42480  -0.42162  -0.41961  -0.41817
 Alpha  occ. eigenvalues --   -0.41559  -0.41502  -0.41405  -0.41335  -0.41083
 Alpha  occ. eigenvalues --   -0.40939  -0.40629  -0.40471  -0.40178  -0.40169
 Alpha  occ. eigenvalues --   -0.39825  -0.39602  -0.39180  -0.39125  -0.39029
 Alpha  occ. eigenvalues --   -0.38808  -0.38661  -0.38369  -0.38263  -0.37940
 Alpha  occ. eigenvalues --   -0.37847  -0.37397  -0.37322  -0.37224  -0.36906
 Alpha  occ. eigenvalues --   -0.36771  -0.36748  -0.36542  -0.36029  -0.35871
 Alpha  occ. eigenvalues --   -0.35529  -0.35465  -0.35398  -0.34777  -0.34625
 Alpha  occ. eigenvalues --   -0.34410  -0.33934  -0.33788  -0.33504  -0.32944
 Alpha  occ. eigenvalues --   -0.32822  -0.32650  -0.32154  -0.31825  -0.31466
 Alpha  occ. eigenvalues --   -0.31220  -0.31092  -0.30446  -0.30130  -0.29361
 Alpha  occ. eigenvalues --   -0.28708  -0.28655  -0.28262  -0.28206  -0.27838
 Alpha  occ. eigenvalues --   -0.27574  -0.26507  -0.23509  -0.20886
 Alpha virt. eigenvalues --   -0.08322  -0.06654  -0.01886  -0.01040   0.00410
 Alpha virt. eigenvalues --    0.02143   0.02989   0.03648   0.04175   0.04639
 Alpha virt. eigenvalues --    0.04798   0.05441   0.06508   0.07432   0.08516

 Mulliken charges:
               1
     1  Mg   0.818426
     2  C    0.069023
     3  C   -0.167469
     4  C   -0.058949
     5  C   -0.148733
     6  N   -0.619566
     7  C    0.300803
     8  C   -0.182260
     9  C   -0.128678
    10  C    0.308265
    11  C   -0.328077
    12  C   -0.145766
    13  C   -0.240827
    14  C    0.613282
    15  O   -0.441739
    16  O   -0.500587
    17  N   -0.722501
    18  C    0.349186
    19  C    0.002543
    20  C    0.038093
    21  C    0.301418
    22  C   -0.375657
    23  C    0.229064
    24  O   -0.451395
    25  N   -0.705949
    26  C    0.269833
    27  C   -0.018899
    28  C    0.020299
    29  C    0.314934
    30  C    0.239023
    31  C   -0.214391
    32  C   -0.316115
    33  N   -0.694350
    34  C    0.258671
    35  C    0.060563
    36  C   -0.033773
    37  C    0.265548
    38  C   -0.398929
    39  C    0.393533
    40  O   -0.412973
    41  C   -0.317146
    42  C    0.629575
    43  O   -0.483703
    44  O   -0.447636
    45  C   -0.090159
    46  C   -0.016101
    47  C   -0.113437
    48  C    0.139683
    49  C   -0.397027
    50  C   -0.236654
    51  C   -0.177347
    52  C   -0.176554
    53  C   -0.074832
    54  C   -0.326269
    55  C   -0.162719
    56  C   -0.174871
    57  C   -0.161545
    58  C   -0.066032
    59  C   -0.320791
    60  C   -0.142636
    61  C   -0.184337
    62  C   -0.182649
    63  C   -0.068186
    64  C   -0.290371
    65  C   -0.318311
    66  H    0.088713
    67  H    0.029028
    68  H    0.085638
    69  H    0.122705
    70  H    0.103834
    71  H    0.124836
    72  H    0.121652
    73  H    0.106656
    74  H    0.125214
    75  H    0.093786
    76  H    0.135038
    77  H    0.100959
    78  H    0.103863
    79  H    0.157603
    80  H    0.114397
    81  H    0.088705
    82  H    0.121725
    83  H    0.097807
    84  H    0.101425
    85  H    0.091349
    86  H    0.120842
    87  H    0.116543
    88  H    0.150998
    89  H    0.130014
    90  H    0.156718
    91  H    0.095258
    92  H    0.133357
    93  H    0.088828
    94  H    0.161182
    95  H    0.104363
    96  H    0.124119
    97  H    0.097479
    98  H    0.104370
    99  H    0.118232
   100  H    0.081423
   101  H    0.072949
   102  H    0.094098
   103  H    0.089897
   104  H    0.124660
   105  H    0.106869
   106  H    0.113672
   107  H    0.086287
   108  H    0.100694
   109  H    0.080092
   110  H    0.088449
   111  H    0.077073
   112  H    0.053748
   113  H    0.079989
   114  H    0.097457
   115  H    0.089925
   116  H    0.091204
   117  H    0.092730
   118  H    0.099533
   119  H    0.096243
   120  H    0.101625
   121  H    0.065423
   122  H    0.051833
   123  H    0.096921
   124  H    0.103544
   125  H    0.111220
   126  H    0.104358
   127  H    0.084913
   128  H    0.104122
   129  H    0.110645
   130  H    0.118900
   131  H    0.140287
   132  H    0.132523
   133  O   -0.413707
   134  H    0.068295
 Sum of Mulliken charges =   0.00000

 Dipole moment (field-independent basis, Debye):
    X=              2.4555    Y=             -6.6781    Z=             -2.6295  Tot=              7.5856
 Quadrupole moment (field-independent basis, Debye-Ang):
   XX=           -374.3659   YY=           -447.1411   ZZ=           -393.2264
   XY=             12.5637   XZ=             28.7397   YZ=            -37.3079

 Normal termination of Gaussian 09 at Tue Oct  8 03:38:29 2019.
