 Gaussian 09, Revision D.01,
 Gaussian 09:  ES64L-G09RevD.01 24-Apr-2013

 ----------------------------------------------------------------------
 # td=(NStates=1) iop(3/107=0140000000,3/108=0140000000) iop(3/107=0140
 000000,3/108=0140000000) CAM-B3LYP/6-31G(d,p)
 ----------------------------------------------------------------------

 --
 TD
 --
 Symbolic Z-matrix:
 Charge =  0 Multiplicity = 1

                         Standard orientation:
 ---------------------------------------------------------------------
 Center     Atomic      Atomic             Coordinates (Angstroms)
 Number     Number       Type             X           Y           Z
 ---------------------------------------------------------------------
      1         12           0       -5.621899    1.103840    0.223540
      2          6           0       -4.956868   -2.107278   -0.306394
      3          6           0       -3.410949    1.128956    2.860935
      4          6           0       -6.249175    4.535394    0.717511
      5          6           0       -8.033134    1.218384   -2.332480
      6          7           0       -4.306234   -0.324213    1.074123
      7          6           0       -4.170916   -1.649200    0.628444
      8          6           0       -3.136047   -2.329603    1.488417
      9          6           0       -2.964240   -1.407588    2.725187
     10          6           0       -3.556710   -0.033994    2.263977
     11          6           0       -3.539727   -1.948668    4.041350
     12          6           0       -1.891040   -2.602557    0.654770
     13          6           0       -0.833565   -3.527536    1.495756
     14          6           0        0.394657   -4.040296    0.623873
     15          8           0        0.540906   -3.518326   -0.419444
     16          8           0        1.103306   -4.875995    1.307762
     17          7           0       -4.952105    2.581526    1.493416
     18          6           0       -3.955982    2.435995    2.478070
     19          6           0       -3.788782    3.692270    3.150171
     20          6           0       -4.676770    4.578234    2.554813
     21          6           0       -5.291739    3.846537    1.475925
     22          6           0       -2.814078    3.879813    4.289971
     23          6           0       -4.617763    6.047035    2.847938
     24          8           0       -3.839962    6.551142    3.699079
     25          7           0       -6.785385    2.660557   -0.717908
     26          6           0       -6.975209    3.925860   -0.309749
     27          6           0       -7.999560    4.584566   -1.164502
     28          6           0       -8.480082    3.585849   -1.989026
     29          6           0       -7.705778    2.394950   -1.707022
     30          6           0       -8.324170    6.060094   -1.112616
     31          6           0       -9.495213    3.761053   -3.077694
     32          6           0       -8.900645    3.953020   -4.466065
     33          7           0       -6.338811   -0.179442   -0.978928
     34          6           0       -7.307629    0.024836   -2.101863
     35          6           0       -7.511987   -1.298005   -2.761584
     36          6           0       -6.531623   -2.068616   -2.242581
     37          6           0       -5.946676   -1.392741   -1.047085
     38          6           0       -8.371079   -1.594660   -3.903106
     39          6           0       -6.108288   -3.480297   -2.099988
     40          8           0       -6.437320   -4.480076   -2.737287
     41          6           0       -4.959689   -3.522286   -1.030969
     42          6           0       -5.389022   -4.604273   -0.036684
     43          8           0       -5.836160   -4.452668    1.057481
     44          8           0       -5.106131   -5.795370   -0.530803
     45          6           0       -5.469312   -6.980117    0.259909
     46          6           0        2.414689   -5.106640    0.663003
     47          6           0        3.379973   -4.123691    1.029308
     48          6           0        4.023043   -3.184146    0.226795
     49          6           0        3.719891   -3.035768   -1.213019
     50          6           0        5.116695   -2.374832    0.720060
     51          6           0        6.540566   -2.633272    0.192690
     52          6           0        7.641814   -1.749606    0.710275
     53          6           0        8.985650   -2.056753    0.042298
     54          6           0        9.636102   -3.344002    0.365279
     55          6           0        9.851400   -0.879064    0.424012
     56          6           0       11.314733   -0.823631   -0.219100
     57          6           0       12.148030    0.398670    0.059111
     58          6           0       13.471960    0.431290   -0.610377
     59          6           0       14.329568   -0.719267   -0.390121
     60          6           0       14.121116    1.808827   -0.265528
     61          6           0       15.417223    2.125917   -1.097443
     62          6           0       16.003418    3.492578   -0.723775
     63          6           0       17.225500    3.877016   -1.395471
     64          6           0       17.095150    4.240745   -2.914008
     65          6           0       17.968350    5.085090   -0.771910
     66          1           0       -2.729905    1.050262    3.514418
     67          1           0       -6.449023    5.623426    0.707623
     68          1           0       -8.983947    1.311886   -2.971962
     69          1           0       -3.611308   -3.260228    1.766568
     70          1           0       -1.779448   -1.338146    2.765520
     71          1           0       -2.776202   -2.672122    4.496571
     72          1           0       -3.767878   -1.198443    4.790528
     73          1           0       -4.479838   -2.428045    3.943799
     74          1           0       -2.187953   -3.293498   -0.099246
     75          1           0       -1.474168   -1.738761    0.572383
     76          1           0       -0.545754   -3.115715    2.458623
     77          1           0       -1.565984   -4.329342    1.642455
     78          1           0       -1.912008    3.591314    3.851916
     79          1           0       -2.918594    4.880381    4.637324
     80          1           0       -3.123274    3.317972    5.057434
     81          1           0       -5.325118    6.805616    2.127494
     82          1           0       -9.988942    2.834235   -2.937892
     83          1           0      -10.128223    4.531092   -3.057285
     84          1           0       -9.501981    4.019148   -5.270229
     85          1           0       -8.415322    4.737088   -4.655058
     86          1           0       -8.074665    3.349614   -4.848353
     87          1           0       -8.353340   -0.835747   -4.732558
     88          1           0       -8.270402   -2.588480   -4.228117
     89          1           0       -9.408764   -1.526616   -3.581724
     90          1           0       -4.102971   -3.644633   -1.357304
     91          1           0        2.655685   -6.175242    0.941578
     92          1           0        2.369561   -5.237971   -0.432555
     93          1           0        3.577974   -3.927478    2.085216
     94          1           0        2.691188   -3.374940   -1.461039
     95          1           0        3.674782   -1.919015   -1.884168
     96          1           0        4.548117   -3.512602   -1.630935
     97          1           0        4.841951   -1.416821    0.432963
     98          1           0        5.081606   -2.576703    1.682920
     99          1           0        6.760364   -3.685187    0.461919
    100          1           0        6.606775   -2.711656   -0.754903
    101          1           0        7.295674   -0.669978    0.611796
    102          1           0        7.513255   -1.681521    1.930118
    103          1           0        8.987519   -2.016128   -0.990908
    104          1           0        9.121263   -4.140545    0.077027
    105          1           0       10.609112   -3.471449   -0.015530
    106          1           0        9.816664   -3.654547    1.299632
    107          1           0        9.536125    0.095102    0.074328
    108          1           0       10.055131   -0.817718    1.494236
    109          1           0       11.793269   -1.774255    0.158752
    110          1           0       11.182602   -0.787077   -1.230068
    111          1           0       11.591759    1.206639   -0.145222
    112          1           0       12.476283    0.282837    1.156321
    113          1           0       13.239840    0.487563   -1.714287
    114          1           0       14.601659   -1.157055    0.701839
    115          1           0       14.054327   -1.611321   -0.998372
    116          1           0       15.466581   -0.542756   -0.808985
    117          1           0       13.354832    2.636208   -0.491561
    118          1           0       14.454632    1.896619    0.595027
    119          1           0       16.182203    1.367219   -0.788115
    120          1           0       15.114906    2.194088   -2.100765
    121          1           0       15.221353    4.388389   -0.867223
    122          1           0       16.418715    3.525378    0.307777
    123          1           0       17.938057    2.940441   -1.386927
    124          1           0       16.599159    5.249899   -3.175454
    125          1           0       18.111642    4.256200   -3.272038
    126          1           0       16.671587    3.331301   -3.411793
    127          1           0       17.797172    4.802123    0.276850
    128          1           0       18.869722    5.431487   -1.324726
    129          1           0       17.445022    6.107241   -0.867819
    130          1           0       -4.796069   -7.822189   -0.315902
    131          1           0       -6.722844   -7.065298    0.286045
    132          1           0       -4.935912   -6.757845    1.212203
    133          8           0       -7.845543    6.865739   -0.309243
    134          1           0       -9.106950    6.488120   -1.826088
 ---------------------------------------------------------------------

 SCF Done:  E(RCAM-B3LYP) =  -3043.36112535     A.U. after   15 cycles

 Excitation energies and oscillator strengths:

 Excited State   1:      Singlet-A      2.0357 eV  609.04 nm  f=0.2180  <S**2>=0.000
     243 -> 246        0.23031
     244 -> 245        0.65964
 This state for optimization and/or second-order correction.
 Total Energy, E(TD-HF/TD-KS) =  -3043.28631413
 Copying the excited state density for this state as the 1-particle RhoCI density.

 The electronic state is 1-A.
 Alpha  occ. eigenvalues --  -46.80513 -19.23632 -19.21622 -19.17765 -19.17012
 Alpha  occ. eigenvalues --  -19.16944 -19.16895 -19.16480 -14.37215 -14.37182
 Alpha  occ. eigenvalues --  -14.36954 -14.36766 -10.34582 -10.34117 -10.31636
 Alpha  occ. eigenvalues --  -10.31597 -10.31392 -10.30127 -10.28162 -10.27394
 Alpha  occ. eigenvalues --  -10.26886 -10.26640 -10.26121 -10.26081 -10.25760
 Alpha  occ. eigenvalues --  -10.25722 -10.25689 -10.25454 -10.25448 -10.24803
 Alpha  occ. eigenvalues --  -10.24313 -10.23823 -10.23352 -10.23264 -10.23185
 Alpha  occ. eigenvalues --  -10.23156 -10.22890 -10.22700 -10.22663 -10.22660
 Alpha  occ. eigenvalues --  -10.22496 -10.22480 -10.22457 -10.22388 -10.22146
 Alpha  occ. eigenvalues --  -10.21862 -10.21805 -10.21656 -10.21641 -10.21600
 Alpha  occ. eigenvalues --  -10.21502 -10.21336 -10.21130 -10.21029 -10.20669
 Alpha  occ. eigenvalues --  -10.20602 -10.20082 -10.20048 -10.20029 -10.19748
 Alpha  occ. eigenvalues --  -10.19578 -10.19523 -10.19428 -10.19353 -10.18936
 Alpha  occ. eigenvalues --  -10.17719  -3.09278  -1.84204  -1.83757  -1.83697
 Alpha  occ. eigenvalues --   -1.15621  -1.13979  -1.07204  -1.06460  -1.06029
 Alpha  occ. eigenvalues --   -1.04754  -1.04267  -1.00526  -0.99932  -0.99270
 Alpha  occ. eigenvalues --   -0.96463  -0.87778  -0.87614  -0.86568  -0.86323
 Alpha  occ. eigenvalues --   -0.85579  -0.85271  -0.84831  -0.84344  -0.83987
 Alpha  occ. eigenvalues --   -0.83604  -0.82796  -0.81753  -0.80670  -0.79525
 Alpha  occ. eigenvalues --   -0.79505  -0.78803  -0.77820  -0.77211  -0.77058
 Alpha  occ. eigenvalues --   -0.76130  -0.75613  -0.74074  -0.73246  -0.73085
 Alpha  occ. eigenvalues --   -0.72353  -0.71657  -0.71025  -0.70745  -0.70251
 Alpha  occ. eigenvalues --   -0.70042  -0.69240  -0.67940  -0.67140  -0.66260
 Alpha  occ. eigenvalues --   -0.65422  -0.64795  -0.63709  -0.63390  -0.62285
 Alpha  occ. eigenvalues --   -0.61775  -0.60911  -0.60315  -0.60229  -0.59758
 Alpha  occ. eigenvalues --   -0.58541  -0.58385  -0.57739  -0.56641  -0.56359
 Alpha  occ. eigenvalues --   -0.56230  -0.55988  -0.55785  -0.55157  -0.54809
 Alpha  occ. eigenvalues --   -0.54134  -0.53501  -0.53203  -0.52959  -0.52793
 Alpha  occ. eigenvalues --   -0.52648  -0.52361  -0.51693  -0.51453  -0.51243
 Alpha  occ. eigenvalues --   -0.51006  -0.49963  -0.49878  -0.49705  -0.49600
 Alpha  occ. eigenvalues --   -0.48922  -0.48726  -0.48531  -0.48387  -0.47979
 Alpha  occ. eigenvalues --   -0.47939  -0.47838  -0.47606  -0.47294  -0.47193
 Alpha  occ. eigenvalues --   -0.47102  -0.46580  -0.46454  -0.46273  -0.45892
 Alpha  occ. eigenvalues --   -0.45769  -0.45473  -0.45297  -0.45070  -0.44837
 Alpha  occ. eigenvalues --   -0.44720  -0.44398  -0.44281  -0.44124  -0.44086
 Alpha  occ. eigenvalues --   -0.43956  -0.43697  -0.43626  -0.43540  -0.43203
 Alpha  occ. eigenvalues --   -0.43150  -0.42757  -0.42591  -0.42391  -0.42270
 Alpha  occ. eigenvalues --   -0.42195  -0.41867  -0.41403  -0.41210  -0.41130
 Alpha  occ. eigenvalues --   -0.40892  -0.40473  -0.40376  -0.40003  -0.39917
 Alpha  occ. eigenvalues --   -0.39821  -0.39740  -0.39556  -0.39282  -0.38883
 Alpha  occ. eigenvalues --   -0.38726  -0.38597  -0.38249  -0.38178  -0.37923
 Alpha  occ. eigenvalues --   -0.37842  -0.37470  -0.37401  -0.37162  -0.37090
 Alpha  occ. eigenvalues --   -0.36973  -0.36674  -0.36583  -0.36112  -0.35590
 Alpha  occ. eigenvalues --   -0.35476  -0.35314  -0.35094  -0.34809  -0.34693
 Alpha  occ. eigenvalues --   -0.34381  -0.34250  -0.33541  -0.33287  -0.33190
 Alpha  occ. eigenvalues --   -0.33027  -0.32625  -0.32113  -0.31273  -0.31212
 Alpha  occ. eigenvalues --   -0.30941  -0.30725  -0.30479  -0.30121  -0.29960
 Alpha  occ. eigenvalues --   -0.29218  -0.28426  -0.28152  -0.27758  -0.27526
 Alpha  occ. eigenvalues --   -0.27181  -0.26335  -0.22822  -0.21700
 Alpha virt. eigenvalues --   -0.08739  -0.05949  -0.00748  -0.00493   0.00621
 Alpha virt. eigenvalues --    0.01612   0.04144   0.04411   0.04717   0.05310
 Alpha virt. eigenvalues --    0.05718   0.06161   0.08376   0.08698   0.09680

 Mulliken charges:
               1
     1  Mg   0.824105
     2  C    0.074455
     3  C   -0.135347
     4  C   -0.152813
     5  C   -0.157370
     6  N   -0.662160
     7  C    0.312148
     8  C   -0.174555
     9  C   -0.135340
    10  C    0.313336
    11  C   -0.318898
    12  C   -0.133392
    13  C   -0.304793
    14  C    0.603393
    15  O   -0.436905
    16  O   -0.425051
    17  N   -0.687526
    18  C    0.277515
    19  C    0.005603
    20  C   -0.044073
    21  C    0.345593
    22  C   -0.358853
    23  C    0.246711
    24  O   -0.427567
    25  N   -0.683657
    26  C    0.278723
    27  C   -0.034530
    28  C   -0.016004
    29  C    0.325060
    30  C    0.248562
    31  C   -0.210423
    32  C   -0.333984
    33  N   -0.749019
    34  C    0.202626
    35  C    0.068081
    36  C   -0.026629
    37  C    0.331112
    38  C   -0.393265
    39  C    0.380926
    40  O   -0.466176
    41  C   -0.265202
    42  C    0.592057
    43  O   -0.466078
    44  O   -0.435286
    45  C   -0.077456
    46  C   -0.043776
    47  C   -0.121443
    48  C    0.114521
    49  C   -0.374004
    50  C   -0.196957
    51  C   -0.175426
    52  C   -0.165894
    53  C   -0.040193
    54  C   -0.325984
    55  C   -0.185005
    56  C   -0.205685
    57  C   -0.144641
    58  C   -0.038981
    59  C   -0.310961
    60  C   -0.151562
    61  C   -0.187621
    62  C   -0.147636
    63  C   -0.049053
    64  C   -0.312121
    65  C   -0.302144
    66  H    0.056283
    67  H    0.142462
    68  H    0.108413
    69  H    0.115392
    70  H    0.082268
    71  H    0.104687
    72  H    0.115267
    73  H    0.138086
    74  H    0.117184
    75  H    0.115130
    76  H    0.120945
    77  H    0.113725
    78  H    0.125342
    79  H    0.160738
    80  H    0.128997
    81  H    0.070129
    82  H    0.109417
    83  H    0.119212
    84  H    0.112554
    85  H    0.127337
    86  H    0.101638
    87  H    0.130615
    88  H    0.155158
    89  H    0.130479
    90  H    0.140466
    91  H    0.116314
    92  H    0.132978
    93  H    0.080155
    94  H    0.149107
    95  H    0.075398
    96  H    0.131199
    97  H    0.110964
    98  H    0.093745
    99  H    0.087308
   100  H    0.102366
   101  H    0.088985
   102  H    0.067761
   103  H    0.099133
   104  H    0.103378
   105  H    0.107073
   106  H    0.111323
   107  H    0.084430
   108  H    0.091381
   109  H    0.086477
   110  H    0.087945
   111  H    0.089517
   112  H    0.072792
   113  H    0.073085
   114  H    0.083871
   115  H    0.110043
   116  H    0.075308
   117  H    0.073453
   118  H    0.099928
   119  H    0.092906
   120  H    0.104072
   121  H    0.068357
   122  H    0.075613
   123  H    0.066020
   124  H    0.093145
   125  H    0.102212
   126  H    0.088988
   127  H    0.093167
   128  H    0.108662
   129  H    0.085446
   130  H    0.120707
   131  H    0.131317
   132  H    0.137952
   133  O   -0.419296
   134  H    0.070300
 Sum of Mulliken charges =   0.00000

 Dipole moment (field-independent basis, Debye):
    X=              1.7118    Y=             -5.1077    Z=             -2.4455  Tot=              5.9160
 Quadrupole moment (field-independent basis, Debye-Ang):
   XX=           -360.7373   YY=           -432.7048   ZZ=           -393.5241
   XY=             -5.2150   XZ=             24.8099   YZ=            -37.4732

 Normal termination of Gaussian 09 at Mon Oct  7 21:11:18 2019.
