 Gaussian 09, Revision D.01,
 Gaussian 09:  ES64L-G09RevD.01 24-Apr-2013

 ----------------------------------------------------------------------
 # td=(NStates=1) iop(3/107=0140000000,3/108=0140000000) iop(3/107=0140
 000000,3/108=0140000000) CAM-B3LYP/6-31G(d,p)
 ----------------------------------------------------------------------

 --
 TD
 --
 Symbolic Z-matrix:
 Charge =  0 Multiplicity = 1

                         Standard orientation:
 ---------------------------------------------------------------------
 Center     Atomic      Atomic             Coordinates (Angstroms)
 Number     Number       Type             X           Y           Z
 ---------------------------------------------------------------------
      1         12           0       -5.535227    1.240639    0.157661
      2          6           0       -5.030881   -2.132829   -0.317744
      3          6           0       -3.221404    1.193368    2.756066
      4          6           0       -6.087298    4.571173    0.745680
      5          6           0       -7.963403    1.213232   -2.377731
      6          7           0       -4.363250   -0.255636    1.070663
      7          6           0       -4.281944   -1.548682    0.690535
      8          6           0       -3.274587   -2.337368    1.508852
      9          6           0       -2.902079   -1.313209    2.615366
     10          6           0       -3.505479   -0.032737    2.166317
     11          6           0       -3.508682   -1.735836    3.859815
     12          6           0       -1.949519   -2.732041    0.685528
     13          6           0       -0.978897   -3.611063    1.451245
     14          6           0        0.173419   -3.999338    0.481229
     15          8           0        0.489614   -3.576609   -0.534562
     16          8           0        1.002188   -4.756807    1.217188
     17          7           0       -4.840488    2.635336    1.464272
     18          6           0       -3.830902    2.414903    2.362266
     19          6           0       -3.466750    3.666844    3.151373
     20          6           0       -4.421678    4.671057    2.677382
     21          6           0       -5.194648    3.997374    1.597106
     22          6           0       -2.527750    3.786992    4.244443
     23          6           0       -4.511016    6.074878    2.933010
     24          8           0       -3.837636    6.552585    3.828119
     25          7           0       -6.735142    2.694474   -0.775656
     26          6           0       -6.754887    3.985373   -0.396864
     27          6           0       -7.729965    4.648138   -1.238026
     28          6           0       -8.327573    3.714369   -2.017959
     29          6           0       -7.647700    2.473925   -1.685803
     30          6           0       -8.171111    6.062680   -1.190922
     31          6           0       -9.294283    3.880089   -3.148568
     32          6           0       -8.620680    4.097555   -4.464261
     33          7           0       -6.496359   -0.056580   -0.980666
     34          6           0       -7.346192    0.034705   -2.038434
     35          6           0       -7.682304   -1.244619   -2.685122
     36          6           0       -6.783403   -2.203715   -2.010011
     37          6           0       -6.022291   -1.423184   -1.010044
     38          6           0       -8.598204   -1.483480   -3.787066
     39          6           0       -6.279247   -3.490631   -1.956580
     40          8           0       -6.631463   -4.455817   -2.594348
     41          6           0       -5.112174   -3.555236   -0.898054
     42          6           0       -5.400168   -4.689863    0.043706
     43          8           0       -5.911531   -4.528821    1.202783
     44          8           0       -5.087455   -5.875973   -0.337259
     45          6           0       -5.449426   -6.914636    0.469427
     46          6           0        2.297014   -5.163727    0.557335
     47          6           0        3.283548   -4.231283    1.011428
     48          6           0        3.890360   -3.316711    0.180598
     49          6           0        3.597153   -3.136139   -1.247419
     50          6           0        5.008679   -2.335550    0.649350
     51          6           0        6.416417   -2.637690   -0.069668
     52          6           0        7.521585   -1.746037    0.614773
     53          6           0        8.874179   -1.992913   -0.005836
     54          6           0        9.442538   -3.436989    0.262852
     55          6           0        9.926234   -0.933471    0.453763
     56          6           0       11.204235   -0.851563   -0.363983
     57          6           0       12.155765    0.350387    0.030609
     58          6           0       13.433679    0.410748   -0.666436
     59          6           0       14.371686   -0.817786   -0.301676
     60          6           0       14.173234    1.701410   -0.270614
     61          6           0       15.472937    2.101527   -0.969867
     62          6           0       16.085715    3.496582   -0.576391
     63          6           0       17.383493    3.813927   -1.340167
     64          6           0       17.122239    3.934655   -2.906177
     65          6           0       17.929982    5.102178   -0.731485
     66          1           0       -2.688727    1.156272    3.532841
     67          1           0       -6.141792    5.697005    0.850283
     68          1           0       -8.654652    1.423477   -3.162249
     69          1           0       -3.740362   -3.331641    1.995505
     70          1           0       -1.771994   -1.360915    2.953713
     71          1           0       -2.945593   -2.648559    4.349004
     72          1           0       -3.441096   -1.041983    4.673821
     73          1           0       -4.531673   -1.913467    3.678770
     74          1           0       -2.520347   -3.215919   -0.321768
     75          1           0       -1.435407   -1.867217    0.258575
     76          1           0       -0.627602   -2.962461    2.254942
     77          1           0       -1.370194   -4.601586    1.547544
     78          1           0       -1.497800    3.754176    3.877460
     79          1           0       -2.672851    4.797131    4.561307
     80          1           0       -2.610672    3.049026    4.929506
     81          1           0       -5.383127    6.569732    2.264114
     82          1           0       -9.974015    2.955297   -3.226835
     83          1           0       -9.793679    4.783807   -2.893448
     84          1           0       -9.491826    3.959876   -5.396305
     85          1           0       -8.150734    5.037421   -4.386040
     86          1           0       -7.858776    3.231492   -4.758661
     87          1           0       -8.108149   -1.013146   -4.696513
     88          1           0       -8.916755   -2.568682   -3.936603
     89          1           0       -9.645068   -0.841174   -3.573805
     90          1           0       -4.314745   -3.951422   -1.255678
     91          1           0        2.259444   -6.335529    0.761224
     92          1           0        2.006394   -5.173164   -0.459948
     93          1           0        3.599514   -4.547079    2.040184
     94          1           0        2.598373   -3.401106   -1.571556
     95          1           0        3.957903   -2.088855   -1.577065
     96          1           0        4.162431   -3.771387   -1.845066
     97          1           0        4.755628   -1.369093    0.411179
     98          1           0        5.153147   -2.409183    1.645869
     99          1           0        6.661532   -3.807676    0.017016
    100          1           0        6.616254   -2.349945   -0.977202
    101          1           0        7.251208   -0.727597    0.660237
    102          1           0        7.491308   -1.930023    1.732685
    103          1           0        8.811028   -1.868422   -1.045768
    104          1           0        8.754693   -4.127235   -0.224236
    105          1           0       10.385173   -3.622973   -0.179979
    106          1           0        9.416862   -3.454019    1.239780
    107          1           0        9.483359   -0.042078    0.424825
    108          1           0       10.179429   -1.231466    1.515206
    109          1           0       11.688256   -1.802078   -0.212090
    110          1           0       11.060414   -0.669247   -1.509942
    111          1           0       11.463964    1.276351   -0.245550
    112          1           0       12.316676    0.247407    1.239322
    113          1           0       13.220864    0.298940   -1.741100
    114          1           0       14.611488   -0.702306    0.908549
    115          1           0       13.783803   -1.873915   -0.526034
    116          1           0       15.384486   -0.725933   -0.911595
    117          1           0       13.441246    2.609012   -0.277782
    118          1           0       14.288638    1.686918    0.892679
    119          1           0       16.268179    1.460988   -0.601272
    120          1           0       15.462586    2.208671   -2.178577
    121          1           0       15.214543    4.216315   -0.695072
    122          1           0       16.245102    3.399305    0.400036
    123          1           0       18.063723    2.957414   -1.241899
    124          1           0       16.331437    4.612810   -3.049487
    125          1           0       17.934847    4.426533   -3.348013
    126          1           0       16.949427    2.934047   -3.374803
    127          1           0       17.828977    4.923441    0.368340
    128          1           0       18.971475    5.400656   -0.892696
    129          1           0       17.263623    5.775084   -1.138494
    130          1           0       -5.193900   -7.912818   -0.042187
    131          1           0       -6.513279   -7.060423    0.651365
    132          1           0       -4.981284   -7.011872    1.378207
    133          8           0       -7.677222    6.891487   -0.425453
    134          1           0       -8.989324    6.375349   -1.895615
 ---------------------------------------------------------------------

 SCF Done:  E(RCAM-B3LYP) =  -3043.48777747     A.U. after   15 cycles

 Excitation energies and oscillator strengths:

 Excited State   1:      Singlet-A      1.9980 eV  620.54 nm  f=0.1816  <S**2>=0.000
     243 -> 246       -0.27408
     244 -> 245        0.64414
 This state for optimization and/or second-order correction.
 Total Energy, E(TD-HF/TD-KS) =  -3043.41435249
 Copying the excited state density for this state as the 1-particle RhoCI density.

 The electronic state is 1-A.
 Alpha  occ. eigenvalues --  -46.81313 -19.24441 -19.19804 -19.17372 -19.17111
 Alpha  occ. eigenvalues --  -19.17086 -19.16208 -19.15265 -14.39334 -14.37698
 Alpha  occ. eigenvalues --  -14.37034 -14.36692 -10.34966 -10.33604 -10.30826
 Alpha  occ. eigenvalues --  -10.30683 -10.30570 -10.28017 -10.27798 -10.27587
 Alpha  occ. eigenvalues --  -10.27136 -10.27002 -10.26951 -10.26904 -10.26684
 Alpha  occ. eigenvalues --  -10.26356 -10.26281 -10.25648 -10.25523 -10.25371
 Alpha  occ. eigenvalues --  -10.24770 -10.24491 -10.24361 -10.24240 -10.24239
 Alpha  occ. eigenvalues --  -10.24209 -10.24070 -10.23988 -10.23959 -10.23663
 Alpha  occ. eigenvalues --  -10.23643 -10.23557 -10.23547 -10.23182 -10.23059
 Alpha  occ. eigenvalues --  -10.22456 -10.22310 -10.22111 -10.21946 -10.21907
 Alpha  occ. eigenvalues --  -10.21858 -10.21846 -10.21765 -10.21444 -10.21319
 Alpha  occ. eigenvalues --  -10.21317 -10.21244 -10.21061 -10.21018 -10.20600
 Alpha  occ. eigenvalues --  -10.20488 -10.19870 -10.19741 -10.19565 -10.19554
 Alpha  occ. eigenvalues --  -10.18723  -3.09973  -1.84904  -1.84447  -1.84391
 Alpha  occ. eigenvalues --   -1.17442  -1.14656  -1.07096  -1.07062  -1.06032
 Alpha  occ. eigenvalues --   -1.04974  -1.01472  -1.01421  -1.00142  -0.98235
 Alpha  occ. eigenvalues --   -0.97826  -0.89238  -0.86219  -0.86035  -0.85803
 Alpha  occ. eigenvalues --   -0.85335  -0.84915  -0.84519  -0.83646  -0.83477
 Alpha  occ. eigenvalues --   -0.83340  -0.83305  -0.82332  -0.81363  -0.80166
 Alpha  occ. eigenvalues --   -0.79451  -0.78542  -0.78279  -0.77736  -0.76750
 Alpha  occ. eigenvalues --   -0.76219  -0.75224  -0.74559  -0.74118  -0.72294
 Alpha  occ. eigenvalues --   -0.72099  -0.71669  -0.70197  -0.69365  -0.69055
 Alpha  occ. eigenvalues --   -0.68705  -0.68395  -0.67388  -0.66561  -0.65850
 Alpha  occ. eigenvalues --   -0.65735  -0.64787  -0.64333  -0.62939  -0.62796
 Alpha  occ. eigenvalues --   -0.61686  -0.60917  -0.60817  -0.60293  -0.59312
 Alpha  occ. eigenvalues --   -0.58685  -0.57745  -0.57624  -0.57313  -0.56967
 Alpha  occ. eigenvalues --   -0.56642  -0.56528  -0.55832  -0.55024  -0.54623
 Alpha  occ. eigenvalues --   -0.54301  -0.53655  -0.53409  -0.52952  -0.52698
 Alpha  occ. eigenvalues --   -0.52323  -0.51984  -0.51655  -0.51437  -0.50903
 Alpha  occ. eigenvalues --   -0.50652  -0.50468  -0.50360  -0.49916  -0.49714
 Alpha  occ. eigenvalues --   -0.49516  -0.49082  -0.48936  -0.48455  -0.48166
 Alpha  occ. eigenvalues --   -0.47739  -0.47664  -0.47539  -0.47420  -0.47203
 Alpha  occ. eigenvalues --   -0.46962  -0.46764  -0.46562  -0.46368  -0.46005
 Alpha  occ. eigenvalues --   -0.45775  -0.45568  -0.45042  -0.44785  -0.44606
 Alpha  occ. eigenvalues --   -0.44435  -0.44326  -0.44259  -0.44033  -0.43884
 Alpha  occ. eigenvalues --   -0.43534  -0.43236  -0.43127  -0.42919  -0.42622
 Alpha  occ. eigenvalues --   -0.42562  -0.42407  -0.42147  -0.42070  -0.41911
 Alpha  occ. eigenvalues --   -0.41885  -0.41650  -0.41457  -0.41369  -0.41176
 Alpha  occ. eigenvalues --   -0.41063  -0.40953  -0.40811  -0.40686  -0.40534
 Alpha  occ. eigenvalues --   -0.40456  -0.40031  -0.39684  -0.39544  -0.39489
 Alpha  occ. eigenvalues --   -0.38999  -0.38878  -0.38560  -0.38320  -0.38032
 Alpha  occ. eigenvalues --   -0.37825  -0.37581  -0.37501  -0.37204  -0.37160
 Alpha  occ. eigenvalues --   -0.36719  -0.36374  -0.36060  -0.35822  -0.35784
 Alpha  occ. eigenvalues --   -0.35343  -0.35281  -0.34840  -0.34693  -0.34569
 Alpha  occ. eigenvalues --   -0.34198  -0.34120  -0.33782  -0.33611  -0.33432
 Alpha  occ. eigenvalues --   -0.32999  -0.32837  -0.32712  -0.32050  -0.31898
 Alpha  occ. eigenvalues --   -0.31606  -0.30988  -0.30396  -0.29670  -0.28951
 Alpha  occ. eigenvalues --   -0.28690  -0.28104  -0.27810  -0.27779  -0.27618
 Alpha  occ. eigenvalues --   -0.27522  -0.26929  -0.23216  -0.21533
 Alpha virt. eigenvalues --   -0.08558  -0.06791  -0.02404  -0.01068   0.00427
 Alpha virt. eigenvalues --    0.02200   0.03068   0.03197   0.04316   0.04953
 Alpha virt. eigenvalues --    0.05525   0.05854   0.07625   0.08586   0.09224

 Mulliken charges:
               1
     1  Mg   0.830253
     2  C    0.108888
     3  C   -0.120661
     4  C   -0.179910
     5  C   -0.142531
     6  N   -0.667941
     7  C    0.333265
     8  C   -0.160759
     9  C   -0.154137
    10  C    0.347550
    11  C   -0.302369
    12  C   -0.175694
    13  C   -0.238414
    14  C    0.562045
    15  O   -0.418135
    16  O   -0.485705
    17  N   -0.696423
    18  C    0.311655
    19  C    0.023774
    20  C    0.005166
    21  C    0.302399
    22  C   -0.395548
    23  C    0.238745
    24  O   -0.422054
    25  N   -0.681005
    26  C    0.282761
    27  C   -0.031567
    28  C    0.012762
    29  C    0.284014
    30  C    0.240213
    31  C   -0.244787
    32  C   -0.269062
    33  N   -0.726645
    34  C    0.310251
    35  C    0.079804
    36  C    0.060538
    37  C    0.229422
    38  C   -0.387868
    39  C    0.311112
    40  O   -0.467678
    41  C   -0.286502
    42  C    0.582109
    43  O   -0.522345
    44  O   -0.369347
    45  C   -0.095856
    46  C   -0.025613
    47  C   -0.114046
    48  C    0.129288
    49  C   -0.384975
    50  C   -0.228297
    51  C   -0.173806
    52  C   -0.187623
    53  C   -0.084180
    54  C   -0.307268
    55  C   -0.160492
    56  C   -0.184915
    57  C   -0.145946
    58  C   -0.034939
    59  C   -0.288016
    60  C   -0.162529
    61  C   -0.181914
    62  C   -0.168847
    63  C   -0.069520
    64  C   -0.327380
    65  C   -0.299156
    66  H    0.047689
    67  H    0.131629
    68  H    0.084521
    69  H    0.127921
    70  H    0.090494
    71  H    0.091644
    72  H    0.105739
    73  H    0.132392
    74  H    0.067412
    75  H    0.125412
    76  H    0.144319
    77  H    0.142848
    78  H    0.128738
    79  H    0.167170
    80  H    0.134440
    81  H    0.076707
    82  H    0.102739
    83  H    0.113607
    84  H    0.074327
    85  H    0.122753
    86  H    0.097574
    87  H    0.142740
    88  H    0.156056
    89  H    0.102655
    90  H    0.143426
    91  H    0.103956
    92  H    0.124294
    93  H    0.092042
    94  H    0.154085
    95  H    0.096849
    96  H    0.134399
    97  H    0.115130
    98  H    0.107319
    99  H    0.084818
   100  H    0.111507
   101  H    0.097949
   102  H    0.075307
   103  H    0.084965
   104  H    0.095299
   105  H    0.106382
   106  H    0.115508
   107  H    0.090041
   108  H    0.079046
   109  H    0.095523
   110  H    0.071102
   111  H    0.074727
   112  H    0.060718
   113  H    0.087231
   114  H    0.075338
   115  H    0.083480
   116  H    0.100404
   117  H    0.070892
   118  H    0.076489
   119  H    0.096661
   120  H    0.073348
   121  H    0.078155
   122  H    0.099745
   123  H    0.083519
   124  H    0.107547
   125  H    0.105446
   126  H    0.104915
   127  H    0.095681
   128  H    0.097296
   129  H    0.112287
   130  H    0.103204
   131  H    0.135110
   132  H    0.133463
   133  O   -0.428166
   134  H    0.068425
 Sum of Mulliken charges =   0.00000

 Dipole moment (field-independent basis, Debye):
    X=              3.2811    Y=             -4.0002    Z=             -2.0188  Tot=              5.5537
 Quadrupole moment (field-independent basis, Debye-Ang):
   XX=           -381.9912   YY=           -438.9035   ZZ=           -393.9753
   XY=              7.8992   XZ=             23.5539   YZ=            -29.5901

 Normal termination of Gaussian 09 at Wed Oct  9 09:26:45 2019.
