 Gaussian 09, Revision D.01,
 Gaussian 09:  ES64L-G09RevD.01 24-Apr-2013

 ----------------------------------------------------------------------
 # td=(NStates=1) iop(3/107=0140000000,3/108=0140000000) iop(3/107=0140
 000000,3/108=0140000000) CAM-B3LYP/6-31G(d,p)
 ----------------------------------------------------------------------

 --
 TD
 --
 Symbolic Z-matrix:
 Charge =  0 Multiplicity = 1

                         Standard orientation:
 ---------------------------------------------------------------------
 Center     Atomic      Atomic             Coordinates (Angstroms)
 Number     Number       Type             X           Y           Z
 ---------------------------------------------------------------------
      1         12           0       -5.653585    1.229507    0.223435
      2          6           0       -5.052933   -2.130371   -0.432406
      3          6           0       -3.390009    1.146840    2.763306
      4          6           0       -6.357064    4.584361    0.719063
      5          6           0       -7.933415    1.182427   -2.398511
      6          7           0       -4.392364   -0.316428    1.099795
      7          6           0       -4.331776   -1.683385    0.649866
      8          6           0       -3.335360   -2.408475    1.526188
      9          6           0       -2.959744   -1.410965    2.606089
     10          6           0       -3.603637   -0.095917    2.139798
     11          6           0       -3.522062   -1.758256    3.984422
     12          6           0       -2.036694   -2.601037    0.690340
     13          6           0       -0.938950   -3.490037    1.382535
     14          6           0        0.264981   -3.846686    0.674180
     15          8           0        0.502082   -3.420469   -0.455300
     16          8           0        1.093199   -4.652562    1.283493
     17          7           0       -4.990323    2.700333    1.459019
     18          6           0       -3.943323    2.401239    2.435252
     19          6           0       -3.749943    3.728587    3.065695
     20          6           0       -4.674450    4.626303    2.618901
     21          6           0       -5.276458    3.988188    1.589008
     22          6           0       -2.698900    3.791570    4.256857
     23          6           0       -4.875546    6.023286    2.941875
     24          8           0       -4.193772    6.585667    3.816479
     25          7           0       -6.923232    2.605178   -0.646719
     26          6           0       -7.024745    3.919549   -0.283667
     27          6           0       -7.933454    4.535129   -1.218666
     28          6           0       -8.428423    3.690063   -2.137625
     29          6           0       -7.818663    2.408864   -1.739075
     30          6           0       -8.273530    5.963979   -1.139792
     31          6           0       -9.477356    3.846995   -3.257493
     32          6           0       -8.713710    4.173104   -4.590783
     33          7           0       -6.359123   -0.122682   -1.094873
     34          6           0       -7.325165   -0.090101   -2.076723
     35          6           0       -7.548467   -1.317980   -2.667905
     36          6           0       -6.702572   -2.164530   -2.074268
     37          6           0       -5.957175   -1.470438   -1.122718
     38          6           0       -8.475928   -1.620648   -3.790946
     39          6           0       -6.171763   -3.634000   -2.000043
     40          8           0       -6.439462   -4.678207   -2.557415
     41          6           0       -4.997413   -3.596670   -0.943734
     42          6           0       -5.203473   -4.652087    0.101682
     43          8           0       -5.505105   -4.485529    1.233360
     44          8           0       -4.850497   -5.842423   -0.450598
     45          6           0       -5.253152   -6.864109    0.335683
     46          6           0        2.374458   -5.120855    0.744947
     47          6           0        3.368336   -4.138576    1.153886
     48          6           0        4.139799   -3.505398    0.204190
     49          6           0        3.830758   -3.261714   -1.269233
     50          6           0        5.221019   -2.557624    0.695534
     51          6           0        6.535455   -2.821239   -0.039767
     52          6           0        7.698906   -1.891284    0.512640
     53          6           0        9.079057   -2.069094   -0.052236
     54          6           0        9.601271   -3.600231    0.068226
     55          6           0       10.006874   -1.055678    0.538471
     56          6           0       11.387179   -0.874717   -0.239482
     57          6           0       12.228895    0.341534    0.215433
     58          6           0       13.510679    0.571074   -0.703009
     59          6           0       14.351235   -0.625899   -0.618636
     60          6           0       14.198294    1.890704   -0.255128
     61          6           0       15.458631    2.191647   -0.989640
     62          6           0       16.039502    3.576300   -0.475566
     63          6           0       17.206912    4.100543   -1.350205
     64          6           0       17.093568    4.269409   -2.854078
     65          6           0       17.806442    5.431907   -0.688429
     66          1           0       -2.797613    1.134464    3.540277
     67          1           0       -6.593840    5.595325    0.670851
     68          1           0       -8.809149    1.028673   -2.993874
     69          1           0       -3.993393   -3.205393    1.769126
     70          1           0       -1.877139   -1.243886    2.964323
     71          1           0       -3.129488   -2.686050    4.403509
     72          1           0       -3.516464   -0.696058    4.531361
     73          1           0       -4.577876   -2.069629    3.973277
     74          1           0       -2.394703   -3.324223   -0.284292
     75          1           0       -1.543497   -1.775741    0.335759
     76          1           0       -0.557637   -2.881542    2.152566
     77          1           0       -1.391354   -4.420601    1.755924
     78          1           0       -1.607832    3.718751    4.158763
     79          1           0       -2.788136    4.888228    4.544254
     80          1           0       -3.018920    3.148140    5.020281
     81          1           0       -5.463453    6.508502    2.238028
     82          1           0      -10.102898    2.820914   -3.422727
     83          1           0      -10.340279    4.673294   -3.101985
     84          1           0       -9.570730    4.504498   -5.386937
     85          1           0       -8.001396    5.146864   -4.471583
     86          1           0       -7.950434    3.596653   -5.006248
     87          1           0       -8.380176   -1.044579   -4.627495
     88          1           0       -8.378719   -2.690452   -4.022341
     89          1           0       -9.506565   -1.294957   -3.452218
     90          1           0       -4.199953   -3.903776   -1.348634
     91          1           0        2.547827   -6.125520    1.090195
     92          1           0        2.141231   -5.473834   -0.340848
     93          1           0        3.930074   -4.133868    2.091323
     94          1           0        2.834179   -3.588176   -1.577300
     95          1           0        3.965816   -2.057812   -1.531414
     96          1           0        4.572261   -3.702385   -1.779665
     97          1           0        5.002906   -1.466655    0.451900
     98          1           0        5.487985   -2.555674    1.716501
     99          1           0        6.947768   -3.687809    0.349157
    100          1           0        6.294172   -2.566089   -1.016431
    101          1           0        7.182084   -0.942019    0.233408
    102          1           0        7.786203   -2.221581    1.583563
    103          1           0        9.027006   -1.842599   -1.078887
    104          1           0        9.058463   -4.143665   -0.478589
    105          1           0       10.635983   -3.568803   -0.391223
    106          1           0        9.607483   -3.717612    1.208014
    107          1           0        9.534803   -0.030586    0.430381
    108          1           0       10.406870   -1.332139    1.576429
    109          1           0       12.128383   -1.576324    0.058419
    110          1           0       11.083345   -0.548998   -1.381537
    111          1           0       11.714499    1.136082    0.335889
    112          1           0       12.429630    0.129271    1.234607
    113          1           0       13.075826    0.758463   -1.851620
    114          1           0       14.672987   -1.201573    0.469602
    115          1           0       13.996680   -1.488270   -1.022092
    116          1           0       15.216122   -0.388757   -0.934516
    117          1           0       13.478977    2.699367   -0.343024
    118          1           0       14.379361    1.716352    0.826367
    119          1           0       16.191591    1.396760   -0.693566
    120          1           0       15.519070    2.143643   -2.102290
    121          1           0       15.222472    4.319542   -0.698477
    122          1           0       16.288956    3.461499    0.726064
    123          1           0       18.037392    3.542576   -1.112015
    124          1           0       15.942712    4.644332   -3.025930
    125          1           0       18.108876    4.620627   -3.138693
    126          1           0       16.903006    3.293652   -3.295135
    127          1           0       17.837500    5.464486    0.250848
    128          1           0       18.620702    5.840594   -1.158570
    129          1           0       16.888775    6.007919   -0.961579
    130          1           0       -4.729581   -7.889155   -0.058080
    131          1           0       -6.252643   -7.002443    0.426714
    132          1           0       -4.788596   -6.812257    1.345015
    133          8           0       -7.796532    6.767648   -0.354861
    134          1           0       -8.920518    6.196522   -2.121743
 ---------------------------------------------------------------------

 SCF Done:  E(RCAM-B3LYP) =  -3043.32696765     A.U. after   16 cycles

 Excitation energies and oscillator strengths:

 Excited State   1:      Singlet-A      1.9614 eV  632.11 nm  f=0.2184  <S**2>=0.000
     243 -> 246       -0.24110
     244 -> 245        0.64867
 This state for optimization and/or second-order correction.
 Total Energy, E(TD-HF/TD-KS) =  -3043.25488581
 Copying the excited state density for this state as the 1-particle RhoCI density.

 The electronic state is 1-A.
 Alpha  occ. eigenvalues --  -46.80993 -19.23588 -19.21267 -19.19139 -19.18400
 Alpha  occ. eigenvalues --  -19.18346 -19.16730 -19.14552 -14.39233 -14.36448
 Alpha  occ. eigenvalues --  -14.36314 -14.36113 -10.35995 -10.33545 -10.33029
 Alpha  occ. eigenvalues --  -10.31397 -10.29478 -10.28685 -10.27635 -10.27544
 Alpha  occ. eigenvalues --  -10.27427 -10.27127 -10.26885 -10.26800 -10.26161
 Alpha  occ. eigenvalues --  -10.25626 -10.25503 -10.25478 -10.24882 -10.24702
 Alpha  occ. eigenvalues --  -10.24664 -10.24381 -10.24213 -10.23937 -10.23927
 Alpha  occ. eigenvalues --  -10.23849 -10.23832 -10.23781 -10.23617 -10.22982
 Alpha  occ. eigenvalues --  -10.22855 -10.22750 -10.22679 -10.22660 -10.22610
 Alpha  occ. eigenvalues --  -10.22599 -10.22528 -10.22146 -10.21937 -10.21861
 Alpha  occ. eigenvalues --  -10.21628 -10.21506 -10.21265 -10.21263 -10.21161
 Alpha  occ. eigenvalues --  -10.21158 -10.21052 -10.20958 -10.20873 -10.20625
 Alpha  occ. eigenvalues --  -10.20603 -10.20185 -10.19647 -10.19053 -10.18219
 Alpha  occ. eigenvalues --  -10.17475  -3.09523  -1.84471  -1.83980  -1.83936
 Alpha  occ. eigenvalues --   -1.17008  -1.13099  -1.08646  -1.08131  -1.07661
 Alpha  occ. eigenvalues --   -1.05028  -1.02387  -1.00366  -0.99441  -0.99128
 Alpha  occ. eigenvalues --   -0.98106  -0.89664  -0.86485  -0.85924  -0.85445
 Alpha  occ. eigenvalues --   -0.84951  -0.84469  -0.84382  -0.83827  -0.83239
 Alpha  occ. eigenvalues --   -0.83167  -0.82586  -0.82211  -0.81270  -0.80375
 Alpha  occ. eigenvalues --   -0.79360  -0.78796  -0.77860  -0.77791  -0.76885
 Alpha  occ. eigenvalues --   -0.75780  -0.75187  -0.74770  -0.73375  -0.72105
 Alpha  occ. eigenvalues --   -0.71805  -0.71620  -0.71387  -0.70542  -0.70124
 Alpha  occ. eigenvalues --   -0.69290  -0.69175  -0.67627  -0.66796  -0.66112
 Alpha  occ. eigenvalues --   -0.65915  -0.64895  -0.64417  -0.62739  -0.62463
 Alpha  occ. eigenvalues --   -0.62197  -0.61932  -0.59852  -0.59766  -0.58492
 Alpha  occ. eigenvalues --   -0.58383  -0.58139  -0.58082  -0.57625  -0.56870
 Alpha  occ. eigenvalues --   -0.56843  -0.56257  -0.56043  -0.55697  -0.55423
 Alpha  occ. eigenvalues --   -0.54669  -0.54004  -0.53501  -0.53359  -0.52831
 Alpha  occ. eigenvalues --   -0.52719  -0.52578  -0.52099  -0.51638  -0.51048
 Alpha  occ. eigenvalues --   -0.50908  -0.50461  -0.49959  -0.49891  -0.49637
 Alpha  occ. eigenvalues --   -0.49188  -0.48954  -0.48834  -0.48689  -0.48479
 Alpha  occ. eigenvalues --   -0.48166  -0.47846  -0.47553  -0.47367  -0.47203
 Alpha  occ. eigenvalues --   -0.46902  -0.46769  -0.46422  -0.46278  -0.46184
 Alpha  occ. eigenvalues --   -0.46007  -0.45735  -0.45653  -0.45422  -0.44993
 Alpha  occ. eigenvalues --   -0.44666  -0.44501  -0.44401  -0.43757  -0.43676
 Alpha  occ. eigenvalues --   -0.43587  -0.43492  -0.43455  -0.43275  -0.43139
 Alpha  occ. eigenvalues --   -0.42946  -0.42829  -0.42574  -0.42191  -0.41922
 Alpha  occ. eigenvalues --   -0.41708  -0.41584  -0.41543  -0.41192  -0.40871
 Alpha  occ. eigenvalues --   -0.40761  -0.40469  -0.40458  -0.40207  -0.40086
 Alpha  occ. eigenvalues --   -0.39883  -0.39588  -0.39541  -0.39319  -0.39178
 Alpha  occ. eigenvalues --   -0.38911  -0.38648  -0.38522  -0.38424  -0.38192
 Alpha  occ. eigenvalues --   -0.38066  -0.37670  -0.37664  -0.37493  -0.36839
 Alpha  occ. eigenvalues --   -0.36386  -0.36303  -0.35940  -0.35784  -0.35609
 Alpha  occ. eigenvalues --   -0.35382  -0.34907  -0.34534  -0.34470  -0.34288
 Alpha  occ. eigenvalues --   -0.34044  -0.33802  -0.33706  -0.33578  -0.32761
 Alpha  occ. eigenvalues --   -0.32696  -0.32089  -0.31686  -0.31615  -0.31405
 Alpha  occ. eigenvalues --   -0.31240  -0.30648  -0.30367  -0.29449  -0.29267
 Alpha  occ. eigenvalues --   -0.28631  -0.28504  -0.28340  -0.28139  -0.27954
 Alpha  occ. eigenvalues --   -0.27348  -0.27293  -0.22863  -0.21290
 Alpha virt. eigenvalues --   -0.08876  -0.06315  -0.02140  -0.00553   0.00465
 Alpha virt. eigenvalues --    0.02035   0.02548   0.04098   0.04421   0.04714
 Alpha virt. eigenvalues --    0.05285   0.05714   0.07562   0.08836   0.09203

 Mulliken charges:
               1
     1  Mg   0.811815
     2  C    0.096154
     3  C   -0.154269
     4  C   -0.179855
     5  C   -0.173773
     6  N   -0.630782
     7  C    0.223656
     8  C   -0.146171
     9  C   -0.151590
    10  C    0.380941
    11  C   -0.312760
    12  C   -0.149460
    13  C   -0.252056
    14  C    0.581316
    15  O   -0.497797
    16  O   -0.458338
    17  N   -0.709514
    18  C    0.294180
    19  C   -0.020531
    20  C    0.024488
    21  C    0.309062
    22  C   -0.403618
    23  C    0.261196
    24  O   -0.433241
    25  N   -0.704819
    26  C    0.368683
    27  C   -0.061011
    28  C    0.080860
    29  C    0.248737
    30  C    0.260095
    31  C   -0.237461
    32  C   -0.303627
    33  N   -0.722200
    34  C    0.274537
    35  C   -0.006423
    36  C    0.039129
    37  C    0.266819
    38  C   -0.375135
    39  C    0.377745
    40  O   -0.439804
    41  C   -0.281913
    42  C    0.609587
    43  O   -0.448800
    44  O   -0.407384
    45  C   -0.092543
    46  C   -0.002035
    47  C   -0.130816
    48  C    0.147556
    49  C   -0.364173
    50  C   -0.238058
    51  C   -0.191563
    52  C   -0.177703
    53  C   -0.056576
    54  C   -0.312694
    55  C   -0.157572
    56  C   -0.185124
    57  C   -0.178942
    58  C   -0.048822
    59  C   -0.286929
    60  C   -0.163513
    61  C   -0.187134
    62  C   -0.166488
    63  C   -0.081406
    64  C   -0.305107
    65  C   -0.309563
    66  H    0.069345
    67  H    0.129914
    68  H    0.076778
    69  H    0.150181
    70  H    0.110304
    71  H    0.118306
    72  H    0.092225
    73  H    0.117870
    74  H    0.067141
    75  H    0.136475
    76  H    0.136367
    77  H    0.128856
    78  H    0.123345
    79  H    0.150247
    80  H    0.129437
    81  H    0.102004
    82  H    0.105762
    83  H    0.117261
    84  H    0.093034
    85  H    0.090725
    86  H    0.140029
    87  H    0.140024
    88  H    0.141199
    89  H    0.115533
    90  H    0.161262
    91  H    0.124392
    92  H    0.121743
    93  H    0.093912
    94  H    0.148965
    95  H    0.088818
    96  H    0.135969
    97  H    0.093467
    98  H    0.090618
    99  H    0.106653
   100  H    0.102086
   101  H    0.081754
   102  H    0.075841
   103  H    0.082320
   104  H    0.122040
   105  H    0.102232
   106  H    0.092151
   107  H    0.087761
   108  H    0.074337
   109  H    0.108032
   110  H    0.062718
   111  H    0.081870
   112  H    0.082643
   113  H    0.056321
   114  H    0.047864
   115  H    0.124194
   116  H    0.104806
   117  H    0.093568
   118  H    0.095033
   119  H    0.095841
   120  H    0.088871
   121  H    0.081867
   122  H    0.076525
   123  H    0.098618
   124  H    0.086073
   125  H    0.118628
   126  H    0.108781
   127  H    0.105279
   128  H    0.098162
   129  H    0.085986
   130  H    0.094138
   131  H    0.137125
   132  H    0.114423
   133  O   -0.422950
   134  H    0.049433
 Sum of Mulliken charges =   0.00000

 Dipole moment (field-independent basis, Debye):
    X=              1.9566    Y=             -5.6068    Z=             -1.5877  Tot=              6.1470
 Quadrupole moment (field-independent basis, Debye-Ang):
   XX=           -353.6330   YY=           -437.9501   ZZ=           -396.7412
   XY=              2.2228   XZ=             24.3727   YZ=            -37.6373

 Normal termination of Gaussian 09 at Sat Oct  5 06:15:55 2019.
