 Gaussian 09, Revision D.01,
 Gaussian 09:  ES64L-G09RevD.01 24-Apr-2013

 ----------------------------------------------------------------------
 # td=(NStates=1) iop(3/107=0140000000,3/108=0140000000) iop(3/107=0140
 000000,3/108=0140000000) CAM-B3LYP/6-31G(d,p)
 ----------------------------------------------------------------------

 --
 TD
 --
 Symbolic Z-matrix:
 Charge =  0 Multiplicity = 1

                         Standard orientation:
 ---------------------------------------------------------------------
 Center     Atomic      Atomic             Coordinates (Angstroms)
 Number     Number       Type             X           Y           Z
 ---------------------------------------------------------------------
      1         12           0       -5.624420    1.232505    0.278346
      2          6           0       -5.038529   -2.194642   -0.395240
      3          6           0       -3.545536    1.189027    2.857864
      4          6           0       -6.133952    4.570212    0.634032
      5          6           0       -7.942482    1.157678   -2.422364
      6          7           0       -4.495447   -0.306726    1.059456
      7          6           0       -4.284411   -1.588637    0.591599
      8          6           0       -3.237194   -2.264275    1.518912
      9          6           0       -2.990699   -1.309550    2.689224
     10          6           0       -3.636835   -0.040698    2.229649
     11          6           0       -3.636593   -1.818707    3.964808
     12          6           0       -2.028513   -2.653764    0.628951
     13          6           0       -1.005386   -3.452771    1.321292
     14          6           0        0.189998   -3.756884    0.494388
     15          8           0        0.400120   -3.287572   -0.616926
     16          8           0        1.011841   -4.659702    1.140384
     17          7           0       -4.837951    2.706128    1.407673
     18          6           0       -3.959555    2.473457    2.399766
     19          6           0       -3.643617    3.589010    3.152878
     20          6           0       -4.382021    4.642810    2.539829
     21          6           0       -5.156175    4.067858    1.489062
     22          6           0       -2.747576    3.806349    4.412977
     23          6           0       -4.589215    5.981134    3.031038
     24          8           0       -3.976422    6.504174    3.892841
     25          7           0       -6.773302    2.595657   -0.690718
     26          6           0       -6.842098    3.891552   -0.384037
     27          6           0       -7.794719    4.649273   -1.189621
     28          6           0       -8.337878    3.677112   -2.069198
     29          6           0       -7.749736    2.403441   -1.751975
     30          6           0       -8.159022    6.027984   -1.226600
     31          6           0       -9.343559    3.781566   -3.234203
     32          6           0       -8.638074    3.843193   -4.589427
     33          7           0       -6.409285   -0.097486   -1.076392
     34          6           0       -7.333381   -0.028202   -2.167968
     35          6           0       -7.518953   -1.313286   -2.807057
     36          6           0       -6.549809   -2.155485   -2.148131
     37          6           0       -5.968025   -1.364590   -1.082696
     38          6           0       -8.528286   -1.603549   -3.836991
     39          6           0       -6.194328   -3.496689   -1.990908
     40          8           0       -6.538296   -4.527871   -2.544042
     41          6           0       -4.984184   -3.553538   -0.815341
     42          6           0       -5.278252   -4.681943    0.179297
     43          8           0       -5.693361   -4.520012    1.373252
     44          8           0       -5.086421   -5.825913   -0.393022
     45          6           0       -5.383706   -7.005796    0.488081
     46          6           0        2.205139   -5.073862    0.477906
     47          6           0        3.340879   -4.033175    0.925759
     48          6           0        3.975096   -3.119305    0.234216
     49          6           0        3.725452   -2.945476   -1.284592
     50          6           0        5.102303   -2.312406    0.793903
     51          6           0        6.478459   -2.664568    0.082331
     52          6           0        7.528220   -1.742023    0.670049
     53          6           0        8.971757   -2.003551    0.138120
     54          6           0        9.450421   -3.428115    0.253851
     55          6           0        9.925976   -0.998417    0.725450
     56          6           0       11.261129   -0.870516   -0.136151
     57          6           0       12.244918    0.176282    0.289981
     58          6           0       13.491992    0.438835   -0.548929
     59          6           0       14.517142   -0.749246   -0.485203
     60          6           0       14.256693    1.772542   -0.273302
     61          6           0       15.564627    2.076242   -0.950298
     62          6           0       16.121144    3.382041   -0.529534
     63          6           0       17.254360    3.891754   -1.450765
     64          6           0       17.003623    3.929044   -2.960124
     65          6           0       17.987907    5.156246   -1.016864
     66          1           0       -2.727403    1.010921    3.624213
     67          1           0       -6.386970    5.560281    0.457262
     68          1           0       -8.754962    1.163941   -3.198913
     69          1           0       -3.613753   -3.291148    1.813824
     70          1           0       -1.855594   -1.087221    2.899508
     71          1           0       -3.217747   -2.700421    4.117924
     72          1           0       -3.622108   -0.957540    4.739929
     73          1           0       -4.745582   -2.113502    3.804843
     74          1           0       -2.280666   -3.172508   -0.273721
     75          1           0       -1.644513   -1.796678    0.229232
     76          1           0       -1.050505   -2.998111    2.175339
     77          1           0       -1.517460   -4.458355    1.622856
     78          1           0       -1.738043    3.335947    4.268055
     79          1           0       -2.676378    4.907996    4.729927
     80          1           0       -3.219207    3.334853    5.326094
     81          1           0       -5.475562    6.514119    2.491026
     82          1           0       -9.997635    2.979975   -3.202116
     83          1           0       -9.674632    4.758939   -3.133348
     84          1           0       -9.236987    4.032388   -5.239323
     85          1           0       -7.939191    4.501534   -4.734806
     86          1           0       -8.157329    2.855225   -4.876016
     87          1           0       -8.200143   -1.305289   -4.954195
     88          1           0       -8.489320   -2.730594   -4.082592
     89          1           0       -9.678601   -1.240088   -3.732428
     90          1           0       -4.093172   -3.888249   -1.461453
     91          1           0        2.473779   -6.111358    0.880842
     92          1           0        2.299684   -5.048866   -0.697578
     93          1           0        3.667871   -4.246173    2.059253
     94          1           0        2.584802   -3.397935   -1.522623
     95          1           0        3.965089   -1.928374   -1.621140
     96          1           0        4.289518   -3.392064   -2.050589
     97          1           0        5.115667   -1.315581    0.611796
     98          1           0        4.953801   -2.516164    1.828927
     99          1           0        6.562774   -3.899325    0.293639
    100          1           0        6.458187   -2.610565   -0.976357
    101          1           0        7.148304   -0.768912    0.585997
    102          1           0        7.798972   -1.964518    1.745040
    103          1           0        8.774009   -1.801727   -0.928990
    104          1           0        8.830341   -4.252909   -0.086214
    105          1           0       10.278944   -3.532258   -0.272890
    106          1           0        9.582088   -3.552074    1.311018
    107          1           0        9.441113   -0.076910    0.552280
    108          1           0       10.176401   -1.155816    1.893273
    109          1           0       11.834960   -1.853771   -0.034668
    110          1           0       10.915622   -0.858883   -1.405718
    111          1           0       11.721609    1.094661    0.378747
    112          1           0       12.761319    0.130455    1.190217
    113          1           0       13.171629    0.358418   -1.587375
    114          1           0       14.826203   -0.982235    0.557223
    115          1           0       14.013399   -1.660548   -0.656193
    116          1           0       15.274216   -0.806765   -1.426901
    117          1           0       13.649483    2.515737   -0.352263
    118          1           0       14.529740    1.467924    0.884548
    119          1           0       16.263407    1.312383   -0.715735
    120          1           0       15.373023    2.251202   -1.965083
    121          1           0       15.242509    4.211829   -0.528393
    122          1           0       16.459457    3.395952    0.504463
    123          1           0       17.993754    3.184199   -1.505623
    124          1           0       16.043942    4.363931   -3.138079
    125          1           0       17.899198    4.105708   -3.462277
    126          1           0       16.680013    2.957810   -3.458805
    127          1           0       18.438444    5.221064    0.031065
    128          1           0       18.650005    5.507618   -1.829241
    129          1           0       17.339815    6.017493   -0.696964
    130          1           0       -5.174203   -7.924507   -0.031297
    131          1           0       -6.347263   -7.081041    0.874986
    132          1           0       -4.701640   -6.614492    1.319276
    133          8           0       -7.788652    6.894600   -0.480072
    134          1           0       -9.001660    6.240414   -1.988488
 ---------------------------------------------------------------------

 SCF Done:  E(RCAM-B3LYP) =  -3043.42602458     A.U. after   16 cycles

 Excitation energies and oscillator strengths:

 Excited State   1:      Singlet-A      2.0236 eV  612.71 nm  f=0.1733  <S**2>=0.000
     243 -> 245       -0.16392
     243 -> 246        0.26887
     244 -> 245        0.61780
 This state for optimization and/or second-order correction.
 Total Energy, E(TD-HF/TD-KS) =  -3043.35166045
 Copying the excited state density for this state as the 1-particle RhoCI density.

 The electronic state is 1-A.
 Alpha  occ. eigenvalues --  -46.80664 -19.23747 -19.22983 -19.18119 -19.17266
 Alpha  occ. eigenvalues --  -19.16930 -19.16911 -19.16142 -14.38600 -14.37271
 Alpha  occ. eigenvalues --  -14.36977 -14.36917 -10.35988 -10.35070 -10.31130
 Alpha  occ. eigenvalues --  -10.30540 -10.29759 -10.29439 -10.27946 -10.27864
 Alpha  occ. eigenvalues --  -10.27476 -10.26977 -10.26697 -10.26672 -10.26527
 Alpha  occ. eigenvalues --  -10.26513 -10.26513 -10.26389 -10.25729 -10.25331
 Alpha  occ. eigenvalues --  -10.25151 -10.25070 -10.24721 -10.24538 -10.24039
 Alpha  occ. eigenvalues --  -10.23522 -10.23471 -10.23447 -10.23173 -10.23072
 Alpha  occ. eigenvalues --  -10.23048 -10.23032 -10.22965 -10.22727 -10.22699
 Alpha  occ. eigenvalues --  -10.22547 -10.22488 -10.22238 -10.22008 -10.21964
 Alpha  occ. eigenvalues --  -10.21255 -10.21193 -10.21129 -10.21120 -10.21007
 Alpha  occ. eigenvalues --  -10.20716 -10.20641 -10.20516 -10.20512 -10.20385
 Alpha  occ. eigenvalues --  -10.20213 -10.19685 -10.19620 -10.19253 -10.19148
 Alpha  occ. eigenvalues --  -10.18427  -3.09393  -1.84324  -1.83843  -1.83837
 Alpha  occ. eigenvalues --   -1.14271  -1.12939  -1.08698  -1.07944  -1.06535
 Alpha  occ. eigenvalues --   -1.05196  -1.01768  -1.00478  -0.99636  -0.98525
 Alpha  occ. eigenvalues --   -0.97065  -0.88896  -0.86875  -0.86141  -0.85969
 Alpha  occ. eigenvalues --   -0.85572  -0.84817  -0.84545  -0.83957  -0.83827
 Alpha  occ. eigenvalues --   -0.83428  -0.82662  -0.82361  -0.80363  -0.80160
 Alpha  occ. eigenvalues --   -0.79887  -0.78948  -0.78344  -0.77755  -0.76387
 Alpha  occ. eigenvalues --   -0.75370  -0.74983  -0.73574  -0.73372  -0.72226
 Alpha  occ. eigenvalues --   -0.71795  -0.71214  -0.70947  -0.70457  -0.70317
 Alpha  occ. eigenvalues --   -0.69945  -0.69492  -0.68293  -0.67665  -0.66667
 Alpha  occ. eigenvalues --   -0.65955  -0.65008  -0.64211  -0.62881  -0.62407
 Alpha  occ. eigenvalues --   -0.61506  -0.61107  -0.60631  -0.60276  -0.58967
 Alpha  occ. eigenvalues --   -0.58887  -0.58409  -0.57935  -0.57866  -0.57010
 Alpha  occ. eigenvalues --   -0.55941  -0.55808  -0.54912  -0.54820  -0.54628
 Alpha  occ. eigenvalues --   -0.54420  -0.53396  -0.53231  -0.52590  -0.52422
 Alpha  occ. eigenvalues --   -0.52295  -0.52104  -0.51927  -0.51742  -0.51147
 Alpha  occ. eigenvalues --   -0.50943  -0.50620  -0.50070  -0.49997  -0.49039
 Alpha  occ. eigenvalues --   -0.48871  -0.48742  -0.48436  -0.48157  -0.47777
 Alpha  occ. eigenvalues --   -0.47682  -0.47498  -0.47325  -0.47176  -0.46981
 Alpha  occ. eigenvalues --   -0.46951  -0.46705  -0.46210  -0.46092  -0.45860
 Alpha  occ. eigenvalues --   -0.45629  -0.45427  -0.45239  -0.45165  -0.44767
 Alpha  occ. eigenvalues --   -0.44617  -0.44386  -0.44283  -0.43951  -0.43766
 Alpha  occ. eigenvalues --   -0.43596  -0.43399  -0.43138  -0.42732  -0.42644
 Alpha  occ. eigenvalues --   -0.42508  -0.42438  -0.42176  -0.42112  -0.41771
 Alpha  occ. eigenvalues --   -0.41744  -0.41610  -0.41436  -0.41304  -0.41165
 Alpha  occ. eigenvalues --   -0.41154  -0.40929  -0.40638  -0.40395  -0.40136
 Alpha  occ. eigenvalues --   -0.39885  -0.39713  -0.39537  -0.39366  -0.39260
 Alpha  occ. eigenvalues --   -0.38945  -0.38929  -0.38619  -0.38428  -0.38238
 Alpha  occ. eigenvalues --   -0.37969  -0.37879  -0.37707  -0.37631  -0.37096
 Alpha  occ. eigenvalues --   -0.36713  -0.36695  -0.35866  -0.35789  -0.35572
 Alpha  occ. eigenvalues --   -0.35508  -0.35194  -0.35142  -0.35046  -0.34775
 Alpha  occ. eigenvalues --   -0.34500  -0.34409  -0.33785  -0.33441  -0.33027
 Alpha  occ. eigenvalues --   -0.32182  -0.32033  -0.31911  -0.31666  -0.31420
 Alpha  occ. eigenvalues --   -0.31276  -0.30964  -0.30796  -0.30302  -0.29453
 Alpha  occ. eigenvalues --   -0.28849  -0.28280  -0.28048  -0.27872  -0.27392
 Alpha  occ. eigenvalues --   -0.27044  -0.27026  -0.23096  -0.22431
 Alpha virt. eigenvalues --   -0.09390  -0.07009  -0.01259  -0.00253   0.00892
 Alpha virt. eigenvalues --    0.02282   0.02866   0.03662   0.04383   0.04851
 Alpha virt. eigenvalues --    0.04997   0.06122   0.07631   0.08525   0.09495

 Mulliken charges:
               1
     1  Mg   0.812404
     2  C    0.125911
     3  C   -0.176660
     4  C   -0.145195
     5  C   -0.186155
     6  N   -0.657257
     7  C    0.332035
     8  C   -0.182817
     9  C   -0.149417
    10  C    0.298572
    11  C   -0.289184
    12  C   -0.186779
    13  C   -0.251985
    14  C    0.626219
    15  O   -0.456216
    16  O   -0.454016
    17  N   -0.705475
    18  C    0.320595
    19  C    0.060974
    20  C   -0.034665
    21  C    0.297367
    22  C   -0.389494
    23  C    0.241437
    24  O   -0.399150
    25  N   -0.694326
    26  C    0.327156
    27  C   -0.009892
    28  C    0.002544
    29  C    0.256835
    30  C    0.232213
    31  C   -0.226861
    32  C   -0.300432
    33  N   -0.738961
    34  C    0.276697
    35  C    0.113083
    36  C    0.009432
    37  C    0.358963
    38  C   -0.417567
    39  C    0.322224
    40  O   -0.461038
    41  C   -0.355039
    42  C    0.624813
    43  O   -0.532384
    44  O   -0.417459
    45  C   -0.091318
    46  C   -0.004965
    47  C   -0.156925
    48  C    0.165885
    49  C   -0.389294
    50  C   -0.216699
    51  C   -0.176152
    52  C   -0.165561
    53  C   -0.082356
    54  C   -0.299058
    55  C   -0.160127
    56  C   -0.166562
    57  C   -0.160831
    58  C   -0.082799
    59  C   -0.325805
    60  C   -0.134193
    61  C   -0.155142
    62  C   -0.176892
    63  C   -0.035746
    64  C   -0.330819
    65  C   -0.317942
    66  H    0.085679
    67  H    0.121986
    68  H    0.092370
    69  H    0.118045
    70  H    0.103800
    71  H    0.122668
    72  H    0.105151
    73  H    0.127237
    74  H    0.112163
    75  H    0.126960
    76  H    0.135925
    77  H    0.115392
    78  H    0.117880
    79  H    0.164527
    80  H    0.122190
    81  H    0.062336
    82  H    0.120784
    83  H    0.112523
    84  H    0.118554
    85  H    0.122997
    86  H    0.091231
    87  H    0.122939
    88  H    0.150248
    89  H    0.126329
    90  H    0.154265
    91  H    0.116315
    92  H    0.118411
    93  H    0.065704
    94  H    0.117721
    95  H    0.100032
    96  H    0.121217
    97  H    0.104719
    98  H    0.099345
    99  H    0.066966
   100  H    0.106486
   101  H    0.096673
   102  H    0.084241
   103  H    0.074231
   104  H    0.099732
   105  H    0.116221
   106  H    0.095912
   107  H    0.103412
   108  H    0.078202
   109  H    0.091390
   110  H    0.051303
   111  H    0.090198
   112  H    0.096808
   113  H    0.073415
   114  H    0.093038
   115  H    0.103922
   116  H    0.091067
   117  H    0.088252
   118  H    0.046209
   119  H    0.105742
   120  H    0.096951
   121  H    0.056101
   122  H    0.093493
   123  H    0.102827
   124  H    0.107848
   125  H    0.109968
   126  H    0.087286
   127  H    0.090355
   128  H    0.098905
   129  H    0.090762
   130  H    0.135655
   131  H    0.155369
   132  H    0.132213
   133  O   -0.418453
   134  H    0.051906
 Sum of Mulliken charges =   0.00000

 Dipole moment (field-independent basis, Debye):
    X=              0.7520    Y=             -5.2011    Z=             -2.0896  Tot=              5.6554
 Quadrupole moment (field-independent basis, Debye-Ang):
   XX=           -374.6720   YY=           -434.4531   ZZ=           -388.4120
   XY=              7.4785   XZ=             26.0908   YZ=            -30.4844

 Normal termination of Gaussian 09 at Thu Oct  3 11:55:52 2019.
