 Gaussian 09, Revision D.01,
 Gaussian 09:  ES64L-G09RevD.01 24-Apr-2013

 ----------------------------------------------------------------------
 # td=(NStates=1) iop(3/107=0140000000,3/108=0140000000) iop(3/107=0140
 000000,3/108=0140000000) CAM-B3LYP/6-31G(d,p)
 ----------------------------------------------------------------------

 --
 TD
 --
 Symbolic Z-matrix:
 Charge =  0 Multiplicity = 1

                         Standard orientation:
 ---------------------------------------------------------------------
 Center     Atomic      Atomic             Coordinates (Angstroms)
 Number     Number       Type             X           Y           Z
 ---------------------------------------------------------------------
      1         12           0       -5.607164    1.274590    0.183719
      2          6           0       -5.035935   -2.210594   -0.316212
      3          6           0       -3.319338    1.118961    2.770027
      4          6           0       -6.146296    4.575832    0.719170
      5          6           0       -7.998848    1.207201   -2.351699
      6          7           0       -4.397035   -0.284050    1.022749
      7          6           0       -4.273411   -1.572772    0.637836
      8          6           0       -3.354501   -2.321713    1.486836
      9          6           0       -3.013047   -1.355183    2.637841
     10          6           0       -3.670675   -0.093524    2.081720
     11          6           0       -3.530290   -1.811621    4.012289
     12          6           0       -2.048560   -2.554057    0.619306
     13          6           0       -1.046672   -3.468692    1.349849
     14          6           0        0.216603   -3.770312    0.663236
     15          8           0        0.411620   -3.344616   -0.436999
     16          8           0        0.990008   -4.598686    1.343221
     17          7           0       -4.865866    2.663559    1.565277
     18          6           0       -3.966426    2.409256    2.478094
     19          6           0       -3.722221    3.653932    3.281205
     20          6           0       -4.428330    4.594635    2.707997
     21          6           0       -5.213219    3.957892    1.630759
     22          6           0       -2.686435    3.751294    4.369074
     23          6           0       -4.556710    6.057679    2.909413
     24          8           0       -3.880205    6.668192    3.814184
     25          7           0       -6.844260    2.720816   -0.604249
     26          6           0       -6.916456    3.975297   -0.268725
     27          6           0       -7.910998    4.642895   -1.133139
     28          6           0       -8.366254    3.666692   -1.973030
     29          6           0       -7.763226    2.465240   -1.684494
     30          6           0       -8.245938    6.032445   -1.290598
     31          6           0       -9.339685    3.855813   -3.271314
     32          6           0       -8.666126    4.006209   -4.625056
     33          7           0       -6.362929   -0.092816   -0.996487
     34          6           0       -7.389137    0.017952   -1.955340
     35          6           0       -7.642111   -1.314664   -2.664442
     36          6           0       -6.709047   -2.143290   -1.983151
     37          6           0       -6.006029   -1.419469   -1.035433
     38          6           0       -8.494902   -1.496755   -3.745949
     39          6           0       -6.301148   -3.599873   -1.935261
     40          8           0       -6.556863   -4.550550   -2.493663
     41          6           0       -5.047209   -3.627525   -0.897538
     42          6           0       -5.357525   -4.750362    0.000776
     43          8           0       -5.890916   -4.629016    1.086181
     44          8           0       -5.007555   -5.851076   -0.475177
     45          6           0       -5.418511   -6.976213    0.233316
     46          6           0        2.304350   -5.061338    0.673581
     47          6           0        3.394112   -4.099122    1.048001
     48          6           0        4.042538   -3.277300    0.158838
     49          6           0        3.700990   -3.199990   -1.356957
     50          6           0        5.180219   -2.469512    0.580984
     51          6           0        6.464803   -2.850270    0.013267
     52          6           0        7.601297   -1.971492    0.612088
     53          6           0        9.113012   -2.084396    0.043738
     54          6           0        9.573744   -3.491690    0.240987
     55          6           0       10.011146   -0.952472    0.430083
     56          6           0       11.429761   -0.924997   -0.378619
     57          6           0       12.279594    0.259534    0.054497
     58          6           0       13.608258    0.390390   -0.541100
     59          6           0       14.437142   -0.798096   -0.317999
     60          6           0       14.238229    1.652826   -0.160974
     61          6           0       15.376956    2.206270   -1.011800
     62          6           0       15.890878    3.552915   -0.633334
     63          6           0       17.240269    4.005471   -1.450530
     64          6           0       16.951577    4.239416   -2.937449
     65          6           0       17.928014    5.248174   -0.613922
     66          1           0       -2.573679    1.086153    3.498533
     67          1           0       -6.134792    5.587596    0.627160
     68          1           0       -8.795949    0.962350   -2.925085
     69          1           0       -3.605588   -3.276279    1.850492
     70          1           0       -1.790714   -1.208986    2.759242
     71          1           0       -3.074322   -2.768894    4.156864
     72          1           0       -3.241938   -1.108963    4.723804
     73          1           0       -4.788224   -1.921059    3.953457
     74          1           0       -2.188358   -2.936153   -0.419095
     75          1           0       -1.598968   -1.507396    0.453131
     76          1           0       -0.719969   -3.080917    2.282739
     77          1           0       -1.625532   -4.370725    1.617908
     78          1           0       -1.840799    3.603656    4.266768
     79          1           0       -2.736431    4.825584    4.845431
     80          1           0       -2.833642    2.968033    5.230711
     81          1           0       -5.226797    6.601687    2.266156
     82          1           0       -9.916176    3.176661   -3.351028
     83          1           0       -9.980382    4.838629   -3.010505
     84          1           0       -9.538134    4.177724   -5.395700
     85          1           0       -7.954630    4.830955   -4.533833
     86          1           0       -8.183302    3.022533   -4.964920
     87          1           0       -8.168005   -0.869372   -4.550344
     88          1           0       -8.510057   -2.561932   -4.084769
     89          1           0       -9.557623   -1.228219   -3.762807
     90          1           0       -4.135942   -3.616425   -1.428946
     91          1           0        2.590086   -6.112637    0.909720
     92          1           0        2.049680   -4.979630   -0.449094
     93          1           0        3.704903   -4.201428    2.045447
     94          1           0        2.611083   -3.403105   -1.688755
     95          1           0        3.964089   -2.236901   -1.814457
     96          1           0        4.395706   -3.997108   -1.943012
     97          1           0        4.997249   -1.333108    0.477102
     98          1           0        5.390173   -2.612487    1.578402
     99          1           0        6.795970   -3.770778    0.322109
    100          1           0        6.473945   -2.837525   -1.103690
    101          1           0        7.299338   -1.028669    0.495099
    102          1           0        7.535243   -2.217016    1.694397
    103          1           0        8.819046   -1.874130   -1.073518
    104          1           0        8.923568   -4.387149   -0.192963
    105          1           0       10.551934   -3.532319   -0.251482
    106          1           0        9.835799   -3.691692    1.371981
    107          1           0        9.789849    0.131430    0.048050
    108          1           0       10.394057   -0.721879    1.298609
    109          1           0       11.890091   -1.949403   -0.131264
    110          1           0       11.213428   -0.901763   -1.455582
    111          1           0       11.869973    1.188718   -0.255666
    112          1           0       12.303074    0.269239    1.240427
    113          1           0       13.554192    0.525290   -1.623648
    114          1           0       14.641465   -1.284949    0.752991
    115          1           0       13.929022   -1.679202   -0.627112
    116          1           0       15.405547   -0.691309   -0.712543
    117          1           0       13.491753    2.338894   -0.166517
    118          1           0       14.476558    1.656343    0.890245
    119          1           0       16.287639    1.448753   -1.060360
    120          1           0       14.952831    2.186397   -2.039977
    121          1           0       15.172914    4.316931   -0.683850
    122          1           0       16.142860    3.568411    0.349517
    123          1           0       18.170912    3.175388   -1.376770
    124          1           0       16.287582    4.974007   -3.189480
    125          1           0       17.750055    4.472917   -3.714810
    126          1           0       16.511529    3.173997   -3.325573
    127          1           0       18.087607    4.922720    0.377504
    128          1           0       18.946409    5.230518   -1.115113
    129          1           0       17.360926    6.061015   -0.848533
    130          1           0       -4.969733   -7.851334   -0.184422
    131          1           0       -6.586014   -7.372953    0.185649
    132          1           0       -4.948313   -6.983052    1.323352
    133          8           0       -7.594783    6.900082   -0.681092
    134          1           0       -8.927568    6.420468   -2.271122
 ---------------------------------------------------------------------

 SCF Done:  E(RCAM-B3LYP) =  -3043.40253834     A.U. after   15 cycles

 Excitation energies and oscillator strengths:

 Excited State   1:      Singlet-A      2.0605 eV  601.71 nm  f=0.1388  <S**2>=0.000
     243 -> 246        0.30695
     244 -> 245        0.62427
 This state for optimization and/or second-order correction.
 Total Energy, E(TD-HF/TD-KS) =  -3043.32681535
 Copying the excited state density for this state as the 1-particle RhoCI density.

 The electronic state is 1-A.
 Alpha  occ. eigenvalues --  -46.81505 -19.24403 -19.21945 -19.18942 -19.16943
 Alpha  occ. eigenvalues --  -19.16067 -19.16005 -19.15357 -14.38889 -14.36970
 Alpha  occ. eigenvalues --  -14.36943 -14.36617 -10.34112 -10.33859 -10.32277
 Alpha  occ. eigenvalues --  -10.30503 -10.30498 -10.29131 -10.28865 -10.27497
 Alpha  occ. eigenvalues --  -10.27019 -10.26720 -10.26645 -10.26357 -10.26038
 Alpha  occ. eigenvalues --  -10.25998 -10.25851 -10.25683 -10.24750 -10.24240
 Alpha  occ. eigenvalues --  -10.24239 -10.24135 -10.24076 -10.23788 -10.23637
 Alpha  occ. eigenvalues --  -10.23537 -10.23463 -10.23352 -10.23023 -10.22932
 Alpha  occ. eigenvalues --  -10.22891 -10.22887 -10.22854 -10.22842 -10.22825
 Alpha  occ. eigenvalues --  -10.22773 -10.22679 -10.22544 -10.22430 -10.22288
 Alpha  occ. eigenvalues --  -10.22066 -10.21763 -10.21657 -10.21309 -10.21023
 Alpha  occ. eigenvalues --  -10.21010 -10.20961 -10.20894 -10.20692 -10.20257
 Alpha  occ. eigenvalues --  -10.20185 -10.19954 -10.19877 -10.19815 -10.19073
 Alpha  occ. eigenvalues --  -10.18697  -3.10129  -1.85068  -1.84588  -1.84550
 Alpha  occ. eigenvalues --   -1.18789  -1.13528  -1.12854  -1.04566  -1.04547
 Alpha  occ. eigenvalues --   -1.04395  -1.03057  -1.02558  -1.01571  -0.99782
 Alpha  occ. eigenvalues --   -0.98615  -0.88261  -0.87524  -0.87049  -0.85808
 Alpha  occ. eigenvalues --   -0.85313  -0.84722  -0.84209  -0.84091  -0.83289
 Alpha  occ. eigenvalues --   -0.82639  -0.82563  -0.81813  -0.81218  -0.80299
 Alpha  occ. eigenvalues --   -0.79237  -0.78794  -0.78517  -0.77813  -0.76689
 Alpha  occ. eigenvalues --   -0.75879  -0.75555  -0.74531  -0.73564  -0.72969
 Alpha  occ. eigenvalues --   -0.71930  -0.71285  -0.71020  -0.70727  -0.69580
 Alpha  occ. eigenvalues --   -0.69128  -0.68797  -0.67477  -0.66385  -0.65889
 Alpha  occ. eigenvalues --   -0.65479  -0.64991  -0.63338  -0.62866  -0.62293
 Alpha  occ. eigenvalues --   -0.61697  -0.61151  -0.60813  -0.59600  -0.59461
 Alpha  occ. eigenvalues --   -0.58927  -0.58506  -0.58118  -0.57866  -0.57375
 Alpha  occ. eigenvalues --   -0.57032  -0.56733  -0.56507  -0.56120  -0.55501
 Alpha  occ. eigenvalues --   -0.54877  -0.53952  -0.53290  -0.52847  -0.52641
 Alpha  occ. eigenvalues --   -0.52466  -0.52148  -0.51749  -0.51484  -0.51094
 Alpha  occ. eigenvalues --   -0.50879  -0.50080  -0.50044  -0.49810  -0.49602
 Alpha  occ. eigenvalues --   -0.49310  -0.48933  -0.48552  -0.48123  -0.48002
 Alpha  occ. eigenvalues --   -0.47873  -0.47789  -0.47581  -0.47485  -0.47048
 Alpha  occ. eigenvalues --   -0.46905  -0.46722  -0.46271  -0.46003  -0.45835
 Alpha  occ. eigenvalues --   -0.45805  -0.45581  -0.45413  -0.45278  -0.44813
 Alpha  occ. eigenvalues --   -0.44755  -0.44564  -0.44310  -0.44052  -0.43896
 Alpha  occ. eigenvalues --   -0.43677  -0.43525  -0.43456  -0.43065  -0.42937
 Alpha  occ. eigenvalues --   -0.42867  -0.42753  -0.42347  -0.42257  -0.42135
 Alpha  occ. eigenvalues --   -0.41773  -0.41612  -0.41369  -0.41011  -0.40748
 Alpha  occ. eigenvalues --   -0.40516  -0.40491  -0.40428  -0.40338  -0.40215
 Alpha  occ. eigenvalues --   -0.39983  -0.39872  -0.39608  -0.39435  -0.39243
 Alpha  occ. eigenvalues --   -0.39092  -0.38676  -0.38663  -0.38255  -0.38212
 Alpha  occ. eigenvalues --   -0.38076  -0.37955  -0.37589  -0.37383  -0.36985
 Alpha  occ. eigenvalues --   -0.36895  -0.36591  -0.36384  -0.36237  -0.35825
 Alpha  occ. eigenvalues --   -0.35797  -0.35353  -0.34788  -0.34782  -0.34617
 Alpha  occ. eigenvalues --   -0.34588  -0.33938  -0.33844  -0.33750  -0.33517
 Alpha  occ. eigenvalues --   -0.33126  -0.32967  -0.32325  -0.31731  -0.31002
 Alpha  occ. eigenvalues --   -0.30948  -0.30323  -0.30090  -0.30004  -0.29864
 Alpha  occ. eigenvalues --   -0.28857  -0.28379  -0.27975  -0.27705  -0.27535
 Alpha  occ. eigenvalues --   -0.27343  -0.26858  -0.22649  -0.21371
 Alpha virt. eigenvalues --   -0.07995  -0.06563  -0.01605  -0.00604   0.01205
 Alpha virt. eigenvalues --    0.02374   0.03504   0.04184   0.04657   0.04821
 Alpha virt. eigenvalues --    0.05429   0.05938   0.08112   0.08611   0.09301

 Mulliken charges:
               1
     1  Mg   0.836368
     2  C    0.080725
     3  C   -0.173989
     4  C   -0.151918
     5  C   -0.125248
     6  N   -0.623771
     7  C    0.303998
     8  C   -0.159736
     9  C   -0.152725
    10  C    0.357267
    11  C   -0.284827
    12  C   -0.181880
    13  C   -0.266191
    14  C    0.611024
    15  O   -0.470663
    16  O   -0.479928
    17  N   -0.677407
    18  C    0.308601
    19  C    0.012379
    20  C    0.025698
    21  C    0.271337
    22  C   -0.362760
    23  C    0.240042
    24  O   -0.441230
    25  N   -0.709088
    26  C    0.338829
    27  C   -0.015739
    28  C    0.009018
    29  C    0.250476
    30  C    0.201510
    31  C   -0.179744
    32  C   -0.303226
    33  N   -0.744732
    34  C    0.227165
    35  C    0.089439
    36  C   -0.027966
    37  C    0.311835
    38  C   -0.444596
    39  C    0.373357
    40  O   -0.380850
    41  C   -0.338214
    42  C    0.615342
    43  O   -0.505608
    44  O   -0.360297
    45  C   -0.097248
    46  C   -0.021476
    47  C   -0.129849
    48  C    0.162942
    49  C   -0.383414
    50  C   -0.224060
    51  C   -0.182537
    52  C   -0.183596
    53  C   -0.038986
    54  C   -0.311179
    55  C   -0.173406
    56  C   -0.207515
    57  C   -0.169013
    58  C   -0.042959
    59  C   -0.305032
    60  C   -0.170872
    61  C   -0.173528
    62  C   -0.164051
    63  C   -0.062214
    64  C   -0.307509
    65  C   -0.319457
    66  H    0.080696
    67  H    0.114424
    68  H    0.088046
    69  H    0.119030
    70  H    0.085318
    71  H    0.118741
    72  H    0.120173
    73  H    0.097090
    74  H    0.114939
    75  H    0.105605
    76  H    0.129851
    77  H    0.127561
    78  H    0.133166
    79  H    0.144633
    80  H    0.090012
    81  H    0.113972
    82  H    0.104111
    83  H    0.083551
    84  H    0.098762
    85  H    0.123099
    86  H    0.100811
    87  H    0.147360
    88  H    0.143728
    89  H    0.140021
    90  H    0.161269
    91  H    0.127237
    92  H    0.130497
    93  H    0.089095
    94  H    0.146373
    95  H    0.116608
    96  H    0.098460
    97  H    0.095258
    98  H    0.102375
    99  H    0.108138
   100  H    0.083707
   101  H    0.094513
   102  H    0.076025
   103  H    0.077878
   104  H    0.101680
   105  H    0.106256
   106  H    0.091574
   107  H    0.083795
   108  H    0.103742
   109  H    0.087220
   110  H    0.094241
   111  H    0.092020
   112  H    0.074674
   113  H    0.082314
   114  H    0.067147
   115  H    0.104317
   116  H    0.101812
   117  H    0.086476
   118  H    0.083376
   119  H    0.075940
   120  H    0.086108
   121  H    0.094873
   122  H    0.100021
   123  H    0.052870
   124  H    0.114226
   125  H    0.094087
   126  H    0.084021
   127  H    0.114182
   128  H    0.096209
   129  H    0.115898
   130  H    0.125452
   131  H    0.116456
   132  H    0.117284
   133  O   -0.431550
   134  H    0.054029
 Sum of Mulliken charges =   0.00000

 Dipole moment (field-independent basis, Debye):
    X=              2.7756    Y=             -6.9643    Z=             -2.4591  Tot=              7.8901
 Quadrupole moment (field-independent basis, Debye-Ang):
   XX=           -380.2711   YY=           -437.6729   ZZ=           -392.4230
   XY=             24.6262   XZ=             32.0388   YZ=            -26.9655

 Normal termination of Gaussian 09 at Tue Oct  8 13:31:35 2019.
