 Gaussian 09, Revision D.01,
 Gaussian 09:  ES64L-G09RevD.01 24-Apr-2013

 ----------------------------------------------------------------------
 # td=(NStates=1) iop(3/107=0140000000,3/108=0140000000) iop(3/107=0140
 000000,3/108=0140000000) CAM-B3LYP/6-31G(d,p)
 ----------------------------------------------------------------------

 --
 TD
 --
 Symbolic Z-matrix:
 Charge =  0 Multiplicity = 1

                         Standard orientation:
 ---------------------------------------------------------------------
 Center     Atomic      Atomic             Coordinates (Angstroms)
 Number     Number       Type             X           Y           Z
 ---------------------------------------------------------------------
      1         12           0       -5.746575    1.225475    0.205698
      2          6           0       -4.977202   -2.124530   -0.405940
      3          6           0       -3.321201    1.304314    2.566356
      4          6           0       -6.302008    4.576355    0.597340
      5          6           0       -8.054228    1.096684   -2.360545
      6          7           0       -4.455230   -0.358603    1.090098
      7          6           0       -4.247359   -1.656641    0.698094
      8          6           0       -3.177978   -2.299309    1.495025
      9          6           0       -2.984969   -1.271754    2.587878
     10          6           0       -3.565714   -0.082970    2.104468
     11          6           0       -3.377509   -1.746782    4.012514
     12          6           0       -1.949802   -2.639280    0.647726
     13          6           0       -0.932921   -3.530828    1.385854
     14          6           0        0.248486   -3.929988    0.573371
     15          8           0        0.367573   -3.552690   -0.544511
     16          8           0        1.066492   -4.705481    1.292756
     17          7           0       -4.978456    2.651491    1.412432
     18          6           0       -3.988082    2.447057    2.296637
     19          6           0       -3.667211    3.689135    3.012693
     20          6           0       -4.624005    4.653802    2.515872
     21          6           0       -5.397595    4.017383    1.407107
     22          6           0       -2.719919    3.870057    4.152174
     23          6           0       -4.742226    6.075876    2.898855
     24          8           0       -4.014647    6.604687    3.787686
     25          7           0       -7.031113    2.597745   -0.659732
     26          6           0       -7.091750    3.927141   -0.297993
     27          6           0       -8.060793    4.544693   -1.158198
     28          6           0       -8.639728    3.586746   -2.021988
     29          6           0       -7.919581    2.398076   -1.662155
     30          6           0       -8.374717    5.914498   -1.120286
     31          6           0       -9.526196    3.698607   -3.179569
     32          6           0       -8.865862    3.875205   -4.570709
     33          7           0       -6.398243   -0.103839   -1.042272
     34          6           0       -7.344914   -0.116469   -2.035235
     35          6           0       -7.582292   -1.365642   -2.689281
     36          6           0       -6.654065   -2.196218   -1.961321
     37          6           0       -5.998301   -1.334964   -1.093054
     38          6           0       -8.722739   -1.614383   -3.677848
     39          6           0       -6.125547   -3.566422   -2.012000
     40          8           0       -6.505911   -4.532654   -2.716411
     41          6           0       -4.931546   -3.511606   -0.873112
     42          6           0       -5.243527   -4.646470    0.169601
     43          8           0       -5.472676   -4.348700    1.315610
     44          8           0       -5.099322   -5.840769   -0.299281
     45          6           0       -5.364928   -6.850016    0.763088
     46          6           0        2.327649   -5.044001    0.611890
     47          6           0        3.411515   -4.176479    0.901982
     48          6           0        4.104082   -3.397837    0.065205
     49          6           0        3.759783   -3.233997   -1.400027
     50          6           0        5.290374   -2.476648    0.631111
     51          6           0        6.602602   -2.753652   -0.148011
     52          6           0        7.809684   -2.031044    0.670525
     53          6           0        9.111765   -2.133316   -0.011169
     54          6           0        9.816183   -3.471760    0.193830
     55          6           0       10.065805   -1.018110    0.550985
     56          6           0       11.344798   -0.806566   -0.189500
     57          6           0       12.299067    0.418027    0.155879
     58          6           0       13.595085    0.582111   -0.657941
     59          6           0       14.490675   -0.655322   -0.309991
     60          6           0       14.264725    1.942367   -0.351118
     61          6           0       15.487620    2.255085   -1.137329
     62          6           0       16.011307    3.551935   -0.582734
     63          6           0       17.330838    4.085225   -1.239696
     64          6           0       17.217661    3.972637   -2.742614
     65          6           0       17.829017    5.465806   -0.804695
     66          1           0       -2.730948    0.972779    3.548162
     67          1           0       -6.670544    5.498112    0.618101
     68          1           0       -8.933526    1.113634   -2.904924
     69          1           0       -3.620268   -3.314637    2.001623
     70          1           0       -1.900652   -1.083399    2.861125
     71          1           0       -3.046406   -2.651003    4.331309
     72          1           0       -3.190407   -0.877110    4.839913
     73          1           0       -4.569550   -1.847464    3.855883
     74          1           0       -2.312053   -3.143716   -0.137632
     75          1           0       -1.462043   -1.838160    0.354574
     76          1           0       -0.388274   -3.047634    2.335943
     77          1           0       -1.341048   -4.374513    1.809083
     78          1           0       -1.632131    3.622211    3.822616
     79          1           0       -2.561148    4.988978    4.582076
     80          1           0       -2.878527    2.915763    4.943361
     81          1           0       -5.434665    6.659092    2.443859
     82          1           0      -10.321014    2.696325   -3.168754
     83          1           0      -10.181266    4.601786   -3.001440
     84          1           0       -9.574494    4.066336   -5.256436
     85          1           0       -8.025612    4.625459   -4.684024
     86          1           0       -8.489131    3.072147   -4.932266
     87          1           0       -8.506985   -0.861075   -4.640338
     88          1           0       -9.129540   -2.668437   -3.838583
     89          1           0       -9.619340   -1.056344   -3.227561
     90          1           0       -3.977476   -3.918241   -1.367820
     91          1           0        2.641024   -6.036146    1.013901
     92          1           0        2.263001   -5.094747   -0.498366
     93          1           0        3.658214   -4.003524    1.916969
     94          1           0        2.905173   -3.810283   -1.719386
     95          1           0        3.655691   -2.058867   -1.544989
     96          1           0        4.505118   -3.784438   -2.125733
     97          1           0        5.012610   -1.379037    0.529953
     98          1           0        5.578780   -2.685491    1.628497
     99          1           0        6.786577   -3.882546   -0.152737
    100          1           0        6.801675   -2.304642   -1.265359
    101          1           0        7.475903   -1.001572    0.634719
    102          1           0        7.849565   -2.330777    1.853898
    103          1           0        9.157844   -1.860904   -1.236191
    104          1           0        9.230714   -4.210490   -0.232353
    105          1           0       10.880042   -3.345949   -0.265472
    106          1           0       10.056923   -3.545509    1.244330
    107          1           0        9.583243   -0.051789    0.500127
    108          1           0       10.099439   -1.138080    1.642797
    109          1           0       12.209512   -1.603439   -0.151935
    110          1           0       11.244071   -0.738382   -1.153471
    111          1           0       11.748709    1.397637    0.145882
    112          1           0       12.539715    0.076509    1.240738
    113          1           0       13.405601    0.400679   -1.844061
    114          1           0       14.561002   -0.860415    0.809538
    115          1           0       14.111183   -1.605064   -0.804959
    116          1           0       15.470471   -0.708591   -0.728761
    117          1           0       13.579256    2.777769   -0.456548
    118          1           0       14.792663    1.705227    0.696279
    119          1           0       16.315795    1.453184   -1.206183
    120          1           0       14.937123    2.013145   -2.174471
    121          1           0       15.246310    4.306590   -0.764366
    122          1           0       15.977989    3.724660    0.490654
    123          1           0       17.989541    3.188099   -0.974032
    124          1           0       16.261905    4.605754   -2.920888
    125          1           0       18.054386    4.335329   -3.278806
    126          1           0       17.169648    2.865350   -3.026940
    127          1           0       18.016843    5.552283    0.427334
    128          1           0       18.685782    5.654556   -1.201590
    129          1           0       17.278008    6.270234   -1.170711
    130          1           0       -5.079911   -7.682575    0.140640
    131          1           0       -6.452586   -6.971756    1.162787
    132          1           0       -4.586642   -6.662402    1.602441
    133          8           0       -7.911991    6.761124   -0.368914
    134          1           0       -9.210646    5.987235   -1.610581
 ---------------------------------------------------------------------

 SCF Done:  E(RCAM-B3LYP) =  -3043.39327380     A.U. after   16 cycles

 Excitation energies and oscillator strengths:

 Excited State   1:      Singlet-A      2.0034 eV  618.86 nm  f=0.1194  <S**2>=0.000
     243 -> 246        0.31112
     244 -> 245        0.62182
 This state for optimization and/or second-order correction.
 Total Energy, E(TD-HF/TD-KS) =  -3043.31964947
 Copying the excited state density for this state as the 1-particle RhoCI density.

 The electronic state is 1-A.
 Alpha  occ. eigenvalues --  -46.81145 -19.24328 -19.22919 -19.17145 -19.16973
 Alpha  occ. eigenvalues --  -19.16907 -19.16252 -19.16012 -14.38607 -14.37086
 Alpha  occ. eigenvalues --  -14.36655 -14.36073 -10.35043 -10.34380 -10.31742
 Alpha  occ. eigenvalues --  -10.29526 -10.29027 -10.27897 -10.27675 -10.27638
 Alpha  occ. eigenvalues --  -10.26911 -10.26894 -10.26520 -10.26513 -10.26038
 Alpha  occ. eigenvalues --  -10.25950 -10.25875 -10.25822 -10.25669 -10.25321
 Alpha  occ. eigenvalues --  -10.25304 -10.24955 -10.24727 -10.24468 -10.24317
 Alpha  occ. eigenvalues --  -10.24307 -10.24161 -10.24056 -10.23839 -10.23736
 Alpha  occ. eigenvalues --  -10.23603 -10.23534 -10.23517 -10.23347 -10.23310
 Alpha  occ. eigenvalues --  -10.22944 -10.22766 -10.22730 -10.22404 -10.22227
 Alpha  occ. eigenvalues --  -10.21782 -10.21729 -10.21631 -10.21495 -10.21448
 Alpha  occ. eigenvalues --  -10.21365 -10.20867 -10.20783 -10.20520 -10.20495
 Alpha  occ. eigenvalues --  -10.20495 -10.20475 -10.20246 -10.19897 -10.19892
 Alpha  occ. eigenvalues --  -10.19760  -3.09835  -1.84762  -1.84294  -1.84271
 Alpha  occ. eigenvalues --   -1.15941  -1.14102  -1.06178  -1.06003  -1.05683
 Alpha  occ. eigenvalues --   -1.04551  -1.03289  -1.02623  -1.00522  -0.99325
 Alpha  occ. eigenvalues --   -0.98103  -0.88203  -0.86486  -0.85907  -0.85867
 Alpha  occ. eigenvalues --   -0.85587  -0.84890  -0.84644  -0.83958  -0.83299
 Alpha  occ. eigenvalues --   -0.82991  -0.81784  -0.81551  -0.80601  -0.79732
 Alpha  occ. eigenvalues --   -0.79395  -0.79062  -0.77911  -0.77384  -0.76662
 Alpha  occ. eigenvalues --   -0.75450  -0.74336  -0.73987  -0.73431  -0.72152
 Alpha  occ. eigenvalues --   -0.71725  -0.71153  -0.70570  -0.70373  -0.70172
 Alpha  occ. eigenvalues --   -0.69730  -0.69108  -0.68166  -0.67563  -0.67186
 Alpha  occ. eigenvalues --   -0.66310  -0.64911  -0.64139  -0.62161  -0.61781
 Alpha  occ. eigenvalues --   -0.61540  -0.61098  -0.60034  -0.59369  -0.59222
 Alpha  occ. eigenvalues --   -0.58789  -0.58045  -0.57657  -0.57480  -0.56715
 Alpha  occ. eigenvalues --   -0.56382  -0.56042  -0.55638  -0.55185  -0.54278
 Alpha  occ. eigenvalues --   -0.54067  -0.53578  -0.52967  -0.52592  -0.52083
 Alpha  occ. eigenvalues --   -0.51846  -0.51638  -0.51193  -0.50986  -0.50860
 Alpha  occ. eigenvalues --   -0.50701  -0.50224  -0.50163  -0.49142  -0.49068
 Alpha  occ. eigenvalues --   -0.49039  -0.48773  -0.48405  -0.48018  -0.47854
 Alpha  occ. eigenvalues --   -0.47518  -0.47241  -0.47141  -0.46983  -0.46586
 Alpha  occ. eigenvalues --   -0.46381  -0.46299  -0.46135  -0.45963  -0.45475
 Alpha  occ. eigenvalues --   -0.45416  -0.45213  -0.45089  -0.44840  -0.44687
 Alpha  occ. eigenvalues --   -0.44482  -0.44444  -0.44146  -0.43922  -0.43869
 Alpha  occ. eigenvalues --   -0.43544  -0.43281  -0.43151  -0.43011  -0.42552
 Alpha  occ. eigenvalues --   -0.42362  -0.42245  -0.41975  -0.41838  -0.41566
 Alpha  occ. eigenvalues --   -0.41449  -0.41313  -0.41077  -0.40908  -0.40708
 Alpha  occ. eigenvalues --   -0.40623  -0.40382  -0.40177  -0.39882  -0.39767
 Alpha  occ. eigenvalues --   -0.39717  -0.39625  -0.39576  -0.39530  -0.39232
 Alpha  occ. eigenvalues --   -0.39064  -0.38998  -0.38682  -0.38494  -0.38368
 Alpha  occ. eigenvalues --   -0.38218  -0.37846  -0.37813  -0.37754  -0.37287
 Alpha  occ. eigenvalues --   -0.37236  -0.36951  -0.36402  -0.35724  -0.35667
 Alpha  occ. eigenvalues --   -0.35609  -0.35181  -0.35105  -0.34863  -0.34768
 Alpha  occ. eigenvalues --   -0.34498  -0.34306  -0.34130  -0.33868  -0.33754
 Alpha  occ. eigenvalues --   -0.32997  -0.32033  -0.31899  -0.31682  -0.31393
 Alpha  occ. eigenvalues --   -0.30713  -0.30606  -0.30518  -0.30209  -0.28903
 Alpha  occ. eigenvalues --   -0.28603  -0.27952  -0.27679  -0.27279  -0.27128
 Alpha  occ. eigenvalues --   -0.27090  -0.26599  -0.22660  -0.21508
 Alpha virt. eigenvalues --   -0.08321  -0.06980  -0.02076  -0.00949   0.00310
 Alpha virt. eigenvalues --    0.03153   0.03534   0.04167   0.04310   0.04683
 Alpha virt. eigenvalues --    0.05240   0.05649   0.07291   0.07762   0.08958

 Mulliken charges:
               1
     1  Mg   0.833041
     2  C    0.041495
     3  C   -0.184640
     4  C   -0.105256
     5  C   -0.151334
     6  N   -0.619953
     7  C    0.336356
     8  C   -0.179055
     9  C   -0.176134
    10  C    0.343708
    11  C   -0.295863
    12  C   -0.126767
    13  C   -0.284758
    14  C    0.615436
    15  O   -0.457958
    16  O   -0.467996
    17  N   -0.743494
    18  C    0.378897
    19  C    0.075308
    20  C   -0.057445
    21  C    0.311783
    22  C   -0.390747
    23  C    0.252122
    24  O   -0.444992
    25  N   -0.703351
    26  C    0.295226
    27  C   -0.073474
    28  C    0.076304
    29  C    0.258331
    30  C    0.270428
    31  C   -0.266825
    32  C   -0.301771
    33  N   -0.725951
    34  C    0.244302
    35  C    0.077644
    36  C   -0.026606
    37  C    0.384458
    38  C   -0.376213
    39  C    0.360179
    40  O   -0.475665
    41  C   -0.362297
    42  C    0.618690
    43  O   -0.477961
    44  O   -0.414185
    45  C   -0.099793
    46  C   -0.010106
    47  C   -0.116611
    48  C    0.129213
    49  C   -0.361107
    50  C   -0.220807
    51  C   -0.177028
    52  C   -0.167782
    53  C   -0.053530
    54  C   -0.291596
    55  C   -0.172912
    56  C   -0.177154
    57  C   -0.177795
    58  C   -0.054166
    59  C   -0.322538
    60  C   -0.159169
    61  C   -0.161963
    62  C   -0.172632
    63  C   -0.064505
    64  C   -0.287724
    65  C   -0.303244
    66  H    0.073783
    67  H    0.108853
    68  H    0.074866
    69  H    0.123960
    70  H    0.110679
    71  H    0.134283
    72  H    0.092734
    73  H    0.102743
    74  H    0.119558
    75  H    0.126533
    76  H    0.111230
    77  H    0.132702
    78  H    0.116691
    79  H    0.165948
    80  H    0.099310
    81  H    0.102126
    82  H    0.080590
    83  H    0.113013
    84  H    0.121204
    85  H    0.112605
    86  H    0.125824
    87  H    0.114251
    88  H    0.152762
    89  H    0.125337
    90  H    0.154532
    91  H    0.115904
    92  H    0.120773
    93  H    0.077293
    94  H    0.135527
    95  H    0.112417
    96  H    0.103464
    97  H    0.102213
    98  H    0.111223
    99  H    0.094130
   100  H    0.085600
   101  H    0.099877
   102  H    0.069563
   103  H    0.051900
   104  H    0.106807
   105  H    0.093762
   106  H    0.102031
   107  H    0.090207
   108  H    0.083392
   109  H    0.072576
   110  H    0.102968
   111  H    0.072577
   112  H    0.084511
   113  H    0.057023
   114  H    0.099100
   115  H    0.098894
   116  H    0.101674
   117  H    0.102891
   118  H    0.078643
   119  H    0.083449
   120  H    0.077012
   121  H    0.083866
   122  H    0.100570
   123  H    0.072204
   124  H    0.086973
   125  H    0.100331
   126  H    0.098085
   127  H    0.068123
   128  H    0.120268
   129  H    0.107888
   130  H    0.138221
   131  H    0.144041
   132  H    0.132148
   133  O   -0.450941
   134  H    0.054641
 Sum of Mulliken charges =   0.00000

 Dipole moment (field-independent basis, Debye):
    X=              1.9648    Y=             -6.1831    Z=             -0.9117  Tot=              6.5515
 Quadrupole moment (field-independent basis, Debye-Ang):
   XX=           -364.4346   YY=           -436.5926   ZZ=           -397.4296
   XY=             20.6692   XZ=             20.4240   YZ=            -42.0930

 Normal termination of Gaussian 09 at Wed Oct  9 00:22:22 2019.
