 Gaussian 09, Revision D.01,
 Gaussian 09:  ES64L-G09RevD.01 24-Apr-2013

 ----------------------------------------------------------------------
 # td=(NStates=1) iop(3/107=0140000000,3/108=0140000000) iop(3/107=0140
 000000,3/108=0140000000) CAM-B3LYP/6-31G(d,p)
 ----------------------------------------------------------------------

 --
 TD
 --
 Symbolic Z-matrix:
 Charge =  0 Multiplicity = 1

                         Standard orientation:
 ---------------------------------------------------------------------
 Center     Atomic      Atomic             Coordinates (Angstroms)
 Number     Number       Type             X           Y           Z
 ---------------------------------------------------------------------
      1         12           0       -5.647513    1.182692    0.127001
      2          6           0       -4.997292   -2.124762   -0.382183
      3          6           0       -3.385907    1.105231    2.737980
      4          6           0       -6.168453    4.488106    0.673496
      5          6           0       -7.964328    1.197278   -2.386321
      6          7           0       -4.411575   -0.252851    1.026209
      7          6           0       -4.172935   -1.550054    0.608274
      8          6           0       -3.251833   -2.326208    1.466505
      9          6           0       -2.923127   -1.363513    2.588637
     10          6           0       -3.603622   -0.103546    2.096077
     11          6           0       -3.452478   -1.867200    3.942405
     12          6           0       -1.964430   -2.619323    0.681373
     13          6           0       -0.997067   -3.576611    1.443326
     14          6           0        0.149960   -3.984752    0.618744
     15          8           0        0.449282   -3.528402   -0.466450
     16          8           0        1.060369   -4.672160    1.386166
     17          7           0       -5.039196    2.521713    1.552360
     18          6           0       -4.064969    2.375370    2.538606
     19          6           0       -3.694810    3.583014    3.270064
     20          6           0       -4.523864    4.501535    2.663382
     21          6           0       -5.337736    3.853143    1.625984
     22          6           0       -2.736276    3.679395    4.329786
     23          6           0       -4.601356    5.951742    2.966244
     24          8           0       -3.898697    6.549646    3.792954
     25          7           0       -6.961990    2.576894   -0.597890
     26          6           0       -6.922523    3.998743   -0.310387
     27          6           0       -7.949921    4.657556   -1.167892
     28          6           0       -8.518214    3.694289   -1.995557
     29          6           0       -7.821881    2.514359   -1.688721
     30          6           0       -8.376634    6.107548   -1.171032
     31          6           0       -9.461694    3.903265   -3.080629
     32          6           0       -8.759809    4.152094   -4.506389
     33          7           0       -6.452628   -0.125608   -1.029095
     34          6           0       -7.373539    0.018643   -2.146765
     35          6           0       -7.477138   -1.267606   -2.795361
     36          6           0       -6.557793   -2.113716   -2.179478
     37          6           0       -5.936025   -1.395279   -1.147154
     38          6           0       -8.326778   -1.623302   -3.970895
     39          6           0       -6.118271   -3.544679   -2.047709
     40          8           0       -6.611573   -4.557549   -2.538697
     41          6           0       -5.056294   -3.564348   -0.957810
     42          6           0       -5.322791   -4.693984    0.039265
     43          8           0       -5.684211   -4.460339    1.178864
     44          8           0       -4.939209   -5.898977   -0.432642
     45          6           0       -5.224990   -6.959481    0.434910
     46          6           0        2.294106   -5.066560    0.725321
     47          6           0        3.412483   -4.020804    1.061306
     48          6           0        3.972980   -3.215240    0.168761
     49          6           0        3.787189   -3.249367   -1.388896
     50          6           0        5.146464   -2.359173    0.626049
     51          6           0        6.503128   -2.738460    0.046661
     52          6           0        7.684840   -1.853521    0.586512
     53          6           0        8.999776   -2.080739   -0.074083
     54          6           0        9.478989   -3.477184    0.177318
     55          6           0       10.061963   -0.946904    0.473857
     56          6           0       11.345415   -0.909913   -0.240141
     57          6           0       12.145995    0.294973    0.200581
     58          6           0       13.443130    0.506787   -0.597473
     59          6           0       14.494425   -0.582496   -0.559208
     60          6           0       14.188700    1.898431   -0.206029
     61          6           0       15.479565    2.187135   -0.989151
     62          6           0       16.055363    3.532096   -0.571148
     63          6           0       17.318126    3.974431   -1.407161
     64          6           0       17.036352    4.163742   -2.931242
     65          6           0       17.892004    5.258343   -0.698076
     66          1           0       -2.617262    1.026601    3.577448
     67          1           0       -6.371950    5.492340    0.696702
     68          1           0       -8.580158    1.219786   -3.277180
     69          1           0       -3.618920   -3.207548    1.853360
     70          1           0       -1.866516   -1.128785    2.751557
     71          1           0       -2.832861   -2.609570    4.311879
     72          1           0       -3.255715   -1.103509    4.604423
     73          1           0       -4.521158   -2.094986    3.984829
     74          1           0       -2.083534   -3.223040   -0.156988
     75          1           0       -1.258415   -1.735849    0.455206
     76          1           0       -0.785119   -3.177300    2.441222
     77          1           0       -1.507114   -4.408453    1.871360
     78          1           0       -1.695108    3.357372    3.955627
     79          1           0       -2.667206    4.656843    4.812325
     80          1           0       -3.156945    3.161649    5.128798
     81          1           0       -5.269453    6.600569    2.252187
     82          1           0      -10.207448    3.044198   -3.061208
     83          1           0      -10.150689    4.780486   -3.017745
     84          1           0       -9.579432    4.438253   -5.114987
     85          1           0       -8.026756    5.072287   -4.350036
     86          1           0       -8.393371    3.092309   -4.881752
     87          1           0       -8.162631   -0.944612   -4.897385
     88          1           0       -8.091215   -2.778834   -4.166303
     89          1           0       -9.532311   -1.421522   -3.815891
     90          1           0       -4.009112   -3.924593   -1.420591
     91          1           0        2.557260   -6.006245    1.211640
     92          1           0        2.236190   -5.148088   -0.268226
     93          1           0        3.656034   -3.887067    2.040396
     94          1           0        2.656764   -3.666784   -1.783314
     95          1           0        3.875108   -2.356635   -1.713297
     96          1           0        4.479818   -3.935138   -1.828941
     97          1           0        4.842324   -1.432206    0.200070
     98          1           0        5.392503   -2.264411    1.879583
     99          1           0        6.909974   -3.723260    0.251243
    100          1           0        6.439888   -2.883387   -1.104380
    101          1           0        7.256898   -0.761752    0.320423
    102          1           0        7.553660   -2.121353    1.694633
    103          1           0        8.873803   -1.945782   -1.196539
    104          1           0        8.853134   -4.220082   -0.455790
    105          1           0       10.581231   -3.614591   -0.140070
    106          1           0        9.313672   -3.828182    1.245030
    107          1           0        9.418822    0.065746    0.306659
    108          1           0       10.427177   -0.863747    1.586734
    109          1           0       11.983873   -1.796071    0.009973
    110          1           0       11.355606   -0.799760   -1.378373
    111          1           0       11.509222    1.062341    0.217707
    112          1           0       12.399156    0.056577    1.322169
    113          1           0       13.002219    0.397753   -1.626351
    114          1           0       14.902552   -0.822872    0.562525
    115          1           0       14.125468   -1.424348   -0.958720
    116          1           0       15.397699   -0.452084   -0.934827
    117          1           0       13.459424    2.667414   -0.344414
    118          1           0       14.277063    1.857860    0.889729
    119          1           0       16.223330    1.403819   -0.749036
    120          1           0       15.140844    2.095645   -2.076195
    121          1           0       15.291980    4.313739   -0.903352
    122          1           0       16.283391    3.756778    0.542186
    123          1           0       18.129254    3.083798   -1.208635
    124          1           0       16.238744    4.785840   -3.113288
    125          1           0       17.882265    4.466148   -3.548138
    126          1           0       16.894381    3.336447   -3.281562
    127          1           0       18.243365    5.079431    0.272980
    128          1           0       18.795786    5.729987   -1.115089
    129          1           0       17.122533    6.012875   -0.676527
    130          1           0       -4.868917   -7.738339   -0.083712
    131          1           0       -6.393112   -6.911497    0.472534
    132          1           0       -4.589993   -6.859126    1.381034
    133          8           0       -7.890079    6.943149   -0.407328
    134          1           0       -9.026245    6.359106   -1.910562
 ---------------------------------------------------------------------

 SCF Done:  E(RCAM-B3LYP) =  -3043.51900578     A.U. after   15 cycles

 Excitation energies and oscillator strengths:

 Excited State   1:      Singlet-A      1.9761 eV  627.41 nm  f=0.1761  <S**2>=0.000
     243 -> 246        0.25356
     244 -> 245        0.64485
 This state for optimization and/or second-order correction.
 Total Energy, E(TD-HF/TD-KS) =  -3043.44638462
 Copying the excited state density for this state as the 1-particle RhoCI density.

 The electronic state is 1-A.
 Alpha  occ. eigenvalues --  -46.80142 -19.23217 -19.21713 -19.17823 -19.17644
 Alpha  occ. eigenvalues --  -19.17585 -19.17317 -19.16459 -14.39003 -14.36989
 Alpha  occ. eigenvalues --  -14.36733 -14.36116 -10.35688 -10.35131 -10.32221
 Alpha  occ. eigenvalues --  -10.30124 -10.30115 -10.27813 -10.27630 -10.26686
 Alpha  occ. eigenvalues --  -10.26665 -10.26618 -10.26537 -10.26271 -10.26206
 Alpha  occ. eigenvalues --  -10.26205 -10.25963 -10.25798 -10.25745 -10.25358
 Alpha  occ. eigenvalues --  -10.24443 -10.24347 -10.24305 -10.24155 -10.23931
 Alpha  occ. eigenvalues --  -10.23892 -10.23854 -10.23490 -10.23355 -10.23159
 Alpha  occ. eigenvalues --  -10.23131 -10.23097 -10.23008 -10.22991 -10.22976
 Alpha  occ. eigenvalues --  -10.22949 -10.22811 -10.22793 -10.22755 -10.22370
 Alpha  occ. eigenvalues --  -10.22080 -10.21946 -10.21826 -10.21680 -10.21487
 Alpha  occ. eigenvalues --  -10.21469 -10.21462 -10.21356 -10.20862 -10.20734
 Alpha  occ. eigenvalues --  -10.20436 -10.20302 -10.19939 -10.19111 -10.18798
 Alpha  occ. eigenvalues --  -10.17631  -3.09019  -1.83922  -1.83513  -1.83443
 Alpha  occ. eigenvalues --   -1.14847  -1.12649  -1.06920  -1.06086  -1.05839
 Alpha  occ. eigenvalues --   -1.04744  -1.04436  -1.00847  -0.98998  -0.98478
 Alpha  occ. eigenvalues --   -0.97068  -0.88279  -0.87063  -0.85885  -0.85540
 Alpha  occ. eigenvalues --   -0.85116  -0.84336  -0.83881  -0.83734  -0.83204
 Alpha  occ. eigenvalues --   -0.82902  -0.82739  -0.82012  -0.80506  -0.80019
 Alpha  occ. eigenvalues --   -0.78695  -0.78037  -0.77747  -0.77356  -0.76570
 Alpha  occ. eigenvalues --   -0.75736  -0.74992  -0.74470  -0.73059  -0.72957
 Alpha  occ. eigenvalues --   -0.72293  -0.71723  -0.70958  -0.70098  -0.69533
 Alpha  occ. eigenvalues --   -0.69085  -0.68803  -0.67615  -0.66820  -0.66301
 Alpha  occ. eigenvalues --   -0.65473  -0.64487  -0.63806  -0.62463  -0.62209
 Alpha  occ. eigenvalues --   -0.61603  -0.60257  -0.59926  -0.59543  -0.59138
 Alpha  occ. eigenvalues --   -0.58571  -0.57931  -0.57821  -0.57745  -0.57393
 Alpha  occ. eigenvalues --   -0.56289  -0.56006  -0.55276  -0.54917  -0.54737
 Alpha  occ. eigenvalues --   -0.54183  -0.53678  -0.53542  -0.52748  -0.52258
 Alpha  occ. eigenvalues --   -0.51972  -0.51699  -0.51313  -0.51020  -0.50930
 Alpha  occ. eigenvalues --   -0.50161  -0.49824  -0.49542  -0.49332  -0.49184
 Alpha  occ. eigenvalues --   -0.48688  -0.48387  -0.48300  -0.48199  -0.47966
 Alpha  occ. eigenvalues --   -0.47487  -0.47315  -0.47094  -0.46903  -0.46852
 Alpha  occ. eigenvalues --   -0.46460  -0.46280  -0.46196  -0.45890  -0.45751
 Alpha  occ. eigenvalues --   -0.45440  -0.45316  -0.45158  -0.44929  -0.44833
 Alpha  occ. eigenvalues --   -0.44429  -0.44175  -0.44039  -0.43929  -0.43673
 Alpha  occ. eigenvalues --   -0.43403  -0.43137  -0.43103  -0.42862  -0.42579
 Alpha  occ. eigenvalues --   -0.42427  -0.42239  -0.42141  -0.42041  -0.41840
 Alpha  occ. eigenvalues --   -0.41624  -0.41252  -0.41177  -0.40905  -0.40848
 Alpha  occ. eigenvalues --   -0.40745  -0.40532  -0.40342  -0.40280  -0.40194
 Alpha  occ. eigenvalues --   -0.40039  -0.39705  -0.39571  -0.39182  -0.39001
 Alpha  occ. eigenvalues --   -0.38899  -0.38781  -0.38741  -0.38664  -0.38533
 Alpha  occ. eigenvalues --   -0.38345  -0.38168  -0.38003  -0.37764  -0.37651
 Alpha  occ. eigenvalues --   -0.37581  -0.36801  -0.36637  -0.35904  -0.35663
 Alpha  occ. eigenvalues --   -0.35528  -0.35278  -0.35162  -0.35053  -0.34735
 Alpha  occ. eigenvalues --   -0.34533  -0.34521  -0.34131  -0.33832  -0.33527
 Alpha  occ. eigenvalues --   -0.32904  -0.32741  -0.32659  -0.32385  -0.31376
 Alpha  occ. eigenvalues --   -0.31353  -0.31049  -0.30837  -0.29769  -0.29679
 Alpha  occ. eigenvalues --   -0.28618  -0.28452  -0.28152  -0.27876  -0.27505
 Alpha  occ. eigenvalues --   -0.27495  -0.26880  -0.23089  -0.21047
 Alpha virt. eigenvalues --   -0.08339  -0.06715  -0.01530  -0.00690   0.00718
 Alpha virt. eigenvalues --    0.02168   0.02490   0.03311   0.04020   0.04788
 Alpha virt. eigenvalues --    0.04951   0.06387   0.07230   0.08241   0.09317

 Mulliken charges:
               1
     1  Mg   0.828512
     2  C    0.075592
     3  C   -0.214652
     4  C   -0.174339
     5  C   -0.201453
     6  N   -0.618437
     7  C    0.298981
     8  C   -0.144725
     9  C   -0.157137
    10  C    0.359239
    11  C   -0.313722
    12  C   -0.174302
    13  C   -0.300359
    14  C    0.610864
    15  O   -0.460462
    16  O   -0.475984
    17  N   -0.676865
    18  C    0.264137
    19  C    0.108574
    20  C   -0.049221
    21  C    0.324883
    22  C   -0.396739
    23  C    0.232651
    24  O   -0.427324
    25  N   -0.665754
    26  C    0.272891
    27  C   -0.064597
    28  C    0.106285
    29  C    0.273750
    30  C    0.272743
    31  C   -0.289579
    32  C   -0.296111
    33  N   -0.759858
    34  C    0.311509
    35  C    0.056366
    36  C    0.010141
    37  C    0.298198
    38  C   -0.390619
    39  C    0.385043
    40  O   -0.460047
    41  C   -0.327600
    42  C    0.627433
    43  O   -0.467868
    44  O   -0.433935
    45  C   -0.073331
    46  C    0.019058
    47  C   -0.127082
    48  C    0.114558
    49  C   -0.359584
    50  C   -0.201758
    51  C   -0.188650
    52  C   -0.154280
    53  C   -0.037201
    54  C   -0.311377
    55  C   -0.163149
    56  C   -0.176313
    57  C   -0.162591
    58  C   -0.068816
    59  C   -0.295649
    60  C   -0.180417
    61  C   -0.173672
    62  C   -0.163796
    63  C   -0.057054
    64  C   -0.300389
    65  C   -0.320136
    66  H    0.074637
    67  H    0.105867
    68  H    0.075877
    69  H    0.132343
    70  H    0.111564
    71  H    0.113255
    72  H    0.113817
    73  H    0.132087
    74  H    0.120544
    75  H    0.120555
    76  H    0.139619
    77  H    0.130742
    78  H    0.121297
    79  H    0.158313
    80  H    0.139439
    81  H    0.077249
    82  H    0.107884
    83  H    0.113226
    84  H    0.124945
    85  H    0.113661
    86  H    0.105907
    87  H    0.123963
    88  H    0.144202
    89  H    0.108677
    90  H    0.153062
    91  H    0.110916
    92  H    0.123226
    93  H    0.077687
    94  H    0.110536
    95  H    0.123214
    96  H    0.130111
    97  H    0.108284
    98  H    0.061503
    99  H    0.099108
   100  H    0.072046
   101  H    0.069020
   102  H    0.090244
   103  H    0.092699
   104  H    0.092644
   105  H    0.096996
   106  H    0.101706
   107  H    0.066078
   108  H    0.085247
   109  H    0.100167
   110  H    0.073934
   111  H    0.102229
   112  H    0.063944
   113  H    0.070653
   114  H    0.058006
   115  H    0.102677
   116  H    0.117059
   117  H    0.090454
   118  H    0.092449
   119  H    0.096965
   120  H    0.098213
   121  H    0.079300
   122  H    0.090319
   123  H    0.049566
   124  H    0.105456
   125  H    0.095757
   126  H    0.116430
   127  H    0.104816
   128  H    0.092100
   129  H    0.100525
   130  H    0.133291
   131  H    0.129270
   132  H    0.117088
   133  O   -0.425696
   134  H    0.076557
 Sum of Mulliken charges =   0.00000

 Dipole moment (field-independent basis, Debye):
    X=              1.9867    Y=             -5.5777    Z=             -2.3031  Tot=              6.3530
 Quadrupole moment (field-independent basis, Debye-Ang):
   XX=           -382.4875   YY=           -436.1048   ZZ=           -387.8047
   XY=              2.0072   XZ=             24.9858   YZ=            -37.1091

 Normal termination of Gaussian 09 at Tue Oct  8 01:18:33 2019.
