 Gaussian 09, Revision D.01,
 Gaussian 09:  ES64L-G09RevD.01 24-Apr-2013

 ----------------------------------------------------------------------
 # td=(NStates=1) iop(3/107=0140000000,3/108=0140000000) iop(3/107=0140
 000000,3/108=0140000000) CAM-B3LYP/6-31G(d,p)
 ----------------------------------------------------------------------

 --
 TD
 --
 Symbolic Z-matrix:
 Charge =  0 Multiplicity = 1

                         Standard orientation:
 ---------------------------------------------------------------------
 Center     Atomic      Atomic             Coordinates (Angstroms)
 Number     Number       Type             X           Y           Z
 ---------------------------------------------------------------------
      1         12           0       -5.552988    1.282393    0.225429
      2          6           0       -5.096027   -2.159970   -0.356334
      3          6           0       -3.299315    1.087897    2.739363
      4          6           0       -6.214412    4.513434    0.737385
      5          6           0       -7.935821    1.158599   -2.434152
      6          7           0       -4.417022   -0.311463    1.044769
      7          6           0       -4.311716   -1.674255    0.659891
      8          6           0       -3.229610   -2.414217    1.399871
      9          6           0       -2.891365   -1.431058    2.603887
     10          6           0       -3.588466   -0.066676    2.135348
     11          6           0       -3.428722   -1.841630    3.936511
     12          6           0       -2.009212   -2.702262    0.579145
     13          6           0       -0.915505   -3.521834    1.408430
     14          6           0        0.172085   -3.789417    0.567097
     15          8           0        0.386482   -3.384102   -0.583662
     16          8           0        1.051633   -4.658725    1.275874
     17          7           0       -4.903220    2.585014    1.474064
     18          6           0       -3.931581    2.335129    2.502741
     19          6           0       -3.708449    3.543698    3.185606
     20          6           0       -4.544667    4.587417    2.608379
     21          6           0       -5.266210    3.910100    1.509026
     22          6           0       -2.743730    3.748886    4.284203
     23          6           0       -4.641914    5.981339    2.969917
     24          8           0       -3.909518    6.357747    3.909726
     25          7           0       -6.875931    2.635619   -0.675079
     26          6           0       -6.906150    3.948917   -0.299795
     27          6           0       -7.914652    4.636897   -1.160149
     28          6           0       -8.329794    3.712399   -2.097637
     29          6           0       -7.735960    2.523386   -1.764937
     30          6           0       -8.251763    6.044069   -0.989124
     31          6           0       -9.333945    3.948653   -3.287366
     32          6           0       -8.434514    4.112528   -4.513033
     33          7           0       -6.436703   -0.127244   -1.020163
     34          6           0       -7.374098    0.039629   -2.168755
     35          6           0       -7.573184   -1.236325   -2.837792
     36          6           0       -6.789564   -2.070139   -2.048413
     37          6           0       -6.009443   -1.370066   -1.136659
     38          6           0       -8.565811   -1.528594   -3.958741
     39          6           0       -6.349094   -3.471891   -1.985759
     40          8           0       -6.654403   -4.526459   -2.564832
     41          6           0       -5.215494   -3.603478   -0.875958
     42          6           0       -5.582584   -4.638579    0.178510
     43          8           0       -5.932985   -4.435664    1.300064
     44          8           0       -5.185858   -5.770931   -0.381116
     45          6           0       -5.621992   -6.907472    0.347167
     46          6           0        2.269904   -4.915985    0.606253
     47          6           0        3.358284   -4.043906    1.102608
     48          6           0        4.021355   -3.224214    0.222568
     49          6           0        3.818717   -3.145676   -1.251407
     50          6           0        5.154485   -2.392943    0.783675
     51          6           0        6.462139   -2.642610    0.040182
     52          6           0        7.688680   -1.900523    0.616565
     53          6           0        9.000295   -2.008367   -0.083607
     54          6           0        9.629587   -3.420254    0.044138
     55          6           0        9.955846   -0.926455    0.405241
     56          6           0       11.323352   -0.982045   -0.297058
     57          6           0       12.199941    0.265684    0.239873
     58          6           0       13.566909    0.450017   -0.571100
     59          6           0       14.410503   -0.711065   -0.342574
     60          6           0       14.193171    1.782234   -0.217925
     61          6           0       15.523083    2.067717   -0.960007
     62          6           0       16.084178    3.507181   -0.655057
     63          6           0       17.400290    3.777262   -1.351948
     64          6           0       17.169061    3.925178   -2.879257
     65          6           0       18.068617    4.975821   -0.786400
     66          1           0       -2.677093    1.047002    3.686969
     67          1           0       -6.332435    5.652055    0.990139
     68          1           0       -8.867273    1.149361   -3.125258
     69          1           0       -3.452960   -3.261106    1.852241
     70          1           0       -1.718382   -1.366085    2.740939
     71          1           0       -3.015601   -2.874307    4.406412
     72          1           0       -3.191280   -1.149324    4.790675
     73          1           0       -4.651800   -1.849024    3.941507
     74          1           0       -2.176900   -3.281405   -0.316377
     75          1           0       -1.332587   -1.921546   -0.034288
     76          1           0       -0.831827   -2.906609    2.108001
     77          1           0       -1.335563   -4.562408    1.680800
     78          1           0       -1.755330    3.201781    4.062562
     79          1           0       -2.480737    4.981466    4.609544
     80          1           0       -3.222850    3.183075    5.170532
     81          1           0       -5.444450    6.488141    2.386659
     82          1           0      -10.023693    3.112195   -3.457194
     83          1           0       -9.915847    4.911782   -3.329683
     84          1           0       -9.018470    4.293021   -5.530649
     85          1           0       -7.916688    4.881784   -4.454174
     86          1           0       -7.975258    3.264002   -4.724485
     87          1           0       -8.246951   -1.025351   -4.749553
     88          1           0       -8.334580   -2.538095   -4.158070
     89          1           0       -9.544576   -1.299697   -3.534080
     90          1           0       -4.411882   -4.021514   -1.657346
     91          1           0        2.388335   -6.075313    0.870746
     92          1           0        2.286735   -4.770046   -0.455329
     93          1           0        3.567249   -4.046111    2.106723
     94          1           0        2.895781   -3.316259   -1.616871
     95          1           0        3.865251   -2.036638   -1.453715
     96          1           0        4.574027   -3.654373   -1.823032
     97          1           0        4.840263   -1.356573    0.415722
     98          1           0        5.326948   -2.411212    1.911518
     99          1           0        6.738006   -3.635955    0.165256
    100          1           0        6.431449   -2.271868   -0.855628
    101          1           0        7.610279   -0.706775    0.849685
    102          1           0        7.916194   -2.059827    1.842371
    103          1           0        8.782496   -1.661680   -1.140667
    104          1           0        9.023588   -4.119626   -0.390342
    105          1           0       10.444354   -3.333702   -0.602992
    106          1           0        9.823430   -3.736039    1.011160
    107          1           0        9.356623   -0.010402    0.310992
    108          1           0       10.047606   -1.027732    1.596121
    109          1           0       11.724653   -1.885430   -0.100937
    110          1           0       11.450642   -0.885242   -1.424449
    111          1           0       11.448181    1.125119    0.138021
    112          1           0       12.411708    0.192589    1.288551
    113          1           0       13.294988    0.560316   -1.748933
    114          1           0       14.595795   -0.781116    0.792851
    115          1           0       14.193804   -1.696584   -0.644299
    116          1           0       15.351128   -0.525039   -0.807489
    117          1           0       13.379429    2.588192   -0.230438
    118          1           0       14.521022    1.866689    0.815831
    119          1           0       16.257359    1.361630   -0.825907
    120          1           0       15.377938    2.126325   -2.080621
    121          1           0       15.338626    4.412894   -0.753548
    122          1           0       16.345570    3.623655    0.470930
    123          1           0       18.122166    2.831662   -1.168196
    124          1           0       16.328036    4.887867   -3.067197
    125          1           0       18.172298    4.381278   -3.306063
    126          1           0       16.891197    2.982195   -3.503837
    127          1           0       18.197235    5.070265    0.274860
    128          1           0       19.052477    5.345720   -1.136465
    129          1           0       17.395311    5.863265   -0.969677
    130          1           0       -5.182775   -7.784059   -0.116422
    131          1           0       -6.634131   -6.959343    0.348355
    132          1           0       -5.385220   -6.761980    1.503732
    133          8           0       -7.616799    6.895180   -0.379650
    134          1           0       -9.087776    6.448513   -1.543527
 ---------------------------------------------------------------------

 SCF Done:  E(RCAM-B3LYP) =  -3043.45036511     A.U. after   15 cycles

 Excitation energies and oscillator strengths:

 Excited State   1:      Singlet-A      2.0624 eV  601.15 nm  f=0.1536  <S**2>=0.000
     243 -> 246        0.26284
     244 -> 245        0.64218
 This state for optimization and/or second-order correction.
 Total Energy, E(TD-HF/TD-KS) =  -3043.37457171
 Copying the excited state density for this state as the 1-particle RhoCI density.

 The electronic state is 1-A.
 Alpha  occ. eigenvalues --  -46.80638 -19.23204 -19.21377 -19.18287 -19.18071
 Alpha  occ. eigenvalues --  -19.17239 -19.16752 -19.16564 -14.38812 -14.37216
 Alpha  occ. eigenvalues --  -14.36992 -14.36828 -10.35249 -10.35243 -10.31751
 Alpha  occ. eigenvalues --  -10.30306 -10.29654 -10.28187 -10.27567 -10.27075
 Alpha  occ. eigenvalues --  -10.26946 -10.26794 -10.26748 -10.26413 -10.26303
 Alpha  occ. eigenvalues --  -10.26273 -10.25938 -10.25916 -10.25720 -10.25504
 Alpha  occ. eigenvalues --  -10.25056 -10.24372 -10.24354 -10.24282 -10.24277
 Alpha  occ. eigenvalues --  -10.24122 -10.23821 -10.23575 -10.23364 -10.23312
 Alpha  occ. eigenvalues --  -10.23285 -10.23271 -10.23107 -10.23040 -10.22926
 Alpha  occ. eigenvalues --  -10.22905 -10.22897 -10.22792 -10.22655 -10.22318
 Alpha  occ. eigenvalues --  -10.22305 -10.22204 -10.21729 -10.21380 -10.21299
 Alpha  occ. eigenvalues --  -10.20946 -10.20845 -10.20745 -10.20560 -10.20549
 Alpha  occ. eigenvalues --  -10.20145 -10.19955 -10.19898 -10.19646 -10.19539
 Alpha  occ. eigenvalues --  -10.18305  -3.09384  -1.84307  -1.83858  -1.83810
 Alpha  occ. eigenvalues --   -1.15571  -1.11545  -1.06984  -1.06118  -1.05949
 Alpha  occ. eigenvalues --   -1.04940  -1.04364  -1.00226  -0.99333  -0.98237
 Alpha  occ. eigenvalues --   -0.97239  -0.88216  -0.87018  -0.86304  -0.85733
 Alpha  occ. eigenvalues --   -0.85203  -0.85138  -0.84570  -0.84385  -0.83419
 Alpha  occ. eigenvalues --   -0.83301  -0.82459  -0.81879  -0.80975  -0.80056
 Alpha  occ. eigenvalues --   -0.79434  -0.78690  -0.78142  -0.77775  -0.76739
 Alpha  occ. eigenvalues --   -0.76082  -0.75539  -0.74765  -0.72909  -0.72496
 Alpha  occ. eigenvalues --   -0.72128  -0.70875  -0.70493  -0.69931  -0.69385
 Alpha  occ. eigenvalues --   -0.69028  -0.68289  -0.66956  -0.66460  -0.66325
 Alpha  occ. eigenvalues --   -0.66046  -0.64544  -0.63652  -0.62761  -0.62489
 Alpha  occ. eigenvalues --   -0.61327  -0.61210  -0.60655  -0.59687  -0.58967
 Alpha  occ. eigenvalues --   -0.58401  -0.57986  -0.57639  -0.57539  -0.56899
 Alpha  occ. eigenvalues --   -0.56395  -0.56190  -0.55674  -0.55566  -0.55070
 Alpha  occ. eigenvalues --   -0.54177  -0.53821  -0.53249  -0.52608  -0.52416
 Alpha  occ. eigenvalues --   -0.52116  -0.51854  -0.51704  -0.51462  -0.50730
 Alpha  occ. eigenvalues --   -0.50511  -0.50331  -0.50223  -0.49838  -0.49185
 Alpha  occ. eigenvalues --   -0.48627  -0.48462  -0.48387  -0.48314  -0.47984
 Alpha  occ. eigenvalues --   -0.47724  -0.47483  -0.47316  -0.47170  -0.46889
 Alpha  occ. eigenvalues --   -0.46861  -0.46572  -0.46505  -0.46097  -0.45791
 Alpha  occ. eigenvalues --   -0.45526  -0.45418  -0.45361  -0.45110  -0.44653
 Alpha  occ. eigenvalues --   -0.44448  -0.44356  -0.44243  -0.44139  -0.43818
 Alpha  occ. eigenvalues --   -0.43561  -0.43377  -0.42862  -0.42795  -0.42609
 Alpha  occ. eigenvalues --   -0.42590  -0.42496  -0.42009  -0.41895  -0.41849
 Alpha  occ. eigenvalues --   -0.41634  -0.41429  -0.41134  -0.41055  -0.40889
 Alpha  occ. eigenvalues --   -0.40654  -0.40571  -0.40389  -0.39865  -0.39670
 Alpha  occ. eigenvalues --   -0.39599  -0.39152  -0.39117  -0.38905  -0.38840
 Alpha  occ. eigenvalues --   -0.38820  -0.38576  -0.38507  -0.38282  -0.38096
 Alpha  occ. eigenvalues --   -0.38022  -0.37622  -0.37478  -0.37110  -0.36982
 Alpha  occ. eigenvalues --   -0.36924  -0.36880  -0.36239  -0.36134  -0.35720
 Alpha  occ. eigenvalues --   -0.35651  -0.35041  -0.35002  -0.34451  -0.34413
 Alpha  occ. eigenvalues --   -0.34048  -0.33807  -0.33659  -0.33474  -0.33390
 Alpha  occ. eigenvalues --   -0.32982  -0.32559  -0.32410  -0.31844  -0.31793
 Alpha  occ. eigenvalues --   -0.31617  -0.31597  -0.31209  -0.30504  -0.30356
 Alpha  occ. eigenvalues --   -0.29226  -0.28094  -0.27651  -0.27414  -0.27179
 Alpha  occ. eigenvalues --   -0.26891  -0.26568  -0.23921  -0.22109
 Alpha virt. eigenvalues --   -0.08913  -0.07399  -0.01541  -0.00819   0.00823
 Alpha virt. eigenvalues --    0.02063   0.03039   0.03500   0.04080   0.04797
 Alpha virt. eigenvalues --    0.04839   0.06038   0.08001   0.08865   0.09229

 Mulliken charges:
               1
     1  Mg   0.825662
     2  C    0.052559
     3  C   -0.185841
     4  C   -0.159338
     5  C   -0.218411
     6  N   -0.658801
     7  C    0.304800
     8  C   -0.102160
     9  C   -0.152754
    10  C    0.365052
    11  C   -0.305922
    12  C   -0.223028
    13  C   -0.233263
    14  C    0.615916
    15  O   -0.477835
    16  O   -0.481788
    17  N   -0.779817
    18  C    0.319389
    19  C    0.047201
    20  C   -0.022601
    21  C    0.337031
    22  C   -0.389871
    23  C    0.248413
    24  O   -0.445177
    25  N   -0.677215
    26  C    0.302763
    27  C   -0.039294
    28  C    0.040506
    29  C    0.251766
    30  C    0.229560
    31  C   -0.248501
    32  C   -0.295125
    33  N   -0.691120
    34  C    0.305851
    35  C    0.012053
    36  C    0.017744
    37  C    0.338372
    38  C   -0.347448
    39  C    0.330857
    40  O   -0.477165
    41  C   -0.322499
    42  C    0.641601
    43  O   -0.461067
    44  O   -0.413905
    45  C   -0.103237
    46  C    0.001096
    47  C   -0.101336
    48  C    0.120903
    49  C   -0.384148
    50  C   -0.230854
    51  C   -0.145672
    52  C   -0.179958
    53  C   -0.052554
    54  C   -0.309899
    55  C   -0.170693
    56  C   -0.184968
    57  C   -0.181736
    58  C   -0.047176
    59  C   -0.301171
    60  C   -0.167637
    61  C   -0.183887
    62  C   -0.159616
    63  C   -0.027956
    64  C   -0.280664
    65  C   -0.320152
    66  H    0.092869
    67  H    0.142844
    68  H    0.094120
    69  H    0.121663
    70  H    0.097332
    71  H    0.094101
    72  H    0.114254
    73  H    0.108530
    74  H    0.122615
    75  H    0.119243
    76  H    0.142206
    77  H    0.141007
    78  H    0.107252
    79  H    0.154751
    80  H    0.117193
    81  H    0.096882
    82  H    0.109812
    83  H    0.116260
    84  H    0.070355
    85  H    0.131552
    86  H    0.120610
    87  H    0.145266
    88  H    0.157130
    89  H    0.143659
    90  H    0.159609
    91  H    0.082426
    92  H    0.121784
    93  H    0.076449
    94  H    0.151642
    95  H    0.102081
    96  H    0.131491
    97  H    0.090638
    98  H    0.097187
    99  H    0.113317
   100  H    0.110055
   101  H    0.052385
   102  H    0.038963
   103  H    0.076434
   104  H    0.102543
   105  H    0.107165
   106  H    0.111012
   107  H    0.091514
   108  H    0.068668
   109  H    0.114085
   110  H    0.085863
   111  H    0.078405
   112  H    0.093545
   113  H    0.055527
   114  H    0.086407
   115  H    0.111207
   116  H    0.100351
   117  H    0.087685
   118  H    0.090641
   119  H    0.110181
   120  H    0.086662
   121  H    0.079036
   122  H    0.069404
   123  H    0.067172
   124  H    0.063057
   125  H    0.087650
   126  H    0.104275
   127  H    0.107054
   128  H    0.099408
   129  H    0.090354
   130  H    0.127013
   131  H    0.142804
   132  H    0.115632
   133  O   -0.427503
   134  H    0.061376
 Sum of Mulliken charges =   0.00000

 Dipole moment (field-independent basis, Debye):
    X=              0.7242    Y=             -5.1337    Z=             -2.4858  Tot=              5.7497
 Quadrupole moment (field-independent basis, Debye-Ang):
   XX=           -360.1181   YY=           -438.1728   ZZ=           -393.3715
   XY=              7.6964   XZ=             28.4745   YZ=            -27.6224

 Normal termination of Gaussian 09 at Fri Oct  4 00:30:45 2019.
