 Gaussian 09, Revision D.01,
 Gaussian 09:  ES64L-G09RevD.01 24-Apr-2013

 ----------------------------------------------------------------------
 # td=(NStates=1) iop(3/107=0140000000,3/108=0140000000) iop(3/107=0140
 000000,3/108=0140000000) CAM-B3LYP/6-31G(d,p)
 ----------------------------------------------------------------------

 --
 TD
 --
 Symbolic Z-matrix:
 Charge =  0 Multiplicity = 1

                         Standard orientation:
 ---------------------------------------------------------------------
 Center     Atomic      Atomic             Coordinates (Angstroms)
 Number     Number       Type             X           Y           Z
 ---------------------------------------------------------------------
      1         12           0       -5.695956    1.246687    0.188381
      2          6           0       -5.028224   -2.146670   -0.367741
      3          6           0       -3.444271    1.026372    2.833750
      4          6           0       -6.166458    4.561693    0.698558
      5          6           0       -8.006729    1.231724   -2.421119
      6          7           0       -4.419388   -0.397448    1.066648
      7          6           0       -4.257932   -1.651943    0.639166
      8          6           0       -3.210708   -2.365064    1.498982
      9          6           0       -3.006954   -1.333897    2.629374
     10          6           0       -3.571779   -0.172235    2.176506
     11          6           0       -3.749271   -1.855894    3.830534
     12          6           0       -1.997201   -2.746673    0.602293
     13          6           0       -0.934166   -3.597191    1.289857
     14          6           0        0.304102   -3.841627    0.570357
     15          8           0        0.538115   -3.399540   -0.541761
     16          8           0        1.058626   -4.709930    1.161233
     17          7           0       -4.880429    2.615179    1.522546
     18          6           0       -3.965817    2.359669    2.501226
     19          6           0       -3.520871    3.643707    3.067754
     20          6           0       -4.396698    4.580847    2.485414
     21          6           0       -5.248024    3.918053    1.481804
     22          6           0       -2.549728    3.702193    4.175651
     23          6           0       -4.476758    5.905711    2.931503
     24          8           0       -3.763249    6.503501    3.755878
     25          7           0       -6.847432    2.738546   -0.744085
     26          6           0       -6.926713    4.087305   -0.373951
     27          6           0       -7.966275    4.714280   -1.179513
     28          6           0       -8.480710    3.722888   -1.938985
     29          6           0       -7.821539    2.481102   -1.759646
     30          6           0       -8.334859    6.051493   -1.033600
     31          6           0       -9.509596    3.933606   -3.102142
     32          6           0       -8.863308    4.013760   -4.413041
     33          7           0       -6.425748   -0.072960   -1.074875
     34          6           0       -7.502797    0.006038   -2.024975
     35          6           0       -7.652265   -1.282475   -2.748971
     36          6           0       -6.674262   -2.159675   -2.094030
     37          6           0       -5.997962   -1.332791   -1.125763
     38          6           0       -8.666109   -1.646417   -3.727302
     39          6           0       -6.240712   -3.560454   -1.915257
     40          8           0       -6.706206   -4.531394   -2.523077
     41          6           0       -5.099624   -3.500176   -0.922445
     42          6           0       -5.356204   -4.628076    0.083104
     43          8           0       -5.868858   -4.434433    1.240564
     44          8           0       -5.025386   -5.773245   -0.425888
     45          6           0       -5.343738   -6.919570    0.356589
     46          6           0        2.333030   -4.961116    0.638039
     47          6           0        3.335266   -4.006540    1.123798
     48          6           0        4.064780   -3.225741    0.280078
     49          6           0        3.596806   -3.168235   -1.239279
     50          6           0        5.119880   -2.302906    0.644204
     51          6           0        6.461551   -2.674760    0.036122
     52          6           0        7.591296   -1.764184    0.583206
     53          6           0        9.039270   -2.044897    0.003277
     54          6           0        9.544384   -3.417410    0.263692
     55          6           0       10.043803   -0.937683    0.465823
     56          6           0       11.343161   -0.723942   -0.293640
     57          6           0       12.270770    0.372092    0.185795
     58          6           0       13.612882    0.409843   -0.521727
     59          6           0       14.468002   -0.795540   -0.183745
     60          6           0       14.275433    1.707139   -0.295125
     61          6           0       15.447613    2.162836   -1.182221
     62          6           0       16.152664    3.431043   -0.676957
     63          6           0       17.474809    3.815937   -1.379981
     64          6           0       17.171144    4.002540   -2.872711
     65          6           0       18.048483    5.045267   -0.800717
     66          1           0       -2.683243    1.103023    3.644484
     67          1           0       -6.294006    5.579163    0.604394
     68          1           0       -8.687104    1.270263   -3.113500
     69          1           0       -3.847398   -3.219967    1.920248
     70          1           0       -1.752744   -1.149652    2.785218
     71          1           0       -3.365614   -3.097564    4.053072
     72          1           0       -3.643067   -1.219973    4.644973
     73          1           0       -4.864008   -2.038315    3.462159
     74          1           0       -2.319691   -3.422998   -0.342472
     75          1           0       -1.579351   -1.884860    0.193233
     76          1           0       -0.700213   -2.908155    2.105350
     77          1           0       -1.456691   -4.514879    1.747886
     78          1           0       -1.464901    3.312407    4.008276
     79          1           0       -2.509298    4.593768    4.647817
     80          1           0       -2.771522    3.142970    5.007680
     81          1           0       -5.322772    6.430577    2.320880
     82          1           0      -10.263938    3.139493   -3.200724
     83          1           0      -10.167260    4.781192   -2.855301
     84          1           0       -9.500663    3.860726   -5.305712
     85          1           0       -8.148799    5.092942   -4.351794
     86          1           0       -8.059310    3.236401   -4.798668
     87          1           0       -8.656006   -1.054237   -4.798935
     88          1           0       -8.343647   -2.696317   -3.818742
     89          1           0       -9.710302   -1.637922   -3.392036
     90          1           0       -4.295651   -3.846055   -1.405823
     91          1           0        2.502702   -6.015415    0.948276
     92          1           0        2.098943   -4.909557   -0.421328
     93          1           0        3.599439   -4.108842    2.015815
     94          1           0        2.518876   -3.219397   -1.544178
     95          1           0        3.851127   -2.315496   -1.730495
     96          1           0        4.254545   -4.029691   -1.865822
     97          1           0        4.826666   -1.358499    0.253411
     98          1           0        5.023273   -2.076012    1.815466
     99          1           0        6.639041   -3.647843    0.102516
    100          1           0        6.403866   -2.752897   -0.977351
    101          1           0        7.475378   -0.659800    0.561891
    102          1           0        7.659042   -1.966642    1.684270
    103          1           0        9.039025   -1.856946   -1.049303
    104          1           0        8.745514   -4.252076   -0.169387
    105          1           0       10.556588   -3.324669   -0.329524
    106          1           0        9.818808   -3.499902    1.202831
    107          1           0        9.549660   -0.008824    0.331312
    108          1           0       10.110859   -1.183453    1.541404
    109          1           0       12.118427   -1.690835   -0.388522
    110          1           0       11.448966   -0.790001   -1.458749
    111          1           0       11.841921    1.277352    0.031467
    112          1           0       12.611582    0.118412    1.222483
    113          1           0       13.344002    0.303361   -1.731260
    114          1           0       14.874710   -0.652808    0.896511
    115          1           0       14.159633   -1.817307   -0.427824
    116          1           0       15.295252   -0.898513   -0.804048
    117          1           0       13.642759    2.484539   -0.224341
    118          1           0       14.748316    1.459540    0.741319
    119          1           0       16.273908    1.345264   -1.168431
    120          1           0       15.054293    2.318277   -2.337839
    121          1           0       15.419343    4.403731   -0.516767
    122          1           0       16.466892    3.614982    0.444942
    123          1           0       18.312102    2.969165   -1.168106
    124          1           0       16.565609    4.881460   -2.933311
    125          1           0       17.986375    4.438115   -3.530564
    126          1           0       16.758667    3.158516   -3.434407
    127          1           0       18.396694    4.862163    0.245136
    128          1           0       19.134451    5.382005   -1.144636
    129          1           0       17.358461    6.161122   -0.678806
    130          1           0       -5.290726   -7.843746   -0.316098
    131          1           0       -6.414006   -6.868836    0.637959
    132          1           0       -4.538231   -6.866330    1.345345
    133          8           0       -7.837434    6.855707   -0.163229
    134          1           0       -9.023153    6.615386   -2.006431
 ---------------------------------------------------------------------

 SCF Done:  E(RCAM-B3LYP) =  -3043.35396990     A.U. after   16 cycles

 Excitation energies and oscillator strengths:

 Excited State   1:      Singlet-A      2.0256 eV  612.07 nm  f=0.1243  <S**2>=0.000
     243 -> 246        0.33262
     244 -> 245        0.60806
 This state for optimization and/or second-order correction.
 Total Energy, E(TD-HF/TD-KS) =  -3043.27952889
 Copying the excited state density for this state as the 1-particle RhoCI density.

 The electronic state is 1-A.
 Alpha  occ. eigenvalues --  -46.82226 -19.25142 -19.22060 -19.17597 -19.17321
 Alpha  occ. eigenvalues --  -19.17147 -19.16273 -19.16100 -14.38461 -14.37488
 Alpha  occ. eigenvalues --  -14.37486 -14.37341 -10.36098 -10.34410 -10.32054
 Alpha  occ. eigenvalues --  -10.31941 -10.30504 -10.29093 -10.27768 -10.27269
 Alpha  occ. eigenvalues --  -10.27165 -10.27122 -10.27045 -10.27028 -10.26938
 Alpha  occ. eigenvalues --  -10.26599 -10.26588 -10.26548 -10.25166 -10.25166
 Alpha  occ. eigenvalues --  -10.24984 -10.24863 -10.24618 -10.24492 -10.24372
 Alpha  occ. eigenvalues --  -10.24337 -10.24025 -10.24003 -10.23865 -10.23752
 Alpha  occ. eigenvalues --  -10.23729 -10.23713 -10.23684 -10.23435 -10.23413
 Alpha  occ. eigenvalues --  -10.23381 -10.23258 -10.23139 -10.22899 -10.22877
 Alpha  occ. eigenvalues --  -10.22835 -10.22506 -10.22473 -10.22168 -10.21650
 Alpha  occ. eigenvalues --  -10.21236 -10.21105 -10.21008 -10.20988 -10.20740
 Alpha  occ. eigenvalues --  -10.20528 -10.20408 -10.20261 -10.20025 -10.19723
 Alpha  occ. eigenvalues --  -10.19693  -3.10648  -1.85600  -1.85104  -1.85059
 Alpha  occ. eigenvalues --   -1.16469  -1.15963  -1.06563  -1.04796  -1.04200
 Alpha  occ. eigenvalues --   -1.03603  -1.02809  -1.00989  -1.00019  -0.99359
 Alpha  occ. eigenvalues --   -0.98005  -0.89781  -0.86830  -0.86541  -0.86373
 Alpha  occ. eigenvalues --   -0.85886  -0.85185  -0.84582  -0.84463  -0.83952
 Alpha  occ. eigenvalues --   -0.83778  -0.83446  -0.82851  -0.81739  -0.80523
 Alpha  occ. eigenvalues --   -0.79932  -0.79069  -0.78785  -0.78192  -0.76873
 Alpha  occ. eigenvalues --   -0.75969  -0.75668  -0.74186  -0.73942  -0.73189
 Alpha  occ. eigenvalues --   -0.71822  -0.71066  -0.70761  -0.70707  -0.70596
 Alpha  occ. eigenvalues --   -0.70112  -0.69670  -0.67915  -0.66822  -0.66702
 Alpha  occ. eigenvalues --   -0.65484  -0.65444  -0.64506  -0.63774  -0.62337
 Alpha  occ. eigenvalues --   -0.62286  -0.61520  -0.60547  -0.59992  -0.59245
 Alpha  occ. eigenvalues --   -0.58753  -0.58130  -0.58042  -0.57743  -0.57171
 Alpha  occ. eigenvalues --   -0.57069  -0.56727  -0.56328  -0.55193  -0.55037
 Alpha  occ. eigenvalues --   -0.54961  -0.54417  -0.53721  -0.53155  -0.52884
 Alpha  occ. eigenvalues --   -0.52584  -0.52334  -0.52185  -0.51492  -0.50723
 Alpha  occ. eigenvalues --   -0.50466  -0.50418  -0.50050  -0.49829  -0.49354
 Alpha  occ. eigenvalues --   -0.49188  -0.49031  -0.48617  -0.48520  -0.48396
 Alpha  occ. eigenvalues --   -0.47578  -0.47404  -0.47254  -0.46960  -0.46885
 Alpha  occ. eigenvalues --   -0.46615  -0.46496  -0.46387  -0.46194  -0.46000
 Alpha  occ. eigenvalues --   -0.45472  -0.45388  -0.45180  -0.44975  -0.44547
 Alpha  occ. eigenvalues --   -0.44361  -0.44019  -0.43902  -0.43751  -0.43680
 Alpha  occ. eigenvalues --   -0.43642  -0.43540  -0.43385  -0.43264  -0.42931
 Alpha  occ. eigenvalues --   -0.42489  -0.42297  -0.42211  -0.42115  -0.42005
 Alpha  occ. eigenvalues --   -0.41836  -0.41509  -0.41472  -0.41214  -0.40998
 Alpha  occ. eigenvalues --   -0.40620  -0.40616  -0.40545  -0.40337  -0.40125
 Alpha  occ. eigenvalues --   -0.40010  -0.39844  -0.39604  -0.39355  -0.39164
 Alpha  occ. eigenvalues --   -0.38909  -0.38708  -0.38650  -0.38277  -0.38235
 Alpha  occ. eigenvalues --   -0.37940  -0.37856  -0.37463  -0.37108  -0.37021
 Alpha  occ. eigenvalues --   -0.36618  -0.36476  -0.36173  -0.35723  -0.35327
 Alpha  occ. eigenvalues --   -0.35259  -0.35141  -0.34969  -0.34475  -0.34284
 Alpha  occ. eigenvalues --   -0.34025  -0.33967  -0.33612  -0.33574  -0.33003
 Alpha  occ. eigenvalues --   -0.32781  -0.32060  -0.32045  -0.31958  -0.31597
 Alpha  occ. eigenvalues --   -0.31311  -0.30677  -0.30395  -0.30342  -0.30013
 Alpha  occ. eigenvalues --   -0.28869  -0.28458  -0.28236  -0.27966  -0.27817
 Alpha  occ. eigenvalues --   -0.27346  -0.26692  -0.22979  -0.22669
 Alpha virt. eigenvalues --   -0.09350  -0.07577  -0.01891  -0.01611  -0.00208
 Alpha virt. eigenvalues --    0.02293   0.03035   0.03411   0.03777   0.03978
 Alpha virt. eigenvalues --    0.04310   0.05416   0.07226   0.07544   0.08284

 Mulliken charges:
               1
     1  Mg   0.830764
     2  C    0.080895
     3  C   -0.197596
     4  C   -0.115939
     5  C   -0.093475
     6  N   -0.632889
     7  C    0.331260
     8  C   -0.169473
     9  C   -0.157982
    10  C    0.399090
    11  C   -0.281739
    12  C   -0.170995
    13  C   -0.265790
    14  C    0.611421
    15  O   -0.491904
    16  O   -0.428872
    17  N   -0.727782
    18  C    0.287457
    19  C    0.072956
    20  C   -0.036960
    21  C    0.385508
    22  C   -0.398337
    23  C    0.224177
    24  O   -0.448078
    25  N   -0.691721
    26  C    0.238960
    27  C    0.090499
    28  C   -0.012769
    29  C    0.277388
    30  C    0.189204
    31  C   -0.235820
    32  C   -0.284900
    33  N   -0.745818
    34  C    0.243347
    35  C    0.032814
    36  C    0.000544
    37  C    0.329181
    38  C   -0.398288
    39  C    0.375732
    40  O   -0.476983
    41  C   -0.300767
    42  C    0.600345
    43  O   -0.519811
    44  O   -0.391602
    45  C   -0.084145
    46  C   -0.008194
    47  C   -0.099178
    48  C    0.127589
    49  C   -0.375224
    50  C   -0.228170
    51  C   -0.174412
    52  C   -0.172025
    53  C   -0.083680
    54  C   -0.276082
    55  C   -0.175087
    56  C   -0.189284
    57  C   -0.127902
    58  C   -0.064978
    59  C   -0.313935
    60  C   -0.146180
    61  C   -0.169416
    62  C   -0.147761
    63  C   -0.029304
    64  C   -0.305059
    65  C   -0.301298
    66  H    0.082227
    67  H    0.131113
    68  H    0.071521
    69  H    0.131795
    70  H    0.080138
    71  H    0.072889
    72  H    0.123763
    73  H    0.132094
    74  H    0.092817
    75  H    0.130791
    76  H    0.131712
    77  H    0.127577
    78  H    0.112346
    79  H    0.158707
    80  H    0.136580
    81  H    0.059427
    82  H    0.105924
    83  H    0.118752
    84  H    0.113678
    85  H    0.075233
    86  H    0.101621
    87  H    0.109729
    88  H    0.159065
    89  H    0.144083
    90  H    0.165847
    91  H    0.107162
    92  H    0.127179
    93  H    0.060689
    94  H    0.162182
    95  H    0.111862
    96  H    0.069442
    97  H    0.120917
    98  H    0.080660
    99  H    0.105428
   100  H    0.108025
   101  H    0.087222
   102  H    0.083100
   103  H    0.088521
   104  H    0.077809
   105  H    0.089410
   106  H    0.113696
   107  H    0.100108
   108  H    0.091963
   109  H    0.049683
   110  H    0.084022
   111  H    0.095894
   112  H    0.089007
   113  H    0.035076
   114  H    0.088643
   115  H    0.107799
   116  H    0.111272
   117  H    0.100300
   118  H    0.074288
   119  H    0.089631
   120  H    0.081134
   121  H    0.062501
   122  H    0.077496
   123  H    0.074169
   124  H    0.109455
   125  H    0.083884
   126  H    0.104156
   127  H    0.102502
   128  H    0.090669
   129  H    0.063400
   130  H    0.133293
   131  H    0.150599
   132  H    0.108246
   133  O   -0.444728
   134  H    0.041282
 Sum of Mulliken charges =   0.00000

 Dipole moment (field-independent basis, Debye):
    X=              2.2891    Y=             -6.9224    Z=             -1.3396  Tot=              7.4131
 Quadrupole moment (field-independent basis, Debye-Ang):
   XX=           -368.1101   YY=           -450.0106   ZZ=           -395.6692
   XY=             21.3855   XZ=             30.3847   YZ=            -32.0986

 Normal termination of Gaussian 09 at Mon Oct  7 19:16:08 2019.
