 Gaussian 09, Revision D.01,
 Gaussian 09:  ES64L-G09RevD.01 24-Apr-2013

 ----------------------------------------------------------------------
 # td=(NStates=1) iop(3/107=0140000000,3/108=0140000000) iop(3/107=0140
 000000,3/108=0140000000) CAM-B3LYP/6-31G(d,p)
 ----------------------------------------------------------------------

 --
 TD
 --
 Symbolic Z-matrix:
 Charge =  0 Multiplicity = 1

                         Standard orientation:
 ---------------------------------------------------------------------
 Center     Atomic      Atomic             Coordinates (Angstroms)
 Number     Number       Type             X           Y           Z
 ---------------------------------------------------------------------
      1         12           0       -5.558195    1.245809    0.194527
      2          6           0       -4.975308   -2.132577   -0.279258
      3          6           0       -3.341364    1.197095    2.808777
      4          6           0       -6.150037    4.582071    0.587889
      5          6           0       -7.974405    1.194123   -2.331507
      6          7           0       -4.327285   -0.260666    1.122681
      7          6           0       -4.202217   -1.558039    0.786172
      8          6           0       -3.175990   -2.305972    1.533586
      9          6           0       -2.821241   -1.291693    2.740487
     10          6           0       -3.506411    0.048662    2.178787
     11          6           0       -3.261241   -1.706119    4.037666
     12          6           0       -1.955895   -2.632181    0.574185
     13          6           0       -0.947278   -3.641367    1.311231
     14          6           0        0.337679   -3.902543    0.620006
     15          8           0        0.669633   -3.436467   -0.466115
     16          8           0        1.037477   -4.867249    1.253473
     17          7           0       -4.915079    2.753415    1.432636
     18          6           0       -4.048165    2.442744    2.455165
     19          6           0       -3.774968    3.591258    3.177755
     20          6           0       -4.564444    4.633113    2.544050
     21          6           0       -5.242722    3.978971    1.429636
     22          6           0       -2.757916    3.838882    4.402380
     23          6           0       -4.582789    6.076030    2.896912
     24          8           0       -4.023042    6.592933    3.878827
     25          7           0       -6.849314    2.627018   -0.835557
     26          6           0       -6.887142    3.962239   -0.442080
     27          6           0       -7.921146    4.644120   -1.279393
     28          6           0       -8.350438    3.667963   -2.137087
     29          6           0       -7.684557    2.379871   -1.833805
     30          6           0       -8.291234    6.073309   -1.263375
     31          6           0       -9.414949    3.787094   -3.243152
     32          6           0       -8.771331    3.692961   -4.685134
     33          7           0       -6.313091   -0.149578   -1.074677
     34          6           0       -7.343251   -0.023432   -1.997773
     35          6           0       -7.578359   -1.400196   -2.599049
     36          6           0       -6.672306   -2.199430   -1.982181
     37          6           0       -6.050196   -1.435767   -0.958676
     38          6           0       -8.516882   -1.680616   -3.671637
     39          6           0       -6.124265   -3.547137   -1.924361
     40          8           0       -6.319751   -4.523154   -2.586678
     41          6           0       -5.007566   -3.572588   -0.839233
     42          6           0       -5.182751   -4.660220    0.164968
     43          8           0       -5.722575   -4.501535    1.276454
     44          8           0       -4.974868   -5.901059   -0.427913
     45          6           0       -5.228372   -7.079434    0.427593
     46          6           0        2.264416   -5.157638    0.583011
     47          6           0        3.487079   -4.175014    1.006167
     48          6           0        4.016348   -3.293510    0.170773
     49          6           0        3.701297   -3.246230   -1.318499
     50          6           0        5.079372   -2.389843    0.668202
     51          6           0        6.329675   -2.662311    0.000653
     52          6           0        7.474578   -1.837870    0.541817
     53          6           0        8.836993   -1.935114   -0.160640
     54          6           0        9.535099   -3.281004    0.050731
     55          6           0        9.757901   -0.876286    0.319493
     56          6           0       11.134496   -0.869185   -0.215053
     57          6           0       12.041488    0.363343    0.283964
     58          6           0       13.386843    0.470778   -0.377677
     59          6           0       14.176582   -0.724874   -0.181449
     60          6           0       14.210337    1.798301   -0.059388
     61          6           0       15.278364    2.229278   -1.021665
     62          6           0       16.000546    3.581006   -0.778071
     63          6           0       17.272412    3.919891   -1.426563
     64          6           0       17.162219    3.964263   -2.937397
     65          6           0       17.797712    5.207971   -0.832842
     66          1           0       -2.631721    1.195122    3.656086
     67          1           0       -6.443792    5.698529    0.906485
     68          1           0       -8.637376    1.245626   -3.197445
     69          1           0       -3.458475   -3.110146    1.836612
     70          1           0       -1.628127   -0.897007    2.958261
     71          1           0       -2.636816   -2.522761    4.392689
     72          1           0       -3.136452   -0.899275    4.763406
     73          1           0       -4.439858   -1.828678    4.026610
     74          1           0       -2.521306   -2.977880   -0.359275
     75          1           0       -1.202782   -1.732217    0.482111
     76          1           0       -0.700738   -3.269595    2.408116
     77          1           0       -1.325932   -4.566093    1.641368
     78          1           0       -1.647716    3.817709    4.173765
     79          1           0       -2.946143    4.882745    4.846791
     80          1           0       -2.963142    3.271659    5.204570
     81          1           0       -5.310910    6.590371    2.292449
     82          1           0      -10.053216    3.058069   -3.060883
     83          1           0       -9.773773    4.846022   -3.130507
     84          1           0       -9.731074    3.738191   -5.235898
     85          1           0       -8.067300    4.625764   -4.828266
     86          1           0       -7.959101    2.899771   -5.015862
     87          1           0       -8.342828   -0.959116   -4.460831
     88          1           0       -8.284530   -2.701964   -4.002185
     89          1           0       -9.473726   -1.679125   -3.395277
     90          1           0       -4.079656   -3.850451   -1.567585
     91          1           0        2.474012   -6.204634    0.799971
     92          1           0        2.106997   -5.054664   -0.487916
     93          1           0        3.951531   -4.359908    1.975958
     94          1           0        2.628744   -3.335780   -1.468005
     95          1           0        4.038469   -2.201131   -1.856465
     96          1           0        4.431332   -3.784464   -1.931122
     97          1           0        4.760151   -1.448986    0.427854
     98          1           0        4.994575   -2.529300    1.702326
     99          1           0        6.560219   -3.610978    0.140249
    100          1           0        6.275266   -2.324778   -1.134166
    101          1           0        7.231470   -0.946627    0.357598
    102          1           0        7.591853   -1.949902    1.485018
    103          1           0        8.698362   -1.684945   -1.087459
    104          1           0        8.812920   -4.071385   -0.353289
    105          1           0       10.455646   -3.598131   -0.309124
    106          1           0        9.643844   -3.456317    1.175905
    107          1           0        9.260644    0.214760    0.165603
    108          1           0        9.826872   -0.893716    1.534616
    109          1           0       11.725937   -1.830319   -0.043207
    110          1           0       11.214018   -0.929543   -1.292099
    111          1           0       11.414344    1.228320    0.032671
    112          1           0       12.206850    0.327458    1.347745
    113          1           0       13.205885    0.404796   -1.454306
    114          1           0       14.410809   -0.908924    0.791012
    115          1           0       13.970397   -1.811021   -0.603747
    116          1           0       15.158401   -0.554709   -0.800674
    117          1           0       13.517563    2.506760   -0.098347
    118          1           0       14.618519    1.649056    0.960395
    119          1           0       16.066735    1.474769   -0.927591
    120          1           0       15.184005    2.272677   -2.053738
    121          1           0       15.239325    4.611849   -1.105804
    122          1           0       16.359023    3.696270    0.294045
    123          1           0       18.073945    3.093583   -1.183033
    124          1           0       16.518218    4.826187   -3.080380
    125          1           0       18.108674    3.994515   -3.427282
    126          1           0       16.731325    2.947962   -3.233133
    127          1           0       18.138920    5.006969    0.151138
    128          1           0       18.747937    5.353687   -1.226246
    129          1           0       17.152254    6.196751   -0.833710
    130          1           0       -4.823999   -8.042585   -0.231732
    131          1           0       -6.321657   -7.216635    0.681597
    132          1           0       -4.612897   -7.047588    1.426234
    133          8           0       -7.865624    6.930471   -0.502753
    134          1           0       -9.075048    6.379888   -1.965552
 ---------------------------------------------------------------------

 SCF Done:  E(RCAM-B3LYP) =  -3043.43743968     A.U. after   16 cycles

 Excitation energies and oscillator strengths:

 Excited State   1:      Singlet-A      2.0198 eV  613.84 nm  f=0.2533  <S**2>=0.000
     243 -> 246        0.23608
     244 -> 245        0.65899
 This state for optimization and/or second-order correction.
 Total Energy, E(TD-HF/TD-KS) =  -3043.36321325
 Copying the excited state density for this state as the 1-particle RhoCI density.

 The electronic state is 1-A.
 Alpha  occ. eigenvalues --  -46.82672 -19.23232 -19.22678 -19.18010 -19.17840
 Alpha  occ. eigenvalues --  -19.17691 -19.17201 -19.15994 -14.39364 -14.37314
 Alpha  occ. eigenvalues --  -14.37253 -14.36667 -10.36069 -10.35098 -10.32022
 Alpha  occ. eigenvalues --  -10.31137 -10.30045 -10.29169 -10.28334 -10.27502
 Alpha  occ. eigenvalues --  -10.27134 -10.27083 -10.26505 -10.26461 -10.26376
 Alpha  occ. eigenvalues --  -10.26221 -10.25784 -10.25768 -10.25666 -10.25507
 Alpha  occ. eigenvalues --  -10.25324 -10.24986 -10.24888 -10.24696 -10.24623
 Alpha  occ. eigenvalues --  -10.24526 -10.23986 -10.23838 -10.23743 -10.23638
 Alpha  occ. eigenvalues --  -10.23271 -10.22877 -10.22674 -10.22343 -10.22201
 Alpha  occ. eigenvalues --  -10.22172 -10.22081 -10.21857 -10.21823 -10.21571
 Alpha  occ. eigenvalues --  -10.21238 -10.21201 -10.21145 -10.20757 -10.20734
 Alpha  occ. eigenvalues --  -10.20262 -10.20218 -10.20164 -10.20121 -10.19938
 Alpha  occ. eigenvalues --  -10.19924 -10.19850 -10.19729 -10.19597 -10.19121
 Alpha  occ. eigenvalues --  -10.17135  -3.11056  -1.86018  -1.85505  -1.85462
 Alpha  occ. eigenvalues --   -1.13917  -1.11718  -1.08908  -1.07149  -1.04475
 Alpha  occ. eigenvalues --   -1.04086  -1.03775  -1.01906  -1.01359  -1.00191
 Alpha  occ. eigenvalues --   -0.99676  -0.88524  -0.87726  -0.85930  -0.85839
 Alpha  occ. eigenvalues --   -0.85777  -0.85300  -0.84948  -0.84687  -0.84564
 Alpha  occ. eigenvalues --   -0.84263  -0.82292  -0.81310  -0.80614  -0.80258
 Alpha  occ. eigenvalues --   -0.79166  -0.78688  -0.78121  -0.77511  -0.76436
 Alpha  occ. eigenvalues --   -0.75777  -0.74830  -0.73793  -0.72511  -0.72091
 Alpha  occ. eigenvalues --   -0.71877  -0.71839  -0.70572  -0.70457  -0.70079
 Alpha  occ. eigenvalues --   -0.69629  -0.69392  -0.67061  -0.66728  -0.66638
 Alpha  occ. eigenvalues --   -0.66056  -0.65436  -0.65162  -0.63601  -0.62650
 Alpha  occ. eigenvalues --   -0.62223  -0.62010  -0.61004  -0.59290  -0.59146
 Alpha  occ. eigenvalues --   -0.58786  -0.58633  -0.57957  -0.57163  -0.56984
 Alpha  occ. eigenvalues --   -0.56218  -0.55776  -0.55413  -0.55080  -0.54855
 Alpha  occ. eigenvalues --   -0.54224  -0.53811  -0.53327  -0.53163  -0.52512
 Alpha  occ. eigenvalues --   -0.52330  -0.51870  -0.51548  -0.50931  -0.50866
 Alpha  occ. eigenvalues --   -0.50430  -0.50163  -0.50087  -0.49939  -0.49663
 Alpha  occ. eigenvalues --   -0.49304  -0.49127  -0.48857  -0.48447  -0.48201
 Alpha  occ. eigenvalues --   -0.48027  -0.47854  -0.47456  -0.47349  -0.47180
 Alpha  occ. eigenvalues --   -0.46887  -0.46749  -0.46360  -0.46114  -0.45967
 Alpha  occ. eigenvalues --   -0.45524  -0.45521  -0.45404  -0.45332  -0.45069
 Alpha  occ. eigenvalues --   -0.44787  -0.44357  -0.44294  -0.44097  -0.44026
 Alpha  occ. eigenvalues --   -0.43819  -0.43780  -0.43655  -0.43450  -0.43079
 Alpha  occ. eigenvalues --   -0.42591  -0.42548  -0.42384  -0.42076  -0.42052
 Alpha  occ. eigenvalues --   -0.41945  -0.41691  -0.41623  -0.41470  -0.41305
 Alpha  occ. eigenvalues --   -0.40910  -0.40820  -0.40286  -0.40226  -0.39945
 Alpha  occ. eigenvalues --   -0.39732  -0.39688  -0.39467  -0.39254  -0.38944
 Alpha  occ. eigenvalues --   -0.38702  -0.38618  -0.38450  -0.38343  -0.38319
 Alpha  occ. eigenvalues --   -0.38102  -0.37996  -0.37549  -0.37156  -0.36957
 Alpha  occ. eigenvalues --   -0.36798  -0.36473  -0.36425  -0.35714  -0.35492
 Alpha  occ. eigenvalues --   -0.35245  -0.35185  -0.35030  -0.34453  -0.34322
 Alpha  occ. eigenvalues --   -0.34020  -0.33630  -0.33593  -0.33543  -0.33474
 Alpha  occ. eigenvalues --   -0.32893  -0.32489  -0.32045  -0.31939  -0.31630
 Alpha  occ. eigenvalues --   -0.31532  -0.31183  -0.30958  -0.30831  -0.30077
 Alpha  occ. eigenvalues --   -0.29518  -0.28930  -0.28606  -0.28433  -0.27139
 Alpha  occ. eigenvalues --   -0.27109  -0.26577  -0.23197  -0.21930
 Alpha virt. eigenvalues --   -0.09218  -0.06141  -0.01359  -0.00837   0.00205
 Alpha virt. eigenvalues --    0.01491   0.02928   0.03072   0.03626   0.04869
 Alpha virt. eigenvalues --    0.05051   0.05695   0.07574   0.08349   0.08922

 Mulliken charges:
               1
     1  Mg   0.829177
     2  C    0.029888
     3  C   -0.171983
     4  C   -0.172441
     5  C   -0.180129
     6  N   -0.647615
     7  C    0.311657
     8  C   -0.084373
     9  C   -0.144067
    10  C    0.354743
    11  C   -0.289077
    12  C   -0.161412
    13  C   -0.290988
    14  C    0.624904
    15  O   -0.480822
    16  O   -0.452792
    17  N   -0.734822
    18  C    0.275833
    19  C    0.035599
    20  C   -0.094828
    21  C    0.381958
    22  C   -0.392405
    23  C    0.255570
    24  O   -0.437086
    25  N   -0.705481
    26  C    0.266654
    27  C    0.006348
    28  C   -0.037599
    29  C    0.378111
    30  C    0.250156
    31  C   -0.235130
    32  C   -0.312792
    33  N   -0.683766
    34  C    0.268703
    35  C   -0.013368
    36  C    0.057800
    37  C    0.272566
    38  C   -0.383099
    39  C    0.366983
    40  O   -0.433193
    41  C   -0.315036
    42  C    0.627049
    43  O   -0.480073
    44  O   -0.448564
    45  C   -0.081388
    46  C   -0.008486
    47  C   -0.164113
    48  C    0.147802
    49  C   -0.384015
    50  C   -0.206724
    51  C   -0.173399
    52  C   -0.143671
    53  C   -0.047372
    54  C   -0.315261
    55  C   -0.150826
    56  C   -0.186198
    57  C   -0.168907
    58  C   -0.070692
    59  C   -0.302420
    60  C   -0.159468
    61  C   -0.187552
    62  C   -0.117423
    63  C   -0.072770
    64  C   -0.288207
    65  C   -0.304256
    66  H    0.100669
    67  H    0.146308
    68  H    0.089712
    69  H    0.097031
    70  H    0.066139
    71  H    0.115653
    72  H    0.110960
    73  H    0.107134
    74  H    0.111368
    75  H    0.123968
    76  H    0.125268
    77  H    0.145265
    78  H    0.117261
    79  H    0.156104
    80  H    0.126182
    81  H    0.073029
    82  H    0.129622
    83  H    0.112129
    84  H    0.120947
    85  H    0.104838
    86  H    0.111162
    87  H    0.128457
    88  H    0.144429
    89  H    0.145931
    90  H    0.154332
    91  H    0.106281
    92  H    0.132614
    93  H    0.080938
    94  H    0.162619
    95  H    0.065337
    96  H    0.127971
    97  H    0.109752
    98  H    0.092871
    99  H    0.103876
   100  H    0.071363
   101  H    0.093046
   102  H    0.089910
   103  H    0.088853
   104  H    0.082147
   105  H    0.115016
   106  H    0.088834
   107  H    0.057009
   108  H    0.057193
   109  H    0.088814
   110  H    0.090399
   111  H    0.086554
   112  H    0.088510
   113  H    0.082531
   114  H    0.106713
   115  H    0.084592
   116  H    0.077753
   117  H    0.106039
   118  H    0.090542
   119  H    0.089625
   120  H    0.103956
   121  H    0.023717
   122  H    0.077204
   123  H    0.064021
   124  H    0.102225
   125  H    0.103365
   126  H    0.087837
   127  H    0.105937
   128  H    0.102399
   129  H    0.093489
   130  H    0.114249
   131  H    0.141718
   132  H    0.121543
   133  O   -0.417818
   134  H    0.069143
 Sum of Mulliken charges =   0.00000

 Dipole moment (field-independent basis, Debye):
    X=              0.2861    Y=             -5.4951    Z=             -2.2657  Tot=              5.9507
 Quadrupole moment (field-independent basis, Debye-Ang):
   XX=           -351.2257   YY=           -442.7452   ZZ=           -395.6431
   XY=              8.7225   XZ=             30.4573   YZ=            -38.4101

 Normal termination of Gaussian 09 at Fri Oct  4 19:24:08 2019.
