 Gaussian 09, Revision D.01,
 Gaussian 09:  ES64L-G09RevD.01 24-Apr-2013

 ----------------------------------------------------------------------
 # td=(NStates=1) iop(3/107=0140000000,3/108=0140000000) iop(3/107=0140
 000000,3/108=0140000000) CAM-B3LYP/6-31G(d,p)
 ----------------------------------------------------------------------

 --
 TD
 --
 Symbolic Z-matrix:
 Charge =  0 Multiplicity = 1

                         Standard orientation:
 ---------------------------------------------------------------------
 Center     Atomic      Atomic             Coordinates (Angstroms)
 Number     Number       Type             X           Y           Z
 ---------------------------------------------------------------------
      1         12           0       -5.588892    1.199429    0.243526
      2          6           0       -4.938610   -2.163619   -0.361023
      3          6           0       -3.356616    1.184308    2.662464
      4          6           0       -6.244835    4.605419    0.625867
      5          6           0       -7.931480    1.131931   -2.261226
      6          7           0       -4.305716   -0.364346    0.942513
      7          6           0       -4.210576   -1.554724    0.649652
      8          6           0       -3.140351   -2.266477    1.556880
      9          6           0       -2.875399   -1.295981    2.607857
     10          6           0       -3.516752   -0.075053    2.059076
     11          6           0       -3.483261   -1.776958    4.001692
     12          6           0       -1.935573   -2.753449    0.694279
     13          6           0       -0.968717   -3.593029    1.533956
     14          6           0        0.260867   -3.801821    0.663088
     15          8           0        0.548906   -3.232898   -0.393838
     16          8           0        0.979580   -4.805170    1.235142
     17          7           0       -4.841592    2.663708    1.388960
     18          6           0       -3.827824    2.496066    2.386221
     19          6           0       -3.618468    3.755163    3.104204
     20          6           0       -4.469486    4.608671    2.478765
     21          6           0       -5.206451    3.940847    1.475899
     22          6           0       -2.510711    3.892127    4.203821
     23          6           0       -4.660585    5.992614    2.903732
     24          8           0       -3.909425    6.526478    3.739667
     25          7           0       -6.795838    2.630698   -0.710605
     26          6           0       -6.919376    3.901513   -0.361359
     27          6           0       -7.896083    4.587157   -1.240706
     28          6           0       -8.483087    3.531852   -2.018979
     29          6           0       -7.681716    2.452287   -1.732477
     30          6           0       -8.263662    6.033680   -1.198351
     31          6           0       -9.482443    3.711555   -3.092182
     32          6           0       -8.983106    3.991978   -4.564738
     33          7           0       -6.429630   -0.171791   -1.079698
     34          6           0       -7.353135   -0.073525   -2.042610
     35          6           0       -7.562426   -1.356412   -2.690704
     36          6           0       -6.717763   -2.221517   -2.013949
     37          6           0       -5.994002   -1.436404   -1.005836
     38          6           0       -8.578477   -1.665894   -3.782635
     39          6           0       -6.180550   -3.657083   -2.006387
     40          8           0       -6.489220   -4.682008   -2.619050
     41          6           0       -4.996016   -3.537111   -0.932092
     42          6           0       -5.234835   -4.589712    0.184086
     43          8           0       -5.682681   -4.376849    1.315606
     44          8           0       -4.944197   -5.768237   -0.279077
     45          6           0       -5.392559   -6.834337    0.629211
     46          6           0        2.322956   -5.045491    0.547222
     47          6           0        3.335630   -4.048861    0.975222
     48          6           0        4.017717   -3.262235   -0.008891
     49          6           0        3.790017   -3.223615   -1.450226
     50          6           0        5.004711   -2.300136    0.573761
     51          6           0        6.513034   -2.574328    0.061334
     52          6           0        7.539282   -1.695902    0.614177
     53          6           0        8.870794   -1.907518   -0.082519
     54          6           0        9.273687   -3.406368    0.120538
     55          6           0        9.897695   -0.879179    0.480711
     56          6           0       11.251166   -0.803567   -0.221244
     57          6           0       12.230070    0.270181    0.314237
     58          6           0       13.496668    0.359256   -0.566959
     59          6           0       14.449646   -0.831073   -0.327592
     60          6           0       14.113545    1.700453   -0.193152
     61          6           0       15.423090    2.037669   -0.941843
     62          6           0       16.052499    3.566579   -0.717569
     63          6           0       17.354785    3.888346   -1.424574
     64          6           0       17.149405    3.892902   -2.873796
     65          6           0       17.967662    5.171454   -0.787129
     66          1           0       -2.505317    1.069651    3.500734
     67          1           0       -6.257912    5.772715    0.697265
     68          1           0       -8.565526    1.221942   -3.023240
     69          1           0       -3.766102   -3.171018    1.933169
     70          1           0       -1.762627   -1.203119    3.029341
     71          1           0       -2.686811   -2.743410    4.277840
     72          1           0       -3.438200   -1.037123    4.784333
     73          1           0       -4.428279   -2.265754    3.860718
     74          1           0       -2.506116   -3.349999   -0.115912
     75          1           0       -1.373385   -2.004808    0.059565
     76          1           0       -0.570774   -2.885459    2.349338
     77          1           0       -1.441071   -4.376271    1.958187
     78          1           0       -1.526734    3.456787    3.782493
     79          1           0       -2.404362    4.945309    4.420423
     80          1           0       -2.824770    3.296570    4.909960
     81          1           0       -5.681846    6.576901    2.457711
     82          1           0      -10.124582    3.158481   -2.921620
     83          1           0      -10.150118    4.549011   -2.965915
     84          1           0       -9.728671    3.974101   -5.132904
     85          1           0       -8.344926    4.975228   -4.619466
     86          1           0       -8.230503    3.232057   -4.950596
     87          1           0       -8.370370   -1.258313   -4.825330
     88          1           0       -8.728351   -2.849871   -3.889082
     89          1           0       -9.428068   -1.075131   -3.731223
     90          1           0       -4.089609   -3.804478   -1.388427
     91          1           0        2.644191   -6.158029    0.744867
     92          1           0        2.204061   -4.857663   -0.447725
     93          1           0        3.393851   -4.096264    2.078389
     94          1           0        2.737198   -3.315527   -1.747868
     95          1           0        4.039887   -2.358866   -1.959874
     96          1           0        4.388546   -4.047769   -2.042599
     97          1           0        4.737388   -1.331587    0.318263
     98          1           0        5.042666   -2.331732    1.688071
     99          1           0        6.688942   -3.583022    0.026280
    100          1           0        6.499265   -2.483632   -1.218797
    101          1           0        7.182892   -0.545463    0.527543
    102          1           0        7.502385   -1.883521    1.744676
    103          1           0        8.556703   -1.768173   -1.100528
    104          1           0        8.676883   -4.191880   -0.357782
    105          1           0       10.392231   -3.561791    0.019446
    106          1           0        9.320686   -3.589082    1.204917
    107          1           0        9.449291    0.174013    0.462534
    108          1           0       10.074331   -1.116285    1.557660
    109          1           0       11.909808   -1.696868   -0.203974
    110          1           0       11.138324   -0.434444   -1.371608
    111          1           0       11.685342    1.347555    0.039886
    112          1           0       12.470916    0.152868    1.375139
    113          1           0       13.157646    0.363429   -1.607042
    114          1           0       14.560106   -1.029875    0.754093
    115          1           0       13.885151   -1.669702   -0.905036
    116          1           0       15.403687   -0.517606   -0.862462
    117          1           0       13.271314    2.479058   -0.490312
    118          1           0       14.377876    1.806254    0.907802
    119          1           0       16.075951    1.190129   -0.719557
    120          1           0       15.356764    1.992159   -2.065253
    121          1           0       15.355740    4.468716   -0.894242
    122          1           0       16.247312    3.681371    0.417190
    123          1           0       18.049199    2.914456   -1.087847
    124          1           0       16.363966    4.735264   -2.977490
    125          1           0       18.108115    4.071092   -3.403213
    126          1           0       16.634197    2.983181   -3.153384
    127          1           0       17.932842    5.444618    0.280966
    128          1           0       18.963436    5.515253   -1.281068
    129          1           0       17.174345    5.868329   -0.931421
    130          1           0       -5.148010   -7.676720    0.191139
    131          1           0       -6.494532   -6.798487    0.782712
    132          1           0       -4.934702   -6.945361    1.645926
    133          8           0       -7.963198    6.840527   -0.303441
    134          1           0       -8.983111    6.446069   -1.909588
 ---------------------------------------------------------------------

 SCF Done:  E(RCAM-B3LYP) =  -3043.43777138     A.U. after   16 cycles

 Excitation energies and oscillator strengths:

 Excited State   1:      Singlet-A      2.0182 eV  614.33 nm  f=0.1635  <S**2>=0.000
     243 -> 246        0.28175
     244 -> 245        0.64054
 This state for optimization and/or second-order correction.
 Total Energy, E(TD-HF/TD-KS) =  -3043.36360345
 Copying the excited state density for this state as the 1-particle RhoCI density.

 The electronic state is 1-A.
 Alpha  occ. eigenvalues --  -46.82209 -19.24417 -19.22119 -19.18643 -19.17452
 Alpha  occ. eigenvalues --  -19.17215 -19.16793 -19.16669 -14.38696 -14.36867
 Alpha  occ. eigenvalues --  -14.36437 -14.36142 -10.35340 -10.35210 -10.33212
 Alpha  occ. eigenvalues --  -10.30868 -10.30246 -10.27450 -10.27209 -10.26832
 Alpha  occ. eigenvalues --  -10.26752 -10.26670 -10.26097 -10.25979 -10.25758
 Alpha  occ. eigenvalues --  -10.25720 -10.25691 -10.25580 -10.24998 -10.24549
 Alpha  occ. eigenvalues --  -10.24477 -10.24473 -10.24328 -10.24132 -10.23896
 Alpha  occ. eigenvalues --  -10.23846 -10.23621 -10.23619 -10.23592 -10.23496
 Alpha  occ. eigenvalues --  -10.23445 -10.23321 -10.23247 -10.22565 -10.22521
 Alpha  occ. eigenvalues --  -10.22384 -10.22213 -10.22139 -10.22105 -10.22088
 Alpha  occ. eigenvalues --  -10.22068 -10.21973 -10.21955 -10.21928 -10.21807
 Alpha  occ. eigenvalues --  -10.21722 -10.21665 -10.21635 -10.21578 -10.21406
 Alpha  occ. eigenvalues --  -10.21391 -10.21331 -10.21212 -10.20968 -10.20664
 Alpha  occ. eigenvalues --  -10.20509  -3.10662  -1.85610  -1.85130  -1.85065
 Alpha  occ. eigenvalues --   -1.15530  -1.11578  -1.06941  -1.05155  -1.04908
 Alpha  occ. eigenvalues --   -1.04363  -1.03486  -1.03448  -1.01147  -1.00349
 Alpha  occ. eigenvalues --   -0.99106  -0.88498  -0.86374  -0.86156  -0.86103
 Alpha  occ. eigenvalues --   -0.85242  -0.84470  -0.83977  -0.83792  -0.83306
 Alpha  occ. eigenvalues --   -0.83039  -0.82678  -0.81533  -0.80033  -0.79601
 Alpha  occ. eigenvalues --   -0.78855  -0.78245  -0.77704  -0.77299  -0.76137
 Alpha  occ. eigenvalues --   -0.74944  -0.74569  -0.73881  -0.73608  -0.72711
 Alpha  occ. eigenvalues --   -0.71844  -0.71729  -0.70746  -0.70466  -0.69575
 Alpha  occ. eigenvalues --   -0.69308  -0.68877  -0.68161  -0.66797  -0.65873
 Alpha  occ. eigenvalues --   -0.65083  -0.64557  -0.64297  -0.62445  -0.61981
 Alpha  occ. eigenvalues --   -0.61348  -0.60780  -0.59858  -0.59589  -0.58913
 Alpha  occ. eigenvalues --   -0.58807  -0.58690  -0.57903  -0.57411  -0.56723
 Alpha  occ. eigenvalues --   -0.56702  -0.56225  -0.55593  -0.55124  -0.54708
 Alpha  occ. eigenvalues --   -0.54309  -0.54090  -0.53280  -0.52682  -0.52309
 Alpha  occ. eigenvalues --   -0.51496  -0.51359  -0.51309  -0.50587  -0.50315
 Alpha  occ. eigenvalues --   -0.49936  -0.49566  -0.49446  -0.48854  -0.48699
 Alpha  occ. eigenvalues --   -0.48557  -0.48224  -0.48176  -0.47981  -0.47620
 Alpha  occ. eigenvalues --   -0.47324  -0.47255  -0.47172  -0.47063  -0.46669
 Alpha  occ. eigenvalues --   -0.46438  -0.46210  -0.45957  -0.45819  -0.45694
 Alpha  occ. eigenvalues --   -0.45392  -0.45265  -0.45214  -0.45155  -0.44823
 Alpha  occ. eigenvalues --   -0.44468  -0.44179  -0.43981  -0.43877  -0.43706
 Alpha  occ. eigenvalues --   -0.43387  -0.43276  -0.43028  -0.42724  -0.42606
 Alpha  occ. eigenvalues --   -0.42575  -0.42371  -0.42028  -0.41995  -0.41935
 Alpha  occ. eigenvalues --   -0.41559  -0.41431  -0.41312  -0.41103  -0.41020
 Alpha  occ. eigenvalues --   -0.40902  -0.40780  -0.40665  -0.40542  -0.40244
 Alpha  occ. eigenvalues --   -0.40088  -0.40033  -0.39839  -0.39661  -0.39459
 Alpha  occ. eigenvalues --   -0.39349  -0.39188  -0.38723  -0.38587  -0.38128
 Alpha  occ. eigenvalues --   -0.38119  -0.37933  -0.37681  -0.37326  -0.37317
 Alpha  occ. eigenvalues --   -0.36952  -0.36540  -0.36249  -0.36093  -0.35717
 Alpha  occ. eigenvalues --   -0.35638  -0.35103  -0.35066  -0.34602  -0.34528
 Alpha  occ. eigenvalues --   -0.34168  -0.34083  -0.33658  -0.33593  -0.33208
 Alpha  occ. eigenvalues --   -0.32687  -0.32388  -0.32010  -0.31908  -0.31634
 Alpha  occ. eigenvalues --   -0.31319  -0.30904  -0.30699  -0.30527  -0.29793
 Alpha  occ. eigenvalues --   -0.28749  -0.28547  -0.28165  -0.27788  -0.27342
 Alpha  occ. eigenvalues --   -0.27083  -0.25980  -0.22316  -0.21460
 Alpha virt. eigenvalues --   -0.08530  -0.06440  -0.01789  -0.00114   0.00250
 Alpha virt. eigenvalues --    0.01795   0.03106   0.03480   0.03572   0.04270
 Alpha virt. eigenvalues --    0.04788   0.06482   0.08071   0.08609   0.09069

 Mulliken charges:
               1
     1  Mg   0.832964
     2  C    0.063929
     3  C   -0.214138
     4  C   -0.159235
     5  C   -0.171045
     6  N   -0.620199
     7  C    0.356858
     8  C   -0.176512
     9  C   -0.140458
    10  C    0.335969
    11  C   -0.295394
    12  C   -0.180117
    13  C   -0.244783
    14  C    0.624145
    15  O   -0.483791
    16  O   -0.484785
    17  N   -0.713034
    18  C    0.255163
    19  C    0.047382
    20  C   -0.048468
    21  C    0.333127
    22  C   -0.349019
    23  C    0.230797
    24  O   -0.429485
    25  N   -0.677403
    26  C    0.326533
    27  C   -0.052188
    28  C    0.006848
    29  C    0.276760
    30  C    0.229229
    31  C   -0.191921
    32  C   -0.303196
    33  N   -0.722010
    34  C    0.312579
    35  C    0.051645
    36  C   -0.032556
    37  C    0.300727
    38  C   -0.385863
    39  C    0.396000
    40  O   -0.450048
    41  C   -0.340554
    42  C    0.615952
    43  O   -0.496891
    44  O   -0.411367
    45  C   -0.096580
    46  C   -0.006248
    47  C   -0.138920
    48  C    0.135384
    49  C   -0.392634
    50  C   -0.224006
    51  C   -0.170946
    52  C   -0.146293
    53  C   -0.040202
    54  C   -0.331697
    55  C   -0.168101
    56  C   -0.168037
    57  C   -0.157760
    58  C   -0.059960
    59  C   -0.303563
    60  C   -0.153093
    61  C   -0.194677
    62  C   -0.179234
    63  C   -0.031372
    64  C   -0.281592
    65  C   -0.315085
    66  H    0.074405
    67  H    0.149972
    68  H    0.057970
    69  H    0.128013
    70  H    0.101682
    71  H    0.062133
    72  H    0.119762
    73  H    0.138536
    74  H    0.089657
    75  H    0.137246
    76  H    0.129457
    77  H    0.140618
    78  H    0.111426
    79  H    0.163011
    80  H    0.137700
    81  H    0.065690
    82  H    0.098512
    83  H    0.103478
    84  H    0.126716
    85  H    0.106121
    86  H    0.102379
    87  H    0.121719
    88  H    0.140385
    89  H    0.134055
    90  H    0.165449
    91  H    0.108415
    92  H    0.131859
    93  H    0.096785
    94  H    0.154997
    95  H    0.130360
    96  H    0.108356
    97  H    0.113567
    98  H    0.094476
    99  H    0.114489
   100  H    0.030776
   101  H    0.067745
   102  H    0.082073
   103  H    0.094749
   104  H    0.114476
   105  H    0.094344
   106  H    0.101191
   107  H    0.089614
   108  H    0.088762
   109  H    0.090988
   110  H    0.065838
   111  H    0.054758
   112  H    0.088907
   113  H    0.089024
   114  H    0.106518
   115  H    0.096426
   116  H    0.099771
   117  H    0.074974
   118  H    0.087104
   119  H    0.097472
   120  H    0.083012
   121  H    0.075968
   122  H    0.077624
   123  H    0.047680
   124  H    0.084643
   125  H    0.102605
   126  H    0.111932
   127  H    0.105917
   128  H    0.092996
   129  H    0.098031
   130  H    0.132094
   131  H    0.139524
   132  H    0.128380
   133  O   -0.427340
   134  H    0.074499
 Sum of Mulliken charges =   0.00000

 Dipole moment (field-independent basis, Debye):
    X=              1.4939    Y=             -5.8689    Z=             -1.6915  Tot=              6.2878
 Quadrupole moment (field-independent basis, Debye-Ang):
   XX=           -376.8494   YY=           -437.8805   ZZ=           -392.1377
   XY=             10.1357   XZ=             30.2532   YZ=            -36.5358

 Normal termination of Gaussian 09 at Tue Oct  8 01:28:01 2019.
