 Gaussian 09, Revision D.01,
 Gaussian 09:  ES64L-G09RevD.01 24-Apr-2013

 ----------------------------------------------------------------------
 # td=(NStates=1) iop(3/107=0140000000,3/108=0140000000) iop(3/107=0140
 000000,3/108=0140000000) CAM-B3LYP/6-31G(d,p)
 ----------------------------------------------------------------------

 --
 TD
 --
 Symbolic Z-matrix:
 Charge =  0 Multiplicity = 1

                         Standard orientation:
 ---------------------------------------------------------------------
 Center     Atomic      Atomic             Coordinates (Angstroms)
 Number     Number       Type             X           Y           Z
 ---------------------------------------------------------------------
      1         12           0       -5.522190    1.216003    0.162673
      2          6           0       -5.030960   -2.145077   -0.407272
      3          6           0       -3.491389    1.096591    2.782096
      4          6           0       -6.177477    4.493559    0.731689
      5          6           0       -7.809724    1.295354   -2.440512
      6          7           0       -4.444370   -0.332630    1.114654
      7          6           0       -4.308946   -1.682363    0.638348
      8          6           0       -3.278581   -2.382722    1.463455
      9          6           0       -2.941095   -1.405662    2.592421
     10          6           0       -3.597680   -0.142215    2.156779
     11          6           0       -3.413768   -1.804780    4.061358
     12          6           0       -1.992165   -2.591153    0.580923
     13          6           0       -1.133594   -3.672748    1.271236
     14          6           0        0.208202   -3.811156    0.535558
     15          8           0        0.349648   -3.499040   -0.627772
     16          8           0        1.013982   -4.731243    1.136576
     17          7           0       -4.897518    2.628578    1.554670
     18          6           0       -3.990972    2.352411    2.619814
     19          6           0       -3.732108    3.583482    3.188385
     20          6           0       -4.548031    4.579558    2.607873
     21          6           0       -5.255435    3.948541    1.591222
     22          6           0       -2.811318    3.688327    4.357671
     23          6           0       -4.480238    5.994421    2.932240
     24          8           0       -3.906247    6.474119    3.978215
     25          7           0       -6.765004    2.701646   -0.722903
     26          6           0       -6.847320    3.940842   -0.368014
     27          6           0       -7.817642    4.668157   -1.228739
     28          6           0       -8.342561    3.730237   -2.030831
     29          6           0       -7.634364    2.489008   -1.742681
     30          6           0       -8.247279    6.031280   -1.115327
     31          6           0       -9.392185    3.966480   -3.165967
     32          6           0       -8.789294    4.041466   -4.546764
     33          7           0       -6.327821   -0.126971   -1.130944
     34          6           0       -7.273252   -0.010712   -2.196586
     35          6           0       -7.501151   -1.313012   -2.775236
     36          6           0       -6.574795   -2.103631   -2.212677
     37          6           0       -5.897572   -1.383131   -1.189682
     38          6           0       -8.537411   -1.703774   -3.777538
     39          6           0       -6.158067   -3.463899   -2.045278
     40          8           0       -6.550015   -4.469824   -2.765245
     41          6           0       -5.213003   -3.567678   -0.945560
     42          6           0       -5.469440   -4.556576    0.165995
     43          8           0       -5.882718   -4.314891    1.306875
     44          8           0       -5.237312   -5.810604   -0.355627
     45          6           0       -5.509339   -6.816377    0.626904
     46          6           0        2.370994   -5.130844    0.525332
     47          6           0        3.332152   -4.053366    0.990575
     48          6           0        3.907018   -3.180869    0.097982
     49          6           0        3.602470   -2.989208   -1.446790
     50          6           0        5.149830   -2.344959    0.734420
     51          6           0        6.482216   -2.542591    0.057648
     52          6           0        7.602325   -1.816401    0.714640
     53          6           0        8.974338   -2.001007   -0.054986
     54          6           0        9.568934   -3.382509    0.301902
     55          6           0       10.070969   -1.010440    0.461841
     56          6           0       11.375422   -0.893217   -0.304500
     57          6           0       12.180294    0.284030    0.154077
     58          6           0       13.545342    0.450779   -0.487479
     59          6           0       14.502963   -0.701409   -0.280094
     60          6           0       14.237665    1.671343   -0.127407
     61          6           0       15.452838    2.104339   -1.001194
     62          6           0       16.018838    3.501249   -0.688955
     63          6           0       17.386227    3.844331   -1.389968
     64          6           0       16.976679    4.013420   -2.928641
     65          6           0       18.078811    5.058016   -0.867405
     66          1           0       -2.862343    1.025656    3.756859
     67          1           0       -6.366597    5.548584    0.847684
     68          1           0       -8.645569    1.228784   -3.103691
     69          1           0       -3.602554   -3.237145    1.756550
     70          1           0       -1.958752   -1.240662    2.658993
     71          1           0       -3.260956   -2.819306    4.215907
     72          1           0       -3.182149   -1.168505    4.854553
     73          1           0       -4.503347   -2.005066    3.882951
     74          1           0       -2.254373   -3.028743   -0.271531
     75          1           0       -1.518012   -1.489984    0.616289
     76          1           0       -0.714403   -3.211643    2.266549
     77          1           0       -1.494858   -4.655180    1.565871
     78          1           0       -1.777294    3.437784    4.113125
     79          1           0       -2.707970    4.745992    4.613785
     80          1           0       -2.984961    2.895295    5.135059
     81          1           0       -5.061724    6.483204    2.273823
     82          1           0      -10.208422    3.189844   -3.150177
     83          1           0      -10.018567    4.769219   -2.735465
     84          1           0       -9.712286    4.001230   -5.180649
     85          1           0       -8.224601    4.984553   -4.730916
     86          1           0       -8.209538    3.178181   -4.841410
     87          1           0       -8.591084   -1.200749   -4.619523
     88          1           0       -8.390977   -2.666023   -4.233988
     89          1           0       -9.434346   -1.470297   -3.411942
     90          1           0       -4.105717   -3.921244   -1.175162
     91          1           0        2.390251   -6.007946    1.160285
     92          1           0        2.366949   -5.264751   -0.556786
     93          1           0        3.689941   -4.153060    2.068856
     94          1           0        2.610788   -3.482670   -1.821900
     95          1           0        3.633683   -2.098004   -1.836326
     96          1           0        4.480422   -3.420210   -1.708193
     97          1           0        5.095439   -1.400308    0.614697
     98          1           0        5.185811   -2.387628    1.866502
     99          1           0        6.593839   -3.617403    0.257234
    100          1           0        6.563457   -2.440486   -1.098090
    101          1           0        7.559419   -0.632916    0.883148
    102          1           0        7.716838   -2.238837    1.724005
    103          1           0        8.905569   -1.865933   -1.057475
    104          1           0        8.909564   -4.190854    0.038763
    105          1           0       10.558720   -3.669912   -0.303877
    106          1           0        9.955896   -3.378294    1.255330
    107          1           0        9.602384    0.029360    0.823897
    108          1           0       10.245984   -1.214525    1.599022
    109          1           0       12.019270   -1.798305   -0.100850
    110          1           0       11.048731   -0.825227   -1.307412
    111          1           0       11.417512    1.091732   -0.147101
    112          1           0       12.426733    0.090474    1.276656
    113          1           0       13.240416    0.493614   -1.438898
    114          1           0       14.864103   -0.886363    0.860607
    115          1           0       14.038270   -1.649266   -0.698389
    116          1           0       15.378537   -0.596408   -1.014487
    117          1           0       13.719187    2.694992    0.006393
    118          1           0       14.493056    1.450526    0.854141
    119          1           0       16.099520    1.199394   -0.800849
    120          1           0       15.390320    2.241702   -2.005804
    121          1           0       15.213418    4.165707   -1.019721
    122          1           0       16.174962    3.593712    0.467232
    123          1           0       18.143709    3.218717   -1.230105
    124          1           0       16.205920    4.859993   -3.055899
    125          1           0       17.856876    4.293861   -3.579857
    126          1           0       16.525230    3.158902   -3.241887
    127          1           0       18.423185    4.975100    0.216415
    128          1           0       18.972174    5.349277   -1.610419
    129          1           0       17.342554    5.925689   -0.926296
    130          1           0       -5.103864   -7.613100    0.103599
    131          1           0       -6.643671   -6.885151    0.732657
    132          1           0       -4.918933   -6.777308    1.530970
    133          8           0       -7.664732    6.852980   -0.407907
    134          1           0       -9.230585    6.247538   -1.722450
 ---------------------------------------------------------------------

 SCF Done:  E(RCAM-B3LYP) =  -3043.45239082     A.U. after   16 cycles

 Excitation energies and oscillator strengths:

 Excited State   1:      Singlet-A      2.0228 eV  612.94 nm  f=0.1995  <S**2>=0.000
     243 -> 246       -0.24279
     244 -> 245        0.65467
 This state for optimization and/or second-order correction.
 Total Energy, E(TD-HF/TD-KS) =  -3043.37805554
 Copying the excited state density for this state as the 1-particle RhoCI density.

 The electronic state is 1-A.
 Alpha  occ. eigenvalues --  -46.81692 -19.23492 -19.20712 -19.18814 -19.17507
 Alpha  occ. eigenvalues --  -19.16404 -19.16383 -19.15811 -14.38899 -14.37017
 Alpha  occ. eigenvalues --  -14.36557 -14.35467 -10.36369 -10.34160 -10.30993
 Alpha  occ. eigenvalues --  -10.30775 -10.29144 -10.28098 -10.27633 -10.27168
 Alpha  occ. eigenvalues --  -10.27025 -10.26541 -10.26182 -10.26158 -10.26041
 Alpha  occ. eigenvalues --  -10.25594 -10.25355 -10.25341 -10.25131 -10.24966
 Alpha  occ. eigenvalues --  -10.24700 -10.24662 -10.24546 -10.24524 -10.23958
 Alpha  occ. eigenvalues --  -10.23809 -10.23620 -10.23536 -10.23162 -10.22790
 Alpha  occ. eigenvalues --  -10.22746 -10.22670 -10.22571 -10.22476 -10.22340
 Alpha  occ. eigenvalues --  -10.22290 -10.22107 -10.22092 -10.21888 -10.21796
 Alpha  occ. eigenvalues --  -10.21665 -10.21534 -10.21464 -10.21365 -10.21333
 Alpha  occ. eigenvalues --  -10.21218 -10.21050 -10.20864 -10.20758 -10.20666
 Alpha  occ. eigenvalues --  -10.20505 -10.20150 -10.20127 -10.19908 -10.19808
 Alpha  occ. eigenvalues --  -10.19786  -3.10116  -1.85072  -1.84589  -1.84505
 Alpha  occ. eigenvalues --   -1.13606  -1.11034  -1.06479  -1.05272  -1.02850
 Alpha  occ. eigenvalues --   -1.02464  -1.02407  -1.01982  -1.00003  -0.99184
 Alpha  occ. eigenvalues --   -0.98358  -0.89710  -0.86896  -0.86577  -0.85926
 Alpha  occ. eigenvalues --   -0.85831  -0.85022  -0.84452  -0.84086  -0.83488
 Alpha  occ. eigenvalues --   -0.83439  -0.82289  -0.81948  -0.81310  -0.80241
 Alpha  occ. eigenvalues --   -0.79759  -0.79108  -0.78772  -0.77818  -0.77048
 Alpha  occ. eigenvalues --   -0.76253  -0.76045  -0.74941  -0.73599  -0.73143
 Alpha  occ. eigenvalues --   -0.72107  -0.70799  -0.70508  -0.70161  -0.69793
 Alpha  occ. eigenvalues --   -0.69672  -0.69351  -0.68472  -0.67335  -0.67101
 Alpha  occ. eigenvalues --   -0.66790  -0.65210  -0.64876  -0.63828  -0.62580
 Alpha  occ. eigenvalues --   -0.62263  -0.61107  -0.60777  -0.60072  -0.59153
 Alpha  occ. eigenvalues --   -0.59151  -0.58616  -0.58464  -0.58036  -0.57438
 Alpha  occ. eigenvalues --   -0.57002  -0.56501  -0.56153  -0.55605  -0.54813
 Alpha  occ. eigenvalues --   -0.54175  -0.53850  -0.52999  -0.52903  -0.52717
 Alpha  occ. eigenvalues --   -0.52365  -0.51673  -0.51511  -0.51236  -0.50845
 Alpha  occ. eigenvalues --   -0.50284  -0.50057  -0.49868  -0.49387  -0.49295
 Alpha  occ. eigenvalues --   -0.48985  -0.48819  -0.48601  -0.48485  -0.48117
 Alpha  occ. eigenvalues --   -0.48069  -0.47800  -0.47455  -0.47052  -0.46986
 Alpha  occ. eigenvalues --   -0.46728  -0.46574  -0.46377  -0.46324  -0.46083
 Alpha  occ. eigenvalues --   -0.45607  -0.45451  -0.45203  -0.45102  -0.44889
 Alpha  occ. eigenvalues --   -0.44810  -0.44503  -0.44232  -0.43998  -0.43918
 Alpha  occ. eigenvalues --   -0.43802  -0.43476  -0.43300  -0.42993  -0.42833
 Alpha  occ. eigenvalues --   -0.42610  -0.42148  -0.42042  -0.41921  -0.41703
 Alpha  occ. eigenvalues --   -0.41565  -0.41464  -0.41256  -0.40922  -0.40677
 Alpha  occ. eigenvalues --   -0.40593  -0.40389  -0.40249  -0.40160  -0.40129
 Alpha  occ. eigenvalues --   -0.39867  -0.39762  -0.39724  -0.39490  -0.39120
 Alpha  occ. eigenvalues --   -0.38997  -0.38753  -0.38676  -0.38402  -0.38247
 Alpha  occ. eigenvalues --   -0.38124  -0.37753  -0.37709  -0.37541  -0.37444
 Alpha  occ. eigenvalues --   -0.37324  -0.37267  -0.37106  -0.36658  -0.36187
 Alpha  occ. eigenvalues --   -0.35756  -0.35327  -0.35115  -0.34785  -0.34527
 Alpha  occ. eigenvalues --   -0.34399  -0.34246  -0.34041  -0.33590  -0.32934
 Alpha  occ. eigenvalues --   -0.32865  -0.32406  -0.32076  -0.31945  -0.31837
 Alpha  occ. eigenvalues --   -0.31572  -0.31415  -0.30150  -0.30039  -0.29695
 Alpha  occ. eigenvalues --   -0.29509  -0.28323  -0.28284  -0.27252  -0.27180
 Alpha  occ. eigenvalues --   -0.27150  -0.26602  -0.22924  -0.21779
 Alpha virt. eigenvalues --   -0.08915  -0.06377  -0.02116  -0.00933  -0.00066
 Alpha virt. eigenvalues --    0.01840   0.02846   0.03200   0.03353   0.04152
 Alpha virt. eigenvalues --    0.05031   0.05692   0.07853   0.08500   0.09974

 Mulliken charges:
               1
     1  Mg   0.814306
     2  C    0.097575
     3  C   -0.228147
     4  C   -0.186744
     5  C   -0.180245
     6  N   -0.644707
     7  C    0.286282
     8  C   -0.145437
     9  C   -0.136849
    10  C    0.380055
    11  C   -0.325207
    12  C   -0.145939
    13  C   -0.280028
    14  C    0.585541
    15  O   -0.460375
    16  O   -0.498761
    17  N   -0.751234
    18  C    0.353894
    19  C    0.048413
    20  C   -0.036692
    21  C    0.366712
    22  C   -0.404245
    23  C    0.261792
    24  O   -0.459572
    25  N   -0.676879
    26  C    0.319878
    27  C    0.014581
    28  C    0.008563
    29  C    0.291076
    30  C    0.231470
    31  C   -0.239024
    32  C   -0.303890
    33  N   -0.732951
    34  C    0.223266
    35  C    0.027612
    36  C    0.050370
    37  C    0.299711
    38  C   -0.373161
    39  C    0.353693
    40  O   -0.509321
    41  C   -0.291561
    42  C    0.618524
    43  O   -0.472996
    44  O   -0.436316
    45  C   -0.088265
    46  C   -0.000139
    47  C   -0.129715
    48  C    0.091077
    49  C   -0.363451
    50  C   -0.220866
    51  C   -0.188155
    52  C   -0.170239
    53  C   -0.049280
    54  C   -0.304777
    55  C   -0.187884
    56  C   -0.167608
    57  C   -0.164496
    58  C   -0.036322
    59  C   -0.323916
    60  C   -0.160699
    61  C   -0.165240
    62  C   -0.188557
    63  C   -0.031003
    64  C   -0.325959
    65  C   -0.302036
    66  H    0.061061
    67  H    0.122943
    68  H    0.084886
    69  H    0.099557
    70  H    0.112625
    71  H    0.121254
    72  H    0.126782
    73  H    0.121522
    74  H    0.125636
    75  H    0.112331
    76  H    0.114873
    77  H    0.148625
    78  H    0.118000
    79  H    0.162784
    80  H    0.120004
    81  H    0.094967
    82  H    0.106944
    83  H    0.110438
    84  H    0.108667
    85  H    0.121464
    86  H    0.125733
    87  H    0.131404
    88  H    0.151816
    89  H    0.134169
    90  H    0.161633
    91  H    0.128171
    92  H    0.134615
    93  H    0.090461
    94  H    0.139144
    95  H    0.132278
    96  H    0.134795
    97  H    0.116891
    98  H    0.092202
    99  H    0.104744
   100  H    0.086397
   101  H    0.074792
   102  H    0.097614
   103  H    0.088719
   104  H    0.099565
   105  H    0.073339
   106  H    0.117576
   107  H    0.056877
   108  H    0.069248
   109  H    0.094927
   110  H    0.096325
   111  H    0.087841
   112  H    0.069466
   113  H    0.088937
   114  H    0.089464
   115  H    0.097406
   116  H    0.108838
   117  H    0.065792
   118  H    0.093470
   119  H    0.081039
   120  H    0.094032
   121  H    0.095713
   122  H    0.067024
   123  H    0.102230
   124  H    0.092816
   125  H    0.091029
   126  H    0.119927
   127  H    0.095801
   128  H    0.080569
   129  H    0.088276
   130  H    0.130719
   131  H    0.133629
   132  H    0.127776
   133  O   -0.427855
   134  H    0.061757
 Sum of Mulliken charges =   0.00000

 Dipole moment (field-independent basis, Debye):
    X=              2.4851    Y=             -5.8379    Z=             -2.0167  Tot=              6.6576
 Quadrupole moment (field-independent basis, Debye-Ang):
   XX=           -369.7509   YY=           -442.5142   ZZ=           -397.3178
   XY=             -4.1172   XZ=             21.6743   YZ=            -46.4734

 Normal termination of Gaussian 09 at Fri Oct  4 00:17:44 2019.
