 Gaussian 09, Revision D.01,
 Gaussian 09:  ES64L-G09RevD.01 24-Apr-2013

 ----------------------------------------------------------------------
 # td=(NStates=1) iop(3/107=0140000000,3/108=0140000000) iop(3/107=0140
 000000,3/108=0140000000) CAM-B3LYP/6-31G(d,p)
 ----------------------------------------------------------------------

 --
 TD
 --
 Symbolic Z-matrix:
 Charge =  0 Multiplicity = 1

                         Standard orientation:
 ---------------------------------------------------------------------
 Center     Atomic      Atomic             Coordinates (Angstroms)
 Number     Number       Type             X           Y           Z
 ---------------------------------------------------------------------
      1         12           0       -5.622078    1.186421    0.226460
      2          6           0       -4.933567   -2.159799   -0.426161
      3          6           0       -3.559313    1.162180    2.794594
      4          6           0       -6.298446    4.559733    0.608891
      5          6           0       -7.999036    1.038144   -2.408527
      6          7           0       -4.389894   -0.324622    1.041780
      7          6           0       -4.301828   -1.586893    0.689789
      8          6           0       -3.238117   -2.295589    1.549003
      9          6           0       -3.033663   -1.261678    2.701440
     10          6           0       -3.599996   -0.002949    2.095735
     11          6           0       -3.653399   -1.711850    4.039209
     12          6           0       -1.935027   -2.626237    0.721951
     13          6           0       -0.997563   -3.479361    1.597083
     14          6           0        0.263612   -3.825318    0.769958
     15          8           0        0.402269   -3.415314   -0.342190
     16          8           0        1.098725   -4.654847    1.454686
     17          7           0       -5.019707    2.645490    1.519472
     18          6           0       -4.115460    2.406017    2.457757
     19          6           0       -3.878758    3.644248    3.170542
     20          6           0       -4.701377    4.699134    2.599331
     21          6           0       -5.387892    3.983022    1.497768
     22          6           0       -2.943908    3.770843    4.393467
     23          6           0       -4.861666    6.017184    3.002940
     24          8           0       -4.173197    6.704623    3.787315
     25          7           0       -6.891623    2.565342   -0.698752
     26          6           0       -7.121948    3.925259   -0.293199
     27          6           0       -8.055980    4.517966   -1.271847
     28          6           0       -8.485563    3.481423   -2.105668
     29          6           0       -7.697715    2.301853   -1.795136
     30          6           0       -8.396416    5.998595   -1.314030
     31          6           0       -9.481648    3.756736   -3.202370
     32          6           0       -8.808647    3.955699   -4.637671
     33          7           0       -6.221801   -0.074128   -1.171662
     34          6           0       -7.368127   -0.068230   -2.057565
     35          6           0       -7.603632   -1.380662   -2.655341
     36          6           0       -6.567013   -2.193920   -2.092120
     37          6           0       -5.880583   -1.383976   -1.104365
     38          6           0       -8.521998   -1.735024   -3.830750
     39          6           0       -6.090669   -3.633186   -2.002693
     40          8           0       -6.453244   -4.627858   -2.591470
     41          6           0       -4.906340   -3.631934   -0.970746
     42          6           0       -5.014344   -4.707741    0.066564
     43          8           0       -5.546099   -4.556855    1.166026
     44          8           0       -4.745097   -5.898249   -0.452232
     45          6           0       -4.933005   -6.990928    0.367668
     46          6           0        2.359007   -4.982871    0.682052
     47          6           0        3.395537   -3.988567    1.037289
     48          6           0        4.082809   -3.196667    0.171895
     49          6           0        3.702443   -3.175252   -1.337973
     50          6           0        5.239315   -2.340368    0.611089
     51          6           0        6.589271   -2.739732   -0.055111
     52          6           0        7.711799   -1.839924    0.517603
     53          6           0        9.111411   -1.980880   -0.074007
     54          6           0        9.655802   -3.508068    0.248633
     55          6           0       10.056885   -0.980603    0.404017
     56          6           0       11.364993   -0.862341   -0.290590
     57          6           0       12.202287    0.400841    0.060832
     58          6           0       13.581756    0.467569   -0.568233
     59          6           0       14.407017   -0.691650   -0.262169
     60          6           0       14.255627    1.768268   -0.205595
     61          6           0       15.376090    2.245795   -1.113989
     62          6           0       16.014504    3.564536   -0.687890
     63          6           0       17.370469    3.971377   -1.427774
     64          6           0       17.163879    4.201041   -2.890740
     65          6           0       17.858236    5.277679   -0.587253
     66          1           0       -2.992666    1.033046    3.772095
     67          1           0       -6.577308    5.641350    0.802905
     68          1           0       -8.818385    1.017921   -3.122969
     69          1           0       -3.588531   -3.177437    1.839509
     70          1           0       -1.811955   -1.038521    3.050000
     71          1           0       -3.024350   -2.667513    4.428821
     72          1           0       -3.573781   -1.075875    4.817327
     73          1           0       -4.670601   -1.826600    4.049304
     74          1           0       -2.097749   -3.306993   -0.062731
     75          1           0       -1.410722   -1.681241    0.417320
     76          1           0       -0.488215   -2.909389    2.381248
     77          1           0       -1.681002   -4.371110    2.110792
     78          1           0       -1.829760    3.470131    4.157530
     79          1           0       -2.960958    4.739596    4.641074
     80          1           0       -3.413494    3.077461    5.109780
     81          1           0       -5.548766    6.536578    2.297558
     82          1           0      -10.172099    2.834240   -3.385011
     83          1           0      -10.119339    4.457332   -2.971228
     84          1           0       -9.676300    4.092769   -5.616696
     85          1           0       -8.154091    4.931439   -4.814856
     86          1           0       -8.051261    3.148417   -4.738045
     87          1           0       -8.328214   -1.119887   -4.732152
     88          1           0       -8.467599   -2.717471   -4.156166
     89          1           0       -9.503753   -1.422371   -3.382900
     90          1           0       -3.977207   -3.773979   -1.708564
     91          1           0        2.654318   -5.925432    1.149662
     92          1           0        2.135411   -5.012495   -0.472016
     93          1           0        3.819106   -3.977194    2.163223
     94          1           0        2.639769   -3.297901   -1.436125
     95          1           0        3.863194   -2.139293   -1.714997
     96          1           0        4.478736   -3.863668   -1.982559
     97          1           0        4.938508   -1.243369    0.262992
     98          1           0        5.447734   -2.444365    1.725798
     99          1           0        6.761341   -3.759256    0.154963
    100          1           0        6.478379   -2.561902   -1.057404
    101          1           0        7.468274   -0.869311    0.361709
    102          1           0        7.586085   -1.869333    1.654280
    103          1           0        9.103680   -2.083321   -1.083584
    104          1           0        8.908733   -4.287804   -0.057498
    105          1           0       10.784269   -3.616455   -0.297180
    106          1           0        9.745155   -3.682169    1.357981
    107          1           0        9.320846   -0.041059    0.191978
    108          1           0       10.046662   -1.095298    1.581890
    109          1           0       11.871080   -1.744845   -0.032766
    110          1           0       11.360539   -0.753944   -1.458897
    111          1           0       11.705520    1.411364   -0.006968
    112          1           0       12.435992    0.387204    1.205057
    113          1           0       13.244085    0.379413   -1.585372
    114          1           0       14.716660   -0.828984    0.910403
    115          1           0       13.904450   -1.674002   -0.625082
    116          1           0       15.404612   -0.617742   -0.863953
    117          1           0       13.572017    2.476496   -0.205148
    118          1           0       14.706268    1.825752    0.747346
    119          1           0       16.255348    1.491630   -1.159497
    120          1           0       14.906834    2.511471   -2.194823
    121          1           0       15.290387    4.575297   -0.719034
    122          1           0       16.416180    3.567499    0.517810
    123          1           0       18.063720    3.096402   -1.222608
    124          1           0       16.363746    4.903794   -3.184495
    125          1           0       18.062578    4.788665   -3.262895
    126          1           0       16.827831    3.476496   -3.422396
    127          1           0       17.967787    5.287524    0.527929
    128          1           0       18.746987    5.718719   -1.177950
    129          1           0       17.204995    6.078878   -0.875097
    130          1           0       -4.527805   -7.825340   -0.393993
    131          1           0       -6.003955   -7.232140    0.727623
    132          1           0       -4.395279   -6.849915    1.343691
    133          8           0       -7.976400    6.745566   -0.514925
    134          1           0       -9.412864    6.212234   -2.012559
 ---------------------------------------------------------------------

 SCF Done:  E(RCAM-B3LYP) =  -3043.48246378     A.U. after   15 cycles

 Excitation energies and oscillator strengths:

 Excited State   1:      Singlet-A      2.0630 eV  601.00 nm  f=0.1697  <S**2>=0.000
     243 -> 246       -0.27156
     244 -> 245        0.63934
 This state for optimization and/or second-order correction.
 Total Energy, E(TD-HF/TD-KS) =  -3043.40665138
 Copying the excited state density for this state as the 1-particle RhoCI density.

 The electronic state is 1-A.
 Alpha  occ. eigenvalues --  -46.81085 -19.24073 -19.22307 -19.18803 -19.18266
 Alpha  occ. eigenvalues --  -19.17935 -19.17771 -19.15843 -14.38772 -14.37161
 Alpha  occ. eigenvalues --  -14.37147 -14.37144 -10.36051 -10.35057 -10.32852
 Alpha  occ. eigenvalues --  -10.32209 -10.29159 -10.28812 -10.28653 -10.27787
 Alpha  occ. eigenvalues --  -10.26989 -10.26941 -10.26728 -10.26723 -10.26629
 Alpha  occ. eigenvalues --  -10.26587 -10.26582 -10.26274 -10.26146 -10.25765
 Alpha  occ. eigenvalues --  -10.25054 -10.24676 -10.24594 -10.24288 -10.24243
 Alpha  occ. eigenvalues --  -10.24218 -10.24007 -10.23716 -10.23708 -10.23650
 Alpha  occ. eigenvalues --  -10.23597 -10.23293 -10.23241 -10.23214 -10.23150
 Alpha  occ. eigenvalues --  -10.22943 -10.22939 -10.22923 -10.22832 -10.22575
 Alpha  occ. eigenvalues --  -10.22525 -10.22466 -10.22301 -10.22193 -10.21989
 Alpha  occ. eigenvalues --  -10.21842 -10.21719 -10.21493 -10.21272 -10.21167
 Alpha  occ. eigenvalues --  -10.21039 -10.20784 -10.20694 -10.20643 -10.19347
 Alpha  occ. eigenvalues --  -10.18906  -3.09777  -1.84714  -1.84232  -1.84206
 Alpha  occ. eigenvalues --   -1.16274  -1.12951  -1.10724  -1.08207  -1.05582
 Alpha  occ. eigenvalues --   -1.05310  -1.03727  -1.01752  -0.99831  -0.99046
 Alpha  occ. eigenvalues --   -0.97055  -0.88425  -0.86726  -0.85949  -0.85395
 Alpha  occ. eigenvalues --   -0.85164  -0.84640  -0.84279  -0.83869  -0.83313
 Alpha  occ. eigenvalues --   -0.82728  -0.82261  -0.81506  -0.80995  -0.80078
 Alpha  occ. eigenvalues --   -0.78762  -0.78426  -0.77982  -0.76752  -0.76485
 Alpha  occ. eigenvalues --   -0.75425  -0.75027  -0.74063  -0.73160  -0.72510
 Alpha  occ. eigenvalues --   -0.71787  -0.70750  -0.70026  -0.69717  -0.69325
 Alpha  occ. eigenvalues --   -0.69092  -0.68858  -0.67455  -0.66560  -0.66104
 Alpha  occ. eigenvalues --   -0.65987  -0.64744  -0.63504  -0.62709  -0.62116
 Alpha  occ. eigenvalues --   -0.61738  -0.61197  -0.61149  -0.59868  -0.59022
 Alpha  occ. eigenvalues --   -0.58256  -0.57698  -0.57302  -0.57022  -0.56945
 Alpha  occ. eigenvalues --   -0.56136  -0.55953  -0.55497  -0.54562  -0.54431
 Alpha  occ. eigenvalues --   -0.53754  -0.53598  -0.53192  -0.52375  -0.52116
 Alpha  occ. eigenvalues --   -0.51921  -0.51499  -0.51285  -0.51168  -0.50874
 Alpha  occ. eigenvalues --   -0.50685  -0.49931  -0.49864  -0.49611  -0.49224
 Alpha  occ. eigenvalues --   -0.49099  -0.48759  -0.48545  -0.48137  -0.47789
 Alpha  occ. eigenvalues --   -0.47585  -0.47417  -0.47124  -0.46844  -0.46726
 Alpha  occ. eigenvalues --   -0.46477  -0.46374  -0.46171  -0.45766  -0.45668
 Alpha  occ. eigenvalues --   -0.45595  -0.45535  -0.45291  -0.45119  -0.44794
 Alpha  occ. eigenvalues --   -0.44612  -0.44233  -0.44027  -0.43948  -0.43869
 Alpha  occ. eigenvalues --   -0.43588  -0.43431  -0.43229  -0.43104  -0.42970
 Alpha  occ. eigenvalues --   -0.42777  -0.42510  -0.42281  -0.42238  -0.42034
 Alpha  occ. eigenvalues --   -0.41576  -0.41230  -0.40985  -0.40901  -0.40679
 Alpha  occ. eigenvalues --   -0.40434  -0.40372  -0.40266  -0.40137  -0.40002
 Alpha  occ. eigenvalues --   -0.39819  -0.39578  -0.39481  -0.39409  -0.39220
 Alpha  occ. eigenvalues --   -0.39035  -0.38982  -0.38854  -0.38433  -0.38340
 Alpha  occ. eigenvalues --   -0.38108  -0.37981  -0.37655  -0.37568  -0.37381
 Alpha  occ. eigenvalues --   -0.36812  -0.36654  -0.36505  -0.36454  -0.35809
 Alpha  occ. eigenvalues --   -0.35693  -0.35601  -0.35579  -0.35485  -0.34871
 Alpha  occ. eigenvalues --   -0.34606  -0.33976  -0.33873  -0.33852  -0.33645
 Alpha  occ. eigenvalues --   -0.33119  -0.32738  -0.32201  -0.31999  -0.31761
 Alpha  occ. eigenvalues --   -0.31516  -0.31067  -0.30929  -0.30697  -0.30128
 Alpha  occ. eigenvalues --   -0.29016  -0.28662  -0.28500  -0.27592  -0.27276
 Alpha  occ. eigenvalues --   -0.27223  -0.26691  -0.23257  -0.21927
 Alpha virt. eigenvalues --   -0.08674  -0.06598  -0.01982  -0.01299   0.00243
 Alpha virt. eigenvalues --    0.01661   0.03047   0.03484   0.03897   0.04121
 Alpha virt. eigenvalues --    0.04717   0.05626   0.07457   0.07995   0.08825

 Mulliken charges:
               1
     1  Mg   0.815299
     2  C    0.027535
     3  C   -0.185842
     4  C   -0.162497
     5  C   -0.169796
     6  N   -0.644833
     7  C    0.322936
     8  C   -0.149677
     9  C   -0.143833
    10  C    0.351830
    11  C   -0.301612
    12  C   -0.154217
    13  C   -0.266655
    14  C    0.604770
    15  O   -0.451369
    16  O   -0.477229
    17  N   -0.713805
    18  C    0.362501
    19  C   -0.026143
    20  C    0.036680
    21  C    0.285807
    22  C   -0.355127
    23  C    0.199079
    24  O   -0.442884
    25  N   -0.667664
    26  C    0.248894
    27  C   -0.038454
    28  C    0.007654
    29  C    0.291554
    30  C    0.258718
    31  C   -0.225424
    32  C   -0.290750
    33  N   -0.725765
    34  C    0.297271
    35  C    0.013945
    36  C   -0.037131
    37  C    0.350618
    38  C   -0.358811
    39  C    0.386625
    40  O   -0.442517
    41  C   -0.289937
    42  C    0.618080
    43  O   -0.484324
    44  O   -0.396888
    45  C   -0.088959
    46  C   -0.021452
    47  C   -0.118972
    48  C    0.140778
    49  C   -0.379543
    50  C   -0.232614
    51  C   -0.175994
    52  C   -0.172097
    53  C   -0.044631
    54  C   -0.324096
    55  C   -0.143670
    56  C   -0.176232
    57  C   -0.179713
    58  C   -0.037103
    59  C   -0.290038
    60  C   -0.151157
    61  C   -0.173026
    62  C   -0.140110
    63  C   -0.041795
    64  C   -0.306929
    65  C   -0.328465
    66  H    0.093811
    67  H    0.143788
    68  H    0.100737
    69  H    0.111565
    70  H    0.067475
    71  H    0.091153
    72  H    0.119003
    73  H    0.130236
    74  H    0.120848
    75  H    0.117705
    76  H    0.134264
    77  H    0.108559
    78  H    0.109113
    79  H    0.155698
    80  H    0.121739
    81  H    0.062816
    82  H    0.093532
    83  H    0.117558
    84  H    0.071353
    85  H    0.101862
    86  H    0.116303
    87  H    0.134832
    88  H    0.156130
    89  H    0.125961
    90  H    0.159399
    91  H    0.125777
    92  H    0.135637
    93  H    0.071348
    94  H    0.152703
    95  H    0.106402
    96  H    0.102834
    97  H    0.090220
    98  H    0.090851
    99  H    0.107003
   100  H    0.106823
   101  H    0.098054
   102  H    0.076001
   103  H    0.099514
   104  H    0.097699
   105  H    0.067801
   106  H    0.095220
   107  H    0.057861
   108  H    0.085172
   109  H    0.116088
   110  H    0.078950
   111  H    0.087112
   112  H    0.064766
   113  H    0.084153
   114  H    0.079423
   115  H    0.088645
   116  H    0.089344
   117  H    0.096154
   118  H    0.098742
   119  H    0.086262
   120  H    0.070177
   121  H    0.059846
   122  H    0.041221
   123  H    0.085605
   124  H    0.092801
   125  H    0.094015
   126  H    0.119987
   127  H    0.112545
   128  H    0.080182
   129  H    0.112307
   130  H    0.115575
   131  H    0.128150
   132  H    0.121810
   133  O   -0.364811
   134  H    0.037797
 Sum of Mulliken charges =   0.00000

 Dipole moment (field-independent basis, Debye):
    X=              1.3546    Y=             -6.0253    Z=             -2.3759  Tot=              6.6170
 Quadrupole moment (field-independent basis, Debye-Ang):
   XX=           -383.3838   YY=           -446.7879   ZZ=           -394.4844
   XY=             14.6005   XZ=             18.0030   YZ=            -34.1409

 Normal termination of Gaussian 09 at Thu Oct  3 17:47:27 2019.
