 Gaussian 09, Revision D.01,
 Gaussian 09:  ES64L-G09RevD.01 24-Apr-2013

 ----------------------------------------------------------------------
 # td=(NStates=1) iop(3/107=0140000000,3/108=0140000000) iop(3/107=0140
 000000,3/108=0140000000) CAM-B3LYP/6-31G(d,p)
 ----------------------------------------------------------------------

 --
 TD
 --
 Symbolic Z-matrix:
 Charge =  0 Multiplicity = 1

                         Standard orientation:
 ---------------------------------------------------------------------
 Center     Atomic      Atomic             Coordinates (Angstroms)
 Number     Number       Type             X           Y           Z
 ---------------------------------------------------------------------
      1         12           0       -5.688332    1.232292    0.313049
      2          6           0       -4.965998   -2.119321   -0.272170
      3          6           0       -3.359449    1.133501    2.801382
      4          6           0       -6.207698    4.573403    0.737765
      5          6           0       -8.014212    1.131167   -2.377251
      6          7           0       -4.393802   -0.253480    1.149370
      7          6           0       -4.240316   -1.603042    0.699133
      8          6           0       -3.140704   -2.291449    1.505180
      9          6           0       -2.819978   -1.314794    2.635495
     10          6           0       -3.481531   -0.019733    2.152712
     11          6           0       -3.312967   -1.750544    4.004007
     12          6           0       -1.975742   -2.786727    0.659481
     13          6           0       -0.924315   -3.582895    1.357359
     14          6           0        0.343569   -3.823729    0.592337
     15          8           0        0.472977   -3.542213   -0.578444
     16          8           0        1.113156   -4.774962    1.254562
     17          7           0       -4.996248    2.545652    1.578386
     18          6           0       -3.993962    2.310445    2.515192
     19          6           0       -3.789952    3.550139    3.137243
     20          6           0       -4.520258    4.570221    2.552407
     21          6           0       -5.306139    3.874966    1.540079
     22          6           0       -2.819673    3.857210    4.233579
     23          6           0       -4.547963    6.041570    2.709653
     24          8           0       -4.114890    6.607726    3.695332
     25          7           0       -6.861968    2.620612   -0.715133
     26          6           0       -6.947683    3.922829   -0.264164
     27          6           0       -7.953593    4.601882   -1.206769
     28          6           0       -8.501292    3.613622   -2.021783
     29          6           0       -7.819229    2.326603   -1.721329
     30          6           0       -8.334503    5.984614   -1.280628
     31          6           0       -9.395920    3.837242   -3.169226
     32          6           0       -8.774771    3.998652   -4.535180
     33          7           0       -6.381761   -0.111231   -1.021160
     34          6           0       -7.328353   -0.044024   -2.036619
     35          6           0       -7.564291   -1.316225   -2.737845
     36          6           0       -6.668067   -2.196269   -2.058552
     37          6           0       -5.930662   -1.398932   -1.072021
     38          6           0       -8.406031   -1.599249   -3.896046
     39          6           0       -6.125498   -3.556386   -1.953425
     40          8           0       -6.427811   -4.505987   -2.681948
     41          6           0       -5.029182   -3.563325   -0.836163
     42          6           0       -5.277372   -4.679867    0.117307
     43          8           0       -5.792033   -4.534907    1.279670
     44          8           0       -5.025881   -5.906822   -0.424938
     45          6           0       -5.326032   -6.884959    0.550445
     46          6           0        2.383666   -4.991249    0.462239
     47          6           0        3.423719   -4.038876    0.881546
     48          6           0        4.025877   -3.134178    0.031888
     49          6           0        3.709811   -2.882181   -1.391462
     50          6           0        5.140800   -2.309041    0.621730
     51          6           0        6.551044   -2.785069    0.144817
     52          6           0        7.697247   -1.821680    0.583920
     53          6           0        9.122198   -2.112198   -0.108198
     54          6           0        9.596437   -3.528884    0.156657
     55          6           0       10.003313   -0.996476    0.447191
     56          6           0       11.387984   -0.915393   -0.237171
     57          6           0       12.244038    0.240520    0.252087
     58          6           0       13.510499    0.531230   -0.549892
     59          6           0       14.454160   -0.623424   -0.381549
     60          6           0       14.208455    1.773546   -0.084822
     61          6           0       15.380406    2.194673   -1.044075
     62          6           0       15.922399    3.539431   -0.636475
     63          6           0       17.249331    4.021694   -1.376867
     64          6           0       17.025869    4.096253   -2.847839
     65          6           0       17.677571    5.369448   -0.765642
     66          1           0       -2.591652    1.103010    3.664364
     67          1           0       -6.379714    5.600670    0.629783
     68          1           0       -9.027671    1.120585   -2.985734
     69          1           0       -3.600392   -3.192843    1.913647
     70          1           0       -1.841373   -1.123833    2.553098
     71          1           0       -2.788092   -2.770831    4.060001
     72          1           0       -2.965591   -1.099998    4.911334
     73          1           0       -4.423137   -2.184752    3.958465
     74          1           0       -2.385253   -3.305922   -0.106229
     75          1           0       -1.588159   -1.954392    0.022261
     76          1           0       -0.583624   -3.087647    2.255371
     77          1           0       -1.563181   -4.443498    1.810047
     78          1           0       -1.707155    3.804459    3.980426
     79          1           0       -2.940413    4.874042    4.620377
     80          1           0       -3.076495    3.095182    5.119761
     81          1           0       -5.221155    6.616716    2.105530
     82          1           0       -9.862023    2.881341   -3.376300
     83          1           0      -10.054941    4.686940   -3.096487
     84          1           0       -9.467358    4.007449   -5.442535
     85          1           0       -8.223522    4.923836   -4.664307
     86          1           0       -8.083081    3.230495   -4.718329
     87          1           0       -7.964849   -1.022534   -4.732236
     88          1           0       -8.215477   -2.610659   -4.234809
     89          1           0       -9.427621   -1.493206   -3.776242
     90          1           0       -4.151170   -4.149725   -1.449176
     91          1           0        2.707380   -5.960286    0.881622
     92          1           0        2.205341   -5.098671   -0.576699
     93          1           0        3.659679   -3.820822    2.003317
     94          1           0        2.570778   -2.717393   -1.517460
     95          1           0        4.153933   -1.906827   -1.605262
     96          1           0        4.280800   -3.697140   -1.902548
     97          1           0        4.952917   -1.269039    0.157496
     98          1           0        4.968987   -2.148021    1.691042
     99          1           0        6.980930   -3.772818    0.566139
    100          1           0        6.760754   -2.801886   -0.883169
    101          1           0        7.261734   -0.647684    0.621693
    102          1           0        7.685102   -2.040000    1.624471
    103          1           0        8.804115   -1.820392   -1.304846
    104          1           0        8.801728   -4.413105    0.294354
    105          1           0       10.428231   -3.715550   -0.673231
    106          1           0        9.912434   -3.337823    1.336512
    107          1           0        9.549623    0.073927    0.375639
    108          1           0       10.136229   -1.131487    1.678663
    109          1           0       11.881966   -1.974090   -0.238674
    110          1           0       11.201392   -0.947323   -1.238600
    111          1           0       11.454130    1.123843    0.333797
    112          1           0       12.382735    0.079530    1.293031
    113          1           0       13.277494    0.497635   -1.557089
    114          1           0       15.048209   -0.762473    0.650415
    115          1           0       14.001238   -1.516120   -0.674450
    116          1           0       15.267112   -0.588967   -1.267726
    117          1           0       13.532320    2.707565    0.227425
    118          1           0       14.589324    1.733751    1.009959
    119          1           0       16.253239    1.483363   -0.912283
    120          1           0       15.123770    2.162198   -2.181518
    121          1           0       15.049601    4.272387   -0.747831
    122          1           0       16.113310    3.350772    0.458251
    123          1           0       17.959482    3.279955   -1.429794
    124          1           0       16.295563    4.786865   -3.014577
    125          1           0       17.834288    4.616674   -3.419047
    126          1           0       16.820536    3.100605   -3.381534
    127          1           0       17.774920    5.154591    0.258609
    128          1           0       18.532394    5.540895   -1.333760
    129          1           0       16.938549    6.063886   -0.887032
    130          1           0       -5.016827   -7.795768   -0.032139
    131          1           0       -6.420471   -6.707476    0.714533
    132          1           0       -4.935882   -6.711397    1.663214
    133          8           0       -8.014549    6.723928   -0.308158
    134          1           0       -9.167648    6.288281   -1.986432
 ---------------------------------------------------------------------

 SCF Done:  E(RCAM-B3LYP) =  -3043.50923126     A.U. after   15 cycles

 Excitation energies and oscillator strengths:

 Excited State   1:      Singlet-A      2.0122 eV  616.16 nm  f=0.2314  <S**2>=0.000
     243 -> 246        0.21467
     244 -> 245        0.66729
 This state for optimization and/or second-order correction.
 Total Energy, E(TD-HF/TD-KS) =  -3043.43528371
 Copying the excited state density for this state as the 1-particle RhoCI density.

 The electronic state is 1-A.
 Alpha  occ. eigenvalues --  -46.80572 -19.23872 -19.22059 -19.18142 -19.17508
 Alpha  occ. eigenvalues --  -19.17017 -19.16972 -19.16711 -14.38841 -14.37503
 Alpha  occ. eigenvalues --  -14.37417 -14.36932 -10.35817 -10.35490 -10.31617
 Alpha  occ. eigenvalues --  -10.30747 -10.30046 -10.27903 -10.27431 -10.27221
 Alpha  occ. eigenvalues --  -10.26962 -10.26941 -10.26840 -10.26836 -10.26831
 Alpha  occ. eigenvalues --  -10.26783 -10.26677 -10.26663 -10.25664 -10.25644
 Alpha  occ. eigenvalues --  -10.25056 -10.24661 -10.24651 -10.24627 -10.24617
 Alpha  occ. eigenvalues --  -10.24235 -10.23902 -10.23758 -10.23436 -10.23326
 Alpha  occ. eigenvalues --  -10.23319 -10.23306 -10.23142 -10.23089 -10.22817
 Alpha  occ. eigenvalues --  -10.22783 -10.22739 -10.22641 -10.22230 -10.22083
 Alpha  occ. eigenvalues --  -10.22076 -10.21960 -10.21771 -10.21686 -10.21680
 Alpha  occ. eigenvalues --  -10.21629 -10.21527 -10.21319 -10.21114 -10.21052
 Alpha  occ. eigenvalues --  -10.20990 -10.20866 -10.20436 -10.20405 -10.19218
 Alpha  occ. eigenvalues --  -10.18341  -3.09347  -1.84276  -1.83834  -1.83755
 Alpha  occ. eigenvalues --   -1.14071  -1.12184  -1.06828  -1.05810  -1.04689
 Alpha  occ. eigenvalues --   -1.04324  -1.02806  -1.00315  -0.99516  -0.98366
 Alpha  occ. eigenvalues --   -0.97343  -0.88664  -0.86794  -0.86226  -0.85996
 Alpha  occ. eigenvalues --   -0.85645  -0.85147  -0.84343  -0.83986  -0.83869
 Alpha  occ. eigenvalues --   -0.83611  -0.82893  -0.82275  -0.80906  -0.79977
 Alpha  occ. eigenvalues --   -0.79027  -0.78640  -0.78212  -0.78031  -0.76936
 Alpha  occ. eigenvalues --   -0.75520  -0.75199  -0.74249  -0.72400  -0.72194
 Alpha  occ. eigenvalues --   -0.72003  -0.71028  -0.70284  -0.69710  -0.69491
 Alpha  occ. eigenvalues --   -0.69205  -0.68778  -0.67358  -0.66456  -0.66218
 Alpha  occ. eigenvalues --   -0.66124  -0.64544  -0.64118  -0.62789  -0.62251
 Alpha  occ. eigenvalues --   -0.61731  -0.60997  -0.60216  -0.59603  -0.59113
 Alpha  occ. eigenvalues --   -0.58996  -0.58900  -0.57657  -0.57434  -0.57196
 Alpha  occ. eigenvalues --   -0.56358  -0.56117  -0.55605  -0.54976  -0.54881
 Alpha  occ. eigenvalues --   -0.54153  -0.53108  -0.52729  -0.52626  -0.52431
 Alpha  occ. eigenvalues --   -0.52227  -0.51745  -0.51012  -0.50677  -0.50074
 Alpha  occ. eigenvalues --   -0.49779  -0.49756  -0.49582  -0.49399  -0.49035
 Alpha  occ. eigenvalues --   -0.48969  -0.48797  -0.48394  -0.48154  -0.47839
 Alpha  occ. eigenvalues --   -0.47547  -0.47417  -0.47353  -0.47063  -0.47003
 Alpha  occ. eigenvalues --   -0.46896  -0.46793  -0.46290  -0.46046  -0.46009
 Alpha  occ. eigenvalues --   -0.45842  -0.45635  -0.45537  -0.45317  -0.44715
 Alpha  occ. eigenvalues --   -0.44527  -0.44059  -0.44042  -0.43924  -0.43839
 Alpha  occ. eigenvalues --   -0.43769  -0.43205  -0.43096  -0.43022  -0.42907
 Alpha  occ. eigenvalues --   -0.42832  -0.42542  -0.42164  -0.41946  -0.41857
 Alpha  occ. eigenvalues --   -0.41546  -0.41485  -0.41416  -0.41089  -0.40961
 Alpha  occ. eigenvalues --   -0.40754  -0.40632  -0.40448  -0.40338  -0.40242
 Alpha  occ. eigenvalues --   -0.40022  -0.39667  -0.39559  -0.39161  -0.39043
 Alpha  occ. eigenvalues --   -0.38910  -0.38552  -0.38424  -0.38311  -0.38227
 Alpha  occ. eigenvalues --   -0.38046  -0.37674  -0.37320  -0.37100  -0.36970
 Alpha  occ. eigenvalues --   -0.36821  -0.36759  -0.36474  -0.35734  -0.35715
 Alpha  occ. eigenvalues --   -0.35405  -0.35057  -0.34873  -0.34789  -0.34465
 Alpha  occ. eigenvalues --   -0.34212  -0.33869  -0.33825  -0.33467  -0.33172
 Alpha  occ. eigenvalues --   -0.33136  -0.32726  -0.32282  -0.31694  -0.31564
 Alpha  occ. eigenvalues --   -0.31554  -0.31266  -0.31013  -0.30452  -0.30283
 Alpha  occ. eigenvalues --   -0.28640  -0.28278  -0.28142  -0.27694  -0.27596
 Alpha  occ. eigenvalues --   -0.27522  -0.26120  -0.23727  -0.21970
 Alpha virt. eigenvalues --   -0.09198  -0.06627  -0.01671  -0.01391  -0.00171
 Alpha virt. eigenvalues --    0.01418   0.01589   0.03205   0.03850   0.04271
 Alpha virt. eigenvalues --    0.04757   0.05395   0.07756   0.08181   0.08846

 Mulliken charges:
               1
     1  Mg   0.819420
     2  C    0.113291
     3  C   -0.195860
     4  C   -0.122896
     5  C   -0.163243
     6  N   -0.648073
     7  C    0.294118
     8  C   -0.178418
     9  C   -0.099366
    10  C    0.348946
    11  C   -0.308482
    12  C   -0.177873
    13  C   -0.263941
    14  C    0.610448
    15  O   -0.450887
    16  O   -0.483901
    17  N   -0.777124
    18  C    0.376689
    19  C    0.003132
    20  C   -0.003570
    21  C    0.325367
    22  C   -0.393851
    23  C    0.238140
    24  O   -0.405614
    25  N   -0.703701
    26  C    0.291040
    27  C   -0.012412
    28  C    0.033755
    29  C    0.294348
    30  C    0.205928
    31  C   -0.249263
    32  C   -0.319428
    33  N   -0.699965
    34  C    0.253438
    35  C    0.037429
    36  C    0.027838
    37  C    0.254153
    38  C   -0.396226
    39  C    0.359135
    40  O   -0.468277
    41  C   -0.337068
    42  C    0.633513
    43  O   -0.510587
    44  O   -0.423298
    45  C   -0.087883
    46  C   -0.011853
    47  C   -0.126267
    48  C    0.109063
    49  C   -0.367759
    50  C   -0.226186
    51  C   -0.168037
    52  C   -0.180752
    53  C   -0.052207
    54  C   -0.288336
    55  C   -0.146568
    56  C   -0.183518
    57  C   -0.165538
    58  C   -0.036217
    59  C   -0.300217
    60  C   -0.165109
    61  C   -0.174632
    62  C   -0.164245
    63  C   -0.071489
    64  C   -0.315251
    65  C   -0.299196
    66  H    0.093105
    67  H    0.135209
    68  H    0.108239
    69  H    0.116398
    70  H    0.111133
    71  H    0.103106
    72  H    0.114142
    73  H    0.129450
    74  H    0.123120
    75  H    0.107845
    76  H    0.131521
    77  H    0.133038
    78  H    0.116295
    79  H    0.161007
    80  H    0.093260
    81  H    0.097764
    82  H    0.107951
    83  H    0.117451
    84  H    0.103823
    85  H    0.110716
    86  H    0.118296
    87  H    0.133304
    88  H    0.154734
    89  H    0.137537
    90  H    0.162304
    91  H    0.114814
    92  H    0.145237
    93  H    0.076136
    94  H    0.152512
    95  H    0.107488
    96  H    0.128802
    97  H    0.084819
    98  H    0.100199
    99  H    0.085386
   100  H    0.103190
   101  H    0.055915
   102  H    0.096111
   103  H    0.054436
   104  H    0.105187
   105  H    0.109237
   106  H    0.092382
   107  H    0.090085
   108  H    0.058014
   109  H    0.073086
   110  H    0.100893
   111  H    0.064528
   112  H    0.100348
   113  H    0.097475
   114  H    0.090191
   115  H    0.108222
   116  H    0.074304
   117  H    0.065177
   118  H    0.081697
   119  H    0.093610
   120  H    0.079203
   121  H    0.079585
   122  H    0.079368
   123  H    0.094189
   124  H    0.106215
   125  H    0.084220
   126  H    0.093198
   127  H    0.107904
   128  H    0.103347
   129  H    0.110661
   130  H    0.120470
   131  H    0.137090
   132  H    0.124418
   133  O   -0.436598
   134  H    0.081896
 Sum of Mulliken charges =   0.00000

 Dipole moment (field-independent basis, Debye):
    X=              2.7282    Y=             -3.4140    Z=             -2.0017  Tot=              4.8068
 Quadrupole moment (field-independent basis, Debye-Ang):
   XX=           -379.3565   YY=           -444.4269   ZZ=           -394.3153
   XY=              0.2195   XZ=             25.9253   YZ=            -35.4684

 Normal termination of Gaussian 09 at Wed Oct  9 06:22:29 2019.
