 Gaussian 09, Revision D.01,
 Gaussian 09:  ES64L-G09RevD.01 24-Apr-2013

 ----------------------------------------------------------------------
 # td=(NStates=1) iop(3/107=0140000000,3/108=0140000000) iop(3/107=0140
 000000,3/108=0140000000) CAM-B3LYP/6-31G(d,p)
 ----------------------------------------------------------------------

 --
 TD
 --
 Symbolic Z-matrix:
 Charge =  0 Multiplicity = 1

                         Standard orientation:
 ---------------------------------------------------------------------
 Center     Atomic      Atomic             Coordinates (Angstroms)
 Number     Number       Type             X           Y           Z
 ---------------------------------------------------------------------
      1         12           0       -5.703658    1.241914    0.202399
      2          6           0       -5.027432   -2.129947   -0.398300
      3          6           0       -3.381408    1.199969    2.774398
      4          6           0       -6.324935    4.536874    0.694750
      5          6           0       -8.035709    1.149509   -2.363661
      6          7           0       -4.457739   -0.276751    1.137168
      7          6           0       -4.272045   -1.514142    0.672731
      8          6           0       -3.249379   -2.380713    1.409922
      9          6           0       -2.996263   -1.316502    2.563488
     10          6           0       -3.663999    0.015883    2.118725
     11          6           0       -3.524268   -1.831989    3.908060
     12          6           0       -2.031536   -2.664608    0.558733
     13          6           0       -1.045987   -3.567433    1.336678
     14          6           0        0.221284   -3.952642    0.545991
     15          8           0        0.543187   -3.446709   -0.493928
     16          8           0        0.973803   -4.754975    1.269813
     17          7           0       -4.956186    2.599377    1.458045
     18          6           0       -3.931515    2.478932    2.401649
     19          6           0       -3.634336    3.655589    3.088047
     20          6           0       -4.483923    4.629964    2.446877
     21          6           0       -5.312209    3.946876    1.456558
     22          6           0       -2.846055    3.842006    4.316293
     23          6           0       -4.631921    6.031681    2.841684
     24          8           0       -4.141863    6.631483    3.800263
     25          7           0       -6.927222    2.557485   -0.639853
     26          6           0       -6.994463    3.947500   -0.358127
     27          6           0       -7.983884    4.619020   -1.201337
     28          6           0       -8.475415    3.613902   -2.032178
     29          6           0       -7.843069    2.351929   -1.642175
     30          6           0       -8.423801    6.048129   -1.157841
     31          6           0       -9.535814    3.758805   -3.086066
     32          6           0       -8.942111    3.963143   -4.514098
     33          7           0       -6.432619   -0.129522   -1.077324
     34          6           0       -7.461502   -0.049301   -2.072851
     35          6           0       -7.566535   -1.322482   -2.727323
     36          6           0       -6.721212   -2.220056   -1.983176
     37          6           0       -6.015495   -1.381326   -1.066495
     38          6           0       -8.504520   -1.760917   -3.747503
     39          6           0       -6.176926   -3.468882   -2.079165
     40          8           0       -6.451941   -4.431231   -2.775149
     41          6           0       -4.970285   -3.571699   -0.919911
     42          6           0       -5.314577   -4.567235    0.066297
     43          8           0       -5.564447   -4.371958    1.240504
     44          8           0       -4.973117   -5.785719   -0.364781
     45          6           0       -5.266352   -6.942764    0.553274
     46          6           0        2.295624   -5.153425    0.571969
     47          6           0        3.421356   -4.363065    1.070371
     48          6           0        4.139964   -3.440896    0.308710
     49          6           0        3.880897   -3.268130   -1.230575
     50          6           0        5.235448   -2.498621    0.804242
     51          6           0        6.610311   -2.792264    0.164294
     52          6           0        7.754508   -1.843876    0.677132
     53          6           0        9.103963   -2.012018   -0.020765
     54          6           0        9.650357   -3.461401    0.277472
     55          6           0       10.013576   -0.894610    0.352234
     56          6           0       11.352443   -0.732422   -0.371976
     57          6           0       12.249392    0.387089    0.019354
     58          6           0       13.611008    0.605125   -0.725346
     59          6           0       14.510986   -0.577743   -0.351753
     60          6           0       14.233362    1.817760   -0.173358
     61          6           0       15.409643    2.282948   -1.018030
     62          6           0       16.018255    3.553977   -0.662338
     63          6           0       17.419323    3.942422   -1.326271
     64          6           0       17.343792    4.016968   -2.837782
     65          6           0       18.028485    5.209060   -0.740796
     66          1           0       -2.400604    1.210472    3.457278
     67          1           0       -6.389176    5.545637    0.849684
     68          1           0       -8.594335    1.123709   -3.195384
     69          1           0       -3.743779   -3.258827    1.778536
     70          1           0       -1.903424   -1.359336    2.626899
     71          1           0       -3.197231   -2.795638    4.184332
     72          1           0       -3.497366   -1.236445    4.846344
     73          1           0       -4.584681   -2.022613    3.916763
     74          1           0       -2.453724   -3.159226   -0.229973
     75          1           0       -1.365312   -1.779007    0.270312
     76          1           0       -0.597213   -3.061735    2.260204
     77          1           0       -1.289061   -4.645995    1.558440
     78          1           0       -1.811819    3.689739    4.010731
     79          1           0       -2.800009    4.789560    4.595001
     80          1           0       -3.077410    2.989465    5.061406
     81          1           0       -5.386459    6.569137    2.243762
     82          1           0      -10.004832    2.821705   -3.176143
     83          1           0      -10.228938    4.485809   -2.772524
     84          1           0       -9.496145    4.281680   -5.480079
     85          1           0       -8.287989    4.942520   -4.519158
     86          1           0       -8.329515    2.976182   -4.791685
     87          1           0       -8.183729   -1.089025   -4.805192
     88          1           0       -8.325418   -2.902440   -3.803612
     89          1           0       -9.731761   -1.419867   -3.557976
     90          1           0       -3.868886   -3.706378   -1.421926
     91          1           0        2.276315   -6.270573    0.903286
     92          1           0        2.045280   -4.907454   -0.368372
     93          1           0        3.595341   -4.388989    2.147440
     94          1           0        2.674946   -3.549447   -1.442086
     95          1           0        4.059703   -2.136091   -1.209977
     96          1           0        4.572228   -3.857853   -1.871912
     97          1           0        4.831572   -1.449000    0.650893
     98          1           0        5.169977   -2.659445    1.814676
     99          1           0        6.876064   -3.783536    0.485649
    100          1           0        6.374018   -2.529589   -0.916150
    101          1           0        7.477831   -0.781461    0.576343
    102          1           0        7.751018   -1.900949    1.716536
    103          1           0        8.881787   -2.058503   -1.293656
    104          1           0        8.779095   -4.158343    0.019778
    105          1           0       10.443838   -3.745400   -0.217759
    106          1           0        9.852936   -3.403416    1.370154
    107          1           0        9.416677    0.081575    0.447160
    108          1           0       10.288946   -1.176277    1.430209
    109          1           0       11.895141   -1.780920   -0.521850
    110          1           0       11.211809   -0.636070   -1.581483
    111          1           0       11.701005    1.376718    0.072341
    112          1           0       12.488320    0.105664    0.924096
    113          1           0       13.467995    0.664777   -1.820231
    114          1           0       14.762694   -0.588942    0.589712
    115          1           0       13.926326   -1.674557   -0.332313
    116          1           0       15.479803   -0.460879   -0.765659
    117          1           0       13.577150    2.580925   -0.103705
    118          1           0       14.575475    1.377100    0.739536
    119          1           0       16.276387    1.511584   -0.964346
    120          1           0       15.136325    2.226893   -2.069476
    121          1           0       15.387702    4.491333   -0.894366
    122          1           0       15.993548    3.911491    0.504561
    123          1           0       17.923904    3.046007   -1.032159
    124          1           0       16.518141    4.851942   -3.038913
    125          1           0       18.197946    4.495325   -3.464495
    126          1           0       17.040448    3.109723   -3.372820
    127          1           0       18.104848    5.165655    0.452365
    128          1           0       18.972999    5.477433   -1.156853
    129          1           0       17.208582    6.183271   -0.813104
    130          1           0       -4.820752   -7.723503   -0.050454
    131          1           0       -6.361891   -6.947244    0.879653
    132          1           0       -4.583267   -6.889906    1.403191
    133          8           0       -7.934169    6.871223   -0.369414
    134          1           0       -9.141326    6.414128   -1.909409
 ---------------------------------------------------------------------

 SCF Done:  E(RCAM-B3LYP) =  -3043.47699675     A.U. after   16 cycles

 Excitation energies and oscillator strengths:

 Excited State   1:      Singlet-A      1.9829 eV  625.26 nm  f=0.1687  <S**2>=0.000
     243 -> 245       -0.10016
     243 -> 246        0.28504
     244 -> 245        0.62527
 This state for optimization and/or second-order correction.
 Total Energy, E(TD-HF/TD-KS) =  -3043.40412543
 Copying the excited state density for this state as the 1-particle RhoCI density.

 The electronic state is 1-A.
 Alpha  occ. eigenvalues --  -46.80704 -19.22007 -19.21433 -19.17824 -19.17179
 Alpha  occ. eigenvalues --  -19.16670 -19.16303 -19.16292 -14.39054 -14.37582
 Alpha  occ. eigenvalues --  -14.36740 -14.36674 -10.34476 -10.33765 -10.31541
 Alpha  occ. eigenvalues --  -10.31264 -10.29352 -10.28225 -10.27643 -10.27448
 Alpha  occ. eigenvalues --  -10.27206 -10.27000 -10.26839 -10.26643 -10.26486
 Alpha  occ. eigenvalues --  -10.26408 -10.26366 -10.26201 -10.25848 -10.25804
 Alpha  occ. eigenvalues --  -10.24965 -10.24620 -10.24521 -10.24072 -10.24027
 Alpha  occ. eigenvalues --  -10.24020 -10.23922 -10.23900 -10.23778 -10.23595
 Alpha  occ. eigenvalues --  -10.23493 -10.23391 -10.23051 -10.22867 -10.22864
 Alpha  occ. eigenvalues --  -10.22836 -10.22675 -10.22574 -10.22558 -10.22532
 Alpha  occ. eigenvalues --  -10.22285 -10.22266 -10.22157 -10.22078 -10.21982
 Alpha  occ. eigenvalues --  -10.21959 -10.21550 -10.21312 -10.21225 -10.21178
 Alpha  occ. eigenvalues --  -10.20915 -10.20539 -10.20167 -10.19799 -10.19707
 Alpha  occ. eigenvalues --  -10.19220  -3.09518  -1.84439  -1.84014  -1.83924
 Alpha  occ. eigenvalues --   -1.13130  -1.13076  -1.06974  -1.06207  -1.04989
 Alpha  occ. eigenvalues --   -1.04178  -1.03779  -1.02214  -1.00111  -0.98959
 Alpha  occ. eigenvalues --   -0.97993  -0.88564  -0.87094  -0.86083  -0.85745
 Alpha  occ. eigenvalues --   -0.85639  -0.84726  -0.84619  -0.84275  -0.83502
 Alpha  occ. eigenvalues --   -0.83439  -0.82872  -0.81439  -0.80807  -0.79933
 Alpha  occ. eigenvalues --   -0.79285  -0.78685  -0.77917  -0.77353  -0.76812
 Alpha  occ. eigenvalues --   -0.75454  -0.75228  -0.73705  -0.72941  -0.72426
 Alpha  occ. eigenvalues --   -0.71812  -0.71191  -0.70586  -0.69848  -0.69783
 Alpha  occ. eigenvalues --   -0.69351  -0.68731  -0.67486  -0.66981  -0.66584
 Alpha  occ. eigenvalues --   -0.66156  -0.64899  -0.64405  -0.63072  -0.62157
 Alpha  occ. eigenvalues --   -0.62071  -0.61059  -0.60684  -0.60003  -0.58746
 Alpha  occ. eigenvalues --   -0.58413  -0.58333  -0.57699  -0.57613  -0.56813
 Alpha  occ. eigenvalues --   -0.56412  -0.56132  -0.55242  -0.54982  -0.54799
 Alpha  occ. eigenvalues --   -0.54014  -0.53225  -0.52614  -0.52260  -0.52021
 Alpha  occ. eigenvalues --   -0.51913  -0.51608  -0.51386  -0.51292  -0.50581
 Alpha  occ. eigenvalues --   -0.50290  -0.50017  -0.49893  -0.49355  -0.49099
 Alpha  occ. eigenvalues --   -0.48711  -0.48532  -0.48055  -0.47868  -0.47585
 Alpha  occ. eigenvalues --   -0.47552  -0.47458  -0.47347  -0.47290  -0.46989
 Alpha  occ. eigenvalues --   -0.46814  -0.46718  -0.46428  -0.46035  -0.45974
 Alpha  occ. eigenvalues --   -0.45812  -0.45709  -0.45280  -0.45029  -0.44711
 Alpha  occ. eigenvalues --   -0.44583  -0.44400  -0.44067  -0.43834  -0.43716
 Alpha  occ. eigenvalues --   -0.43450  -0.43297  -0.43137  -0.42902  -0.42836
 Alpha  occ. eigenvalues --   -0.42468  -0.42230  -0.42103  -0.41880  -0.41807
 Alpha  occ. eigenvalues --   -0.41659  -0.41352  -0.41221  -0.41157  -0.40935
 Alpha  occ. eigenvalues --   -0.40840  -0.40724  -0.40517  -0.40233  -0.40073
 Alpha  occ. eigenvalues --   -0.39874  -0.39838  -0.39739  -0.39552  -0.39304
 Alpha  occ. eigenvalues --   -0.39038  -0.38998  -0.38905  -0.38749  -0.38291
 Alpha  occ. eigenvalues --   -0.38269  -0.37972  -0.37710  -0.37358  -0.37157
 Alpha  occ. eigenvalues --   -0.37137  -0.36907  -0.36421  -0.35999  -0.35923
 Alpha  occ. eigenvalues --   -0.35495  -0.35459  -0.35392  -0.35186  -0.34433
 Alpha  occ. eigenvalues --   -0.34343  -0.34020  -0.33666  -0.33182  -0.33034
 Alpha  occ. eigenvalues --   -0.32762  -0.32496  -0.32438  -0.31821  -0.31432
 Alpha  occ. eigenvalues --   -0.31293  -0.30741  -0.30645  -0.29927  -0.29555
 Alpha  occ. eigenvalues --   -0.29046  -0.28703  -0.28195  -0.27608  -0.27294
 Alpha  occ. eigenvalues --   -0.27164  -0.26972  -0.22953  -0.22032
 Alpha virt. eigenvalues --   -0.09236  -0.07049  -0.02067  -0.01270   0.00703
 Alpha virt. eigenvalues --    0.01743   0.02308   0.03889   0.04267   0.05091
 Alpha virt. eigenvalues --    0.05514   0.05718   0.07558   0.07727   0.09511

 Mulliken charges:
               1
     1  Mg   0.825345
     2  C    0.052481
     3  C   -0.189385
     4  C   -0.128724
     5  C   -0.143876
     6  N   -0.618885
     7  C    0.306794
     8  C   -0.154809
     9  C   -0.160244
    10  C    0.362810
    11  C   -0.331943
    12  C   -0.151665
    13  C   -0.266455
    14  C    0.579089
    15  O   -0.478872
    16  O   -0.477584
    17  N   -0.718144
    18  C    0.284444
    19  C    0.062753
    20  C   -0.060707
    21  C    0.313256
    22  C   -0.361399
    23  C    0.236272
    24  O   -0.433515
    25  N   -0.698082
    26  C    0.266284
    27  C    0.001415
    28  C    0.011935
    29  C    0.307019
    30  C    0.244432
    31  C   -0.243268
    32  C   -0.307499
    33  N   -0.756257
    34  C    0.280255
    35  C    0.069476
    36  C    0.040083
    37  C    0.369128
    38  C   -0.369474
    39  C    0.310607
    40  O   -0.461668
    41  C   -0.354235
    42  C    0.646492
    43  O   -0.476702
    44  O   -0.457774
    45  C   -0.090921
    46  C    0.002377
    47  C   -0.110743
    48  C    0.097859
    49  C   -0.362404
    50  C   -0.244660
    51  C   -0.166873
    52  C   -0.178099
    53  C   -0.038296
    54  C   -0.299302
    55  C   -0.152126
    56  C   -0.181433
    57  C   -0.151047
    58  C   -0.071417
    59  C   -0.321474
    60  C   -0.140397
    61  C   -0.179072
    62  C   -0.172628
    63  C   -0.038824
    64  C   -0.303947
    65  C   -0.295552
    66  H    0.097700
    67  H    0.115847
    68  H    0.073505
    69  H    0.149756
    70  H    0.091232
    71  H    0.115400
    72  H    0.102839
    73  H    0.121794
    74  H    0.105492
    75  H    0.123080
    76  H    0.135063
    77  H    0.125813
    78  H    0.121579
    79  H    0.154472
    80  H    0.125376
    81  H    0.073051
    82  H    0.122051
    83  H    0.117216
    84  H    0.111312
    85  H    0.098254
    86  H    0.096828
    87  H    0.095858
    88  H    0.158027
    89  H    0.107232
    90  H    0.160969
    91  H    0.116670
    92  H    0.128671
    93  H    0.080838
    94  H    0.130024
    95  H    0.103156
    96  H    0.128560
    97  H    0.105684
    98  H    0.101577
    99  H    0.115746
   100  H    0.103708
   101  H    0.085247
   102  H    0.098782
   103  H    0.035950
   104  H    0.093422
   105  H    0.115794
   106  H    0.092217
   107  H    0.086399
   108  H    0.078104
   109  H    0.078356
   110  H    0.055771
   111  H    0.078397
   112  H    0.102756
   113  H    0.079062
   114  H    0.119450
   115  H    0.071340
   116  H    0.104843
   117  H    0.095382
   118  H    0.097877
   119  H    0.073776
   120  H    0.104000
   121  H    0.072656
   122  H    0.067038
   123  H    0.096373
   124  H    0.080837
   125  H    0.094906
   126  H    0.106688
   127  H    0.086966
   128  H    0.115830
   129  H    0.064800
   130  H    0.138034
   131  H    0.144231
   132  H    0.132744
   133  O   -0.416799
   134  H    0.084161
 Sum of Mulliken charges =   0.00000

 Dipole moment (field-independent basis, Debye):
    X=              2.0779    Y=             -5.0390    Z=             -1.2327  Tot=              5.5883
 Quadrupole moment (field-independent basis, Debye-Ang):
   XX=           -362.3788   YY=           -436.5629   ZZ=           -401.0359
   XY=              6.7826   XZ=             33.5195   YZ=            -41.2306

 Normal termination of Gaussian 09 at Sat Oct  5 08:07:56 2019.
