 Gaussian 09, Revision D.01,
 Gaussian 09:  ES64L-G09RevD.01 24-Apr-2013

 ----------------------------------------------------------------------
 # td=(NStates=1) iop(3/107=0140000000,3/108=0140000000) iop(3/107=0140
 000000,3/108=0140000000) CAM-B3LYP/6-31G(d,p)
 ----------------------------------------------------------------------

 --
 TD
 --
 Symbolic Z-matrix:
 Charge =  0 Multiplicity = 1

                         Standard orientation:
 ---------------------------------------------------------------------
 Center     Atomic      Atomic             Coordinates (Angstroms)
 Number     Number       Type             X           Y           Z
 ---------------------------------------------------------------------
      1         12           0       -5.707807    1.235855    0.242524
      2          6           0       -5.075577   -2.167184   -0.317809
      3          6           0       -3.314417    1.288357    2.821611
      4          6           0       -6.205092    4.616247    0.741269
      5          6           0       -8.064023    1.113766   -2.382159
      6          7           0       -4.447892   -0.230169    1.135666
      7          6           0       -4.310056   -1.643321    0.639007
      8          6           0       -3.181110   -2.246744    1.454964
      9          6           0       -2.920668   -1.376084    2.677338
     10          6           0       -3.639912   -0.064344    2.191973
     11          6           0       -3.332140   -1.793713    4.003395
     12          6           0       -1.900050   -2.712740    0.725358
     13          6           0       -0.912754   -3.515243    1.469550
     14          6           0        0.245234   -3.927813    0.613404
     15          8           0        0.475793   -3.421264   -0.495093
     16          8           0        1.084208   -4.900218    1.320890
     17          7           0       -4.932556    2.701374    1.492462
     18          6           0       -3.859233    2.474382    2.412672
     19          6           0       -3.505495    3.738993    3.065414
     20          6           0       -4.331792    4.725164    2.501213
     21          6           0       -5.144204    3.981089    1.495777
     22          6           0       -2.370349    3.924780    4.146529
     23          6           0       -4.482918    6.033087    2.845439
     24          8           0       -3.930162    6.678252    3.721793
     25          7           0       -6.876973    2.599051   -0.595339
     26          6           0       -6.940994    3.976608   -0.269046
     27          6           0       -7.853363    4.614983   -1.119557
     28          6           0       -8.403512    3.619297   -2.022640
     29          6           0       -7.702631    2.400747   -1.733019
     30          6           0       -8.216200    6.060246   -1.189346
     31          6           0       -9.439593    3.812832   -3.140546
     32          6           0       -8.825273    4.022138   -4.545693
     33          7           0       -6.405059   -0.146920   -1.029633
     34          6           0       -7.416916   -0.009520   -2.043108
     35          6           0       -7.648545   -1.269931   -2.720739
     36          6           0       -6.729104   -2.176248   -2.047218
     37          6           0       -6.089689   -1.365770   -1.042254
     38          6           0       -8.540933   -1.557776   -3.879576
     39          6           0       -6.114310   -3.540586   -1.964666
     40          8           0       -6.589892   -4.552836   -2.594148
     41          6           0       -5.084160   -3.500575   -0.870591
     42          6           0       -5.351185   -4.640476    0.231393
     43          8           0       -5.815057   -4.399102    1.324191
     44          8           0       -5.041473   -5.812523   -0.284830
     45          6           0       -5.416481   -6.896698    0.521351
     46          6           0        2.353767   -5.282839    0.652314
     47          6           0        3.380704   -4.288911    0.970889
     48          6           0        4.014171   -3.533056    0.022025
     49          6           0        3.722377   -3.403303   -1.501002
     50          6           0        5.116394   -2.492885    0.464143
     51          6           0        6.519438   -2.830820   -0.202665
     52          6           0        7.666833   -1.902960    0.450724
     53          6           0        9.075797   -2.134339   -0.089037
     54          6           0        9.605851   -3.539348    0.063102
     55          6           0       10.007958   -1.025958    0.377917
     56          6           0       11.289263   -0.981224   -0.343696
     57          6           0       12.192457    0.330918    0.202582
     58          6           0       13.494525    0.487789   -0.519739
     59          6           0       14.437988   -0.715008   -0.258527
     60          6           0       14.251406    1.812769   -0.081269
     61          6           0       15.478213    2.153718   -0.869548
     62          6           0       15.940542    3.608864   -0.563327
     63          6           0       17.194171    4.084347   -1.397246
     64          6           0       16.908063    4.279589   -2.971014
     65          6           0       17.769319    5.397120   -0.829756
     66          1           0       -2.803416    1.187759    3.767477
     67          1           0       -6.264307    5.709721    0.875148
     68          1           0       -8.965014    1.160753   -3.186795
     69          1           0       -3.444015   -3.274695    1.817054
     70          1           0       -1.953326   -1.093792    2.731323
     71          1           0       -2.790801   -2.590072    4.319483
     72          1           0       -3.257633   -0.978812    4.758811
     73          1           0       -4.484508   -2.119770    4.278148
     74          1           0       -2.283107   -3.302774   -0.241944
     75          1           0       -1.476564   -1.823557    0.212036
     76          1           0       -0.487567   -3.020492    2.454170
     77          1           0       -1.461631   -4.426117    1.646299
     78          1           0       -1.396741    3.881484    3.821429
     79          1           0       -2.626845    4.963799    4.538156
     80          1           0       -2.473317    3.382206    5.049703
     81          1           0       -5.216079    6.621541    2.237932
     82          1           0      -10.123047    2.878307   -3.321662
     83          1           0      -10.224009    4.773377   -2.952966
     84          1           0       -9.558694    4.205724   -5.339223
     85          1           0       -8.217060    4.947760   -4.760440
     86          1           0       -8.251392    2.901269   -4.584152
     87          1           0       -8.211456   -1.073029   -4.878370
     88          1           0       -8.434056   -2.609730   -3.946243
     89          1           0       -9.771263   -1.496155   -3.719671
     90          1           0       -4.153954   -3.710635   -1.455606
     91          1           0        2.440945   -6.103953    1.392171
     92          1           0        2.198180   -5.446772   -0.395936
     93          1           0        3.469575   -4.155077    1.982472
     94          1           0        2.650623   -3.654055   -1.678793
     95          1           0        3.805166   -2.383531   -1.890991
     96          1           0        4.352490   -4.095702   -2.048105
     97          1           0        4.787564   -1.457009    0.109464
     98          1           0        5.061411   -2.695030    1.507321
     99          1           0        6.769037   -4.034187   -0.013741
    100          1           0        6.458164   -2.731414   -1.319591
    101          1           0        7.508874   -0.774544    0.360788
    102          1           0        7.578198   -2.212459    1.662941
    103          1           0        9.171867   -1.808491   -1.336455
    104          1           0        8.894182   -4.338437   -0.170398
    105          1           0       10.631791   -3.919216   -0.558086
    106          1           0        9.772698   -3.632712    1.146389
    107          1           0        9.602170   -0.055440    0.484166
    108          1           0       10.369486   -1.204000    1.454644
    109          1           0       11.845368   -1.967319   -0.232434
    110          1           0       10.990774   -0.915994   -1.418123
    111          1           0       11.462342    1.255424    0.171724
    112          1           0       12.217110   -0.098604    1.409084
    113          1           0       13.312864    0.603906   -1.560912
    114          1           0       14.689424   -0.816604    0.787797
    115          1           0       13.857747   -1.596840   -0.344732
    116          1           0       15.380149   -0.727775   -0.773723
    117          1           0       13.566327    2.621027   -0.079043
    118          1           0       14.643411    1.700725    0.874921
    119          1           0       16.285487    1.409419   -0.697860
    120          1           0       15.130963    2.186985   -1.892322
    121          1           0       15.271793    4.230242   -0.636960
    122          1           0       16.283661    3.717022    0.538401
    123          1           0       18.003101    3.280762   -1.172301
    124          1           0       16.227963    5.194757   -3.063874
    125          1           0       17.811782    4.655797   -3.377872
    126          1           0       16.498284    3.223772   -3.322105
    127          1           0       18.013474    5.229989    0.231368
    128          1           0       18.497313    5.637951   -1.487567
    129          1           0       16.998329    6.276972   -0.991274
    130          1           0       -4.853500   -7.682169    0.267113
    131          1           0       -6.582623   -6.835691    0.456558
    132          1           0       -5.052319   -6.435346    1.589340
    133          8           0       -7.884548    6.862580   -0.396865
    134          1           0       -9.002515    6.392355   -1.862833
 ---------------------------------------------------------------------

 SCF Done:  E(RCAM-B3LYP) =  -3043.44537263     A.U. after   16 cycles

 Excitation energies and oscillator strengths:

 Excited State   1:      Singlet-A      1.8469 eV  671.30 nm  f=0.2355  <S**2>=0.000
     243 -> 246        0.16289
     244 -> 245        0.68584
 This state for optimization and/or second-order correction.
 Total Energy, E(TD-HF/TD-KS) =  -3043.37749971
 Copying the excited state density for this state as the 1-particle RhoCI density.

 The electronic state is 1-A.
 Alpha  occ. eigenvalues --  -46.81020 -19.24207 -19.21690 -19.19103 -19.18960
 Alpha  occ. eigenvalues --  -19.16760 -19.16163 -19.15800 -14.40000 -14.37647
 Alpha  occ. eigenvalues --  -14.36993 -14.36516 -10.36732 -10.36319 -10.31963
 Alpha  occ. eigenvalues --  -10.29510 -10.29097 -10.28588 -10.28488 -10.28282
 Alpha  occ. eigenvalues --  -10.27197 -10.27127 -10.26697 -10.26569 -10.26502
 Alpha  occ. eigenvalues --  -10.26492 -10.26336 -10.26295 -10.26062 -10.26044
 Alpha  occ. eigenvalues --  -10.25927 -10.25759 -10.25516 -10.24836 -10.24592
 Alpha  occ. eigenvalues --  -10.24447 -10.24382 -10.24344 -10.24169 -10.24114
 Alpha  occ. eigenvalues --  -10.24103 -10.23958 -10.23946 -10.23830 -10.23688
 Alpha  occ. eigenvalues --  -10.23625 -10.23102 -10.22962 -10.22917 -10.22783
 Alpha  occ. eigenvalues --  -10.22444 -10.22219 -10.22053 -10.22052 -10.21540
 Alpha  occ. eigenvalues --  -10.21521 -10.21477 -10.21378 -10.21178 -10.21140
 Alpha  occ. eigenvalues --  -10.20214 -10.20180 -10.19860 -10.19178 -10.19173
 Alpha  occ. eigenvalues --  -10.18894  -3.09738  -1.84667  -1.84192  -1.84175
 Alpha  occ. eigenvalues --   -1.16666  -1.10004  -1.08521  -1.07225  -1.05632
 Alpha  occ. eigenvalues --   -1.03897  -1.03482  -1.01713  -1.00028  -0.98243
 Alpha  occ. eigenvalues --   -0.96779  -0.89905  -0.87360  -0.85497  -0.85238
 Alpha  occ. eigenvalues --   -0.84767  -0.84333  -0.84031  -0.83715  -0.82995
 Alpha  occ. eigenvalues --   -0.82679  -0.82234  -0.82166  -0.80294  -0.79535
 Alpha  occ. eigenvalues --   -0.78891  -0.78193  -0.77954  -0.76815  -0.76645
 Alpha  occ. eigenvalues --   -0.75483  -0.75270  -0.74221  -0.73369  -0.72558
 Alpha  occ. eigenvalues --   -0.71053  -0.70761  -0.70024  -0.69950  -0.69685
 Alpha  occ. eigenvalues --   -0.69162  -0.68858  -0.67633  -0.66181  -0.65625
 Alpha  occ. eigenvalues --   -0.64551  -0.64405  -0.63016  -0.62053  -0.61581
 Alpha  occ. eigenvalues --   -0.61333  -0.60967  -0.59975  -0.59430  -0.59039
 Alpha  occ. eigenvalues --   -0.58510  -0.57923  -0.57664  -0.57532  -0.56935
 Alpha  occ. eigenvalues --   -0.56868  -0.56560  -0.56163  -0.55589  -0.54937
 Alpha  occ. eigenvalues --   -0.54812  -0.54162  -0.53126  -0.52970  -0.52584
 Alpha  occ. eigenvalues --   -0.52011  -0.51970  -0.51483  -0.50628  -0.50586
 Alpha  occ. eigenvalues --   -0.50193  -0.49779  -0.49683  -0.49607  -0.48860
 Alpha  occ. eigenvalues --   -0.48797  -0.48137  -0.47940  -0.47773  -0.47597
 Alpha  occ. eigenvalues --   -0.47464  -0.47311  -0.47100  -0.47005  -0.46852
 Alpha  occ. eigenvalues --   -0.46678  -0.46380  -0.46182  -0.45955  -0.45694
 Alpha  occ. eigenvalues --   -0.45316  -0.45272  -0.45056  -0.44986  -0.44859
 Alpha  occ. eigenvalues --   -0.44539  -0.44383  -0.44353  -0.44085  -0.44003
 Alpha  occ. eigenvalues --   -0.43773  -0.43657  -0.43507  -0.43273  -0.43071
 Alpha  occ. eigenvalues --   -0.43017  -0.42770  -0.42044  -0.41926  -0.41854
 Alpha  occ. eigenvalues --   -0.41537  -0.41470  -0.41217  -0.41062  -0.40934
 Alpha  occ. eigenvalues --   -0.40721  -0.40591  -0.40423  -0.40223  -0.39936
 Alpha  occ. eigenvalues --   -0.39726  -0.39513  -0.39341  -0.39127  -0.39075
 Alpha  occ. eigenvalues --   -0.38869  -0.38769  -0.38651  -0.38537  -0.38491
 Alpha  occ. eigenvalues --   -0.38371  -0.38080  -0.37916  -0.37343  -0.36869
 Alpha  occ. eigenvalues --   -0.36728  -0.36518  -0.35976  -0.35767  -0.35608
 Alpha  occ. eigenvalues --   -0.35588  -0.35208  -0.35165  -0.34683  -0.34653
 Alpha  occ. eigenvalues --   -0.34401  -0.34288  -0.34241  -0.33847  -0.33544
 Alpha  occ. eigenvalues --   -0.33016  -0.32297  -0.32236  -0.31967  -0.31954
 Alpha  occ. eigenvalues --   -0.31504  -0.31336  -0.31109  -0.29994  -0.29901
 Alpha  occ. eigenvalues --   -0.28822  -0.28449  -0.27623  -0.27258  -0.27052
 Alpha  occ. eigenvalues --   -0.26791  -0.26638  -0.24653  -0.20607
 Alpha virt. eigenvalues --   -0.08727  -0.06868  -0.02231  -0.00257   0.00724
 Alpha virt. eigenvalues --    0.01215   0.02687   0.02862   0.03386   0.04248
 Alpha virt. eigenvalues --    0.04641   0.05542   0.06963   0.07340   0.08522

 Mulliken charges:
               1
     1  Mg   0.826711
     2  C    0.112836
     3  C   -0.203934
     4  C   -0.177417
     5  C   -0.163337
     6  N   -0.619125
     7  C    0.287035
     8  C   -0.165898
     9  C   -0.098970
    10  C    0.306180
    11  C   -0.314909
    12  C   -0.187170
    13  C   -0.242757
    14  C    0.599466
    15  O   -0.446982
    16  O   -0.516663
    17  N   -0.678532
    18  C    0.298603
    19  C    0.030441
    20  C    0.042443
    21  C    0.321731
    22  C   -0.396240
    23  C    0.192210
    24  O   -0.435205
    25  N   -0.721909
    26  C    0.321470
    27  C   -0.054838
    28  C    0.053243
    29  C    0.248155
    30  C    0.245266
    31  C   -0.256870
    32  C   -0.277260
    33  N   -0.719179
    34  C    0.272398
    35  C    0.036371
    36  C    0.003691
    37  C    0.338961
    38  C   -0.395171
    39  C    0.349011
    40  O   -0.492557
    41  C   -0.331649
    42  C    0.621097
    43  O   -0.460223
    44  O   -0.406604
    45  C   -0.083161
    46  C    0.007537
    47  C   -0.111866
    48  C    0.106375
    49  C   -0.382099
    50  C   -0.214825
    51  C   -0.173054
    52  C   -0.155098
    53  C   -0.018568
    54  C   -0.306029
    55  C   -0.159196
    56  C   -0.189806
    57  C   -0.165426
    58  C   -0.040411
    59  C   -0.329102
    60  C   -0.172782
    61  C   -0.186734
    62  C   -0.138819
    63  C   -0.067709
    64  C   -0.314256
    65  C   -0.298598
    66  H    0.095591
    67  H    0.133108
    68  H    0.118699
    69  H    0.107256
    70  H    0.120754
    71  H    0.123887
    72  H    0.112320
    73  H    0.106040
    74  H    0.092050
    75  H    0.119246
    76  H    0.136458
    77  H    0.142516
    78  H    0.142048
    79  H    0.155692
    80  H    0.125676
    81  H    0.064595
    82  H    0.103996
    83  H    0.086028
    84  H    0.111800
    85  H    0.114265
    86  H    0.074203
    87  H    0.131102
    88  H    0.164883
    89  H    0.107333
    90  H    0.168396
    91  H    0.118598
    92  H    0.123819
    93  H    0.085330
    94  H    0.137382
    95  H    0.119175
    96  H    0.124118
    97  H    0.101795
    98  H    0.099760
    99  H    0.074088
   100  H    0.103553
   101  H    0.094973
   102  H    0.065145
   103  H    0.034888
   104  H    0.108619
   105  H    0.080906
   106  H    0.105413
   107  H    0.094545
   108  H    0.067268
   109  H    0.096915
   110  H    0.080012
   111  H    0.081028
   112  H    0.058958
   113  H    0.093257
   114  H    0.102644
   115  H    0.101960
   116  H    0.107142
   117  H    0.082773
   118  H    0.096942
   119  H    0.090293
   120  H    0.089279
   121  H    0.093847
   122  H    0.061400
   123  H    0.068268
   124  H    0.095365
   125  H    0.112170
   126  H    0.100697
   127  H    0.103158
   128  H    0.109395
   129  H    0.075010
   130  H    0.135956
   131  H    0.140176
   132  H    0.111621
   133  O   -0.391167
   134  H    0.055292
 Sum of Mulliken charges =   0.00000

 Dipole moment (field-independent basis, Debye):
    X=              2.7100    Y=             -6.5816    Z=             -0.8765  Tot=              7.1715
 Quadrupole moment (field-independent basis, Debye-Ang):
   XX=           -396.3698   YY=           -442.7185   ZZ=           -393.9392
   XY=             17.7750   XZ=             22.9650   YZ=            -39.1057

 Normal termination of Gaussian 09 at Fri Oct  4 14:45:10 2019.
