 Gaussian 09, Revision D.01,
 Gaussian 09:  ES64L-G09RevD.01 24-Apr-2013

 ----------------------------------------------------------------------
 # td=(NStates=1) iop(3/107=0140000000,3/108=0140000000) iop(3/107=0140
 000000,3/108=0140000000) CAM-B3LYP/6-31G(d,p)
 ----------------------------------------------------------------------

 --
 TD
 --
 Symbolic Z-matrix:
 Charge =  0 Multiplicity = 1

                         Standard orientation:
 ---------------------------------------------------------------------
 Center     Atomic      Atomic             Coordinates (Angstroms)
 Number     Number       Type             X           Y           Z
 ---------------------------------------------------------------------
      1         12           0       -5.596900    1.263396    0.081965
      2          6           0       -5.007088   -2.109284   -0.423056
      3          6           0       -3.322665    1.220330    2.703988
      4          6           0       -6.108099    4.596970    0.569596
      5          6           0       -7.979627    1.177485   -2.293371
      6          7           0       -4.321753   -0.259170    0.957311
      7          6           0       -4.288857   -1.560676    0.642243
      8          6           0       -3.190809   -2.278992    1.490672
      9          6           0       -2.795707   -1.256813    2.525860
     10          6           0       -3.593487    0.012650    2.091115
     11          6           0       -3.222037   -1.725501    4.030706
     12          6           0       -1.993799   -2.757235    0.664451
     13          6           0       -0.960825   -3.444756    1.463616
     14          6           0        0.271917   -3.926570    0.629090
     15          8           0        0.418946   -3.469758   -0.542412
     16          8           0        1.085499   -4.685832    1.315642
     17          7           0       -4.767695    2.662890    1.360211
     18          6           0       -3.785974    2.465685    2.333504
     19          6           0       -3.565359    3.677671    3.022476
     20          6           0       -4.404631    4.550893    2.490426
     21          6           0       -5.239529    3.930203    1.496019
     22          6           0       -2.754033    3.834062    4.236493
     23          6           0       -4.559574    5.982496    2.855418
     24          8           0       -3.853196    6.621644    3.653971
     25          7           0       -6.874248    2.576184   -0.795080
     26          6           0       -6.904618    3.976518   -0.383265
     27          6           0       -7.935205    4.596680   -1.193910
     28          6           0       -8.432345    3.593604   -1.982694
     29          6           0       -7.767051    2.402680   -1.746074
     30          6           0       -8.307917    5.972636   -1.084343
     31          6           0       -9.693010    3.834691   -2.872980
     32          6           0       -8.999161    3.913343   -4.337110
     33          7           0       -6.365008   -0.150056   -1.146504
     34          6           0       -7.356504   -0.047002   -2.028867
     35          6           0       -7.616533   -1.364490   -2.602843
     36          6           0       -6.727729   -2.224598   -2.056346
     37          6           0       -5.918502   -1.418481   -1.217845
     38          6           0       -8.699108   -1.735524   -3.752965
     39          6           0       -6.295976   -3.572444   -2.026910
     40          8           0       -6.635413   -4.623004   -2.562721
     41          6           0       -5.048795   -3.643377   -0.910398
     42          6           0       -5.384620   -4.554373    0.155100
     43          8           0       -5.858025   -4.372593    1.217117
     44          8           0       -5.119839   -5.842420   -0.220659
     45          6           0       -5.362662   -6.847473    0.781397
     46          6           0        2.298464   -4.997888    0.581183
     47          6           0        3.338096   -4.041521    0.901603
     48          6           0        3.969958   -3.178009   -0.011626
     49          6           0        3.620017   -3.001506   -1.378678
     50          6           0        5.123963   -2.378070    0.621058
     51          6           0        6.491726   -2.724378    0.040170
     52          6           0        7.597764   -1.852548    0.725460
     53          6           0        9.050222   -2.033138   -0.001817
     54          6           0        9.587691   -3.326957    0.309718
     55          6           0       10.086172   -1.021085    0.449335
     56          6           0       11.374573   -0.882695   -0.406608
     57          6           0       12.231499    0.221963    0.114717
     58          6           0       13.549314    0.455646   -0.658421
     59          6           0       14.500389   -0.742684   -0.294921
     60          6           0       14.155120    1.745137   -0.213271
     61          6           0       15.463949    2.147299   -1.048881
     62          6           0       15.991682    3.480603   -0.598683
     63          6           0       17.332028    3.860660   -1.313109
     64          6           0       17.165771    4.036310   -2.845763
     65          6           0       17.982076    5.075980   -0.782853
     66          1           0       -2.782876    0.924327    3.644059
     67          1           0       -6.314294    5.816814    0.599112
     68          1           0       -8.970793    1.161529   -2.847538
     69          1           0       -3.770182   -2.995526    2.046536
     70          1           0       -1.842374   -1.160357    2.526172
     71          1           0       -2.662736   -2.503885    4.536155
     72          1           0       -3.265106   -0.724799    4.588346
     73          1           0       -4.296124   -2.292403    3.961195
     74          1           0       -2.085108   -3.306258   -0.259840
     75          1           0       -1.503196   -1.828810    0.358960
     76          1           0       -0.383913   -2.661667    2.225522
     77          1           0       -1.018683   -4.404443    2.031980
     78          1           0       -1.603420    3.839894    3.760455
     79          1           0       -2.859357    4.981514    4.473287
     80          1           0       -2.886440    3.182726    5.029536
     81          1           0       -5.662116    6.413921    2.281023
     82          1           0      -10.334409    2.938675   -2.856402
     83          1           0      -10.420996    4.542727   -2.682670
     84          1           0       -9.693633    4.046112   -4.966596
     85          1           0       -8.314757    4.675328   -4.506992
     86          1           0       -8.455684    3.011881   -4.637551
     87          1           0       -8.528461   -1.184180   -4.620208
     88          1           0       -8.821704   -2.849081   -3.991895
     89          1           0       -9.787667   -1.305618   -3.388627
     90          1           0       -4.245943   -3.830149   -1.363664
     91          1           0        2.335001   -5.992358    1.187865
     92          1           0        2.195556   -5.463449   -0.529485
     93          1           0        3.552637   -3.829021    1.976891
     94          1           0        2.570234   -3.505689   -1.622725
     95          1           0        3.678186   -2.060809   -1.594275
     96          1           0        4.489787   -3.381880   -2.043215
     97          1           0        4.870483   -1.226171    0.418255
     98          1           0        5.342872   -2.553827    1.764698
     99          1           0        6.500348   -3.912061    0.071514
    100          1           0        6.509603   -2.539319   -1.070552
    101          1           0        7.170106   -0.793265    0.597880
    102          1           0        7.546996   -2.146349    1.761302
    103          1           0        8.769163   -2.081698   -1.121804
    104          1           0        8.757925   -4.173774    0.218597
    105          1           0       10.328996   -3.428854   -0.306442
    106          1           0        9.756064   -3.530665    1.349725
    107          1           0        9.574132    0.163392    0.364884
    108          1           0       10.190512   -1.029074    1.642107
    109          1           0       12.076337   -1.671968   -0.462690
    110          1           0       11.324592   -0.711606   -1.447155
    111          1           0       11.771975    1.353010    0.156766
    112          1           0       12.493954    0.165632    1.206840
    113          1           0       13.477501    0.378333   -1.734436
    114          1           0       14.416414   -1.174804    0.708733
    115          1           0       14.042272   -1.484053   -0.971012
    116          1           0       15.574280   -0.562765   -0.598361
    117          1           0       13.516239    2.611428   -0.266043
    118          1           0       14.354649    1.615803    0.836096
    119          1           0       16.261334    1.354295   -1.084903
    120          1           0       15.236310    2.039732   -2.052325
    121          1           0       15.234644    4.289564   -1.006302
    122          1           0       16.322337    3.648671    0.561525
    123          1           0       17.974129    3.012031   -1.080392
    124          1           0       16.434795    4.910360   -3.198728
    125          1           0       18.022681    4.175805   -3.276273
    126          1           0       16.854329    3.190609   -3.482751
    127          1           0       17.885444    5.141443    0.321290
    128          1           0       18.983290    4.859155   -1.189377
    129          1           0       17.700159    6.117093   -1.132015
    130          1           0       -4.816348   -7.704326    0.343781
    131          1           0       -6.497877   -7.187195    0.774598
    132          1           0       -5.047232   -6.667093    1.767127
    133          8           0       -7.852026    6.779094   -0.303485
    134          1           0       -9.012006    6.385938   -1.521197
 ---------------------------------------------------------------------

 SCF Done:  E(RCAM-B3LYP) =  -3043.36480151     A.U. after   16 cycles

 Excitation energies and oscillator strengths:

 Excited State   1:      Singlet-A      2.0037 eV  618.78 nm  f=0.1784  <S**2>=0.000
     243 -> 246       -0.27645
     244 -> 245        0.63896
 This state for optimization and/or second-order correction.
 Total Energy, E(TD-HF/TD-KS) =  -3043.29116719
 Copying the excited state density for this state as the 1-particle RhoCI density.

 The electronic state is 1-A.
 Alpha  occ. eigenvalues --  -46.81464 -19.24109 -19.20851 -19.18149 -19.17677
 Alpha  occ. eigenvalues --  -19.16902 -19.16544 -19.16390 -14.39090 -14.36763
 Alpha  occ. eigenvalues --  -14.36755 -14.36558 -10.34889 -10.33794 -10.32550
 Alpha  occ. eigenvalues --  -10.31433 -10.29213 -10.28522 -10.27539 -10.27176
 Alpha  occ. eigenvalues --  -10.26815 -10.26770 -10.26368 -10.26306 -10.26222
 Alpha  occ. eigenvalues --  -10.25915 -10.25837 -10.25489 -10.24770 -10.24698
 Alpha  occ. eigenvalues --  -10.24691 -10.24556 -10.24224 -10.24216 -10.24090
 Alpha  occ. eigenvalues --  -10.24081 -10.24056 -10.23886 -10.23629 -10.23601
 Alpha  occ. eigenvalues --  -10.23278 -10.23231 -10.22897 -10.22885 -10.22816
 Alpha  occ. eigenvalues --  -10.22728 -10.22701 -10.22606 -10.22460 -10.22229
 Alpha  occ. eigenvalues --  -10.22133 -10.22025 -10.21977 -10.21839 -10.21456
 Alpha  occ. eigenvalues --  -10.21345 -10.21047 -10.20977 -10.20884 -10.20335
 Alpha  occ. eigenvalues --  -10.20302 -10.20232 -10.20124 -10.19756 -10.19704
 Alpha  occ. eigenvalues --  -10.18822  -3.10021  -1.84971  -1.84490  -1.84422
 Alpha  occ. eigenvalues --   -1.15009  -1.13646  -1.07928  -1.07112  -1.05368
 Alpha  occ. eigenvalues --   -1.04437  -1.02812  -1.02284  -1.00225  -0.99994
 Alpha  occ. eigenvalues --   -0.99255  -0.88625  -0.86519  -0.86211  -0.85782
 Alpha  occ. eigenvalues --   -0.85240  -0.84728  -0.84709  -0.84295  -0.83710
 Alpha  occ. eigenvalues --   -0.83587  -0.83069  -0.81692  -0.80628  -0.79998
 Alpha  occ. eigenvalues --   -0.79318  -0.78743  -0.77886  -0.77378  -0.77066
 Alpha  occ. eigenvalues --   -0.75935  -0.74549  -0.73426  -0.72975  -0.72110
 Alpha  occ. eigenvalues --   -0.71517  -0.71403  -0.70544  -0.70262  -0.69836
 Alpha  occ. eigenvalues --   -0.69627  -0.68795  -0.68736  -0.67736  -0.66696
 Alpha  occ. eigenvalues --   -0.66023  -0.65051  -0.64774  -0.62978  -0.62727
 Alpha  occ. eigenvalues --   -0.61883  -0.60957  -0.60763  -0.60426  -0.59568
 Alpha  occ. eigenvalues --   -0.58667  -0.58625  -0.58033  -0.57612  -0.57021
 Alpha  occ. eigenvalues --   -0.56293  -0.56235  -0.55966  -0.55875  -0.55371
 Alpha  occ. eigenvalues --   -0.54258  -0.53825  -0.53129  -0.52573  -0.52278
 Alpha  occ. eigenvalues --   -0.51734  -0.51305  -0.51146  -0.50695  -0.50048
 Alpha  occ. eigenvalues --   -0.49935  -0.49809  -0.49699  -0.49437  -0.49052
 Alpha  occ. eigenvalues --   -0.48925  -0.48801  -0.48325  -0.48071  -0.47755
 Alpha  occ. eigenvalues --   -0.47482  -0.47230  -0.47108  -0.46890  -0.46783
 Alpha  occ. eigenvalues --   -0.46612  -0.46488  -0.46348  -0.46190  -0.45757
 Alpha  occ. eigenvalues --   -0.45442  -0.45172  -0.45070  -0.44965  -0.44852
 Alpha  occ. eigenvalues --   -0.44743  -0.44326  -0.44230  -0.44048  -0.43817
 Alpha  occ. eigenvalues --   -0.43628  -0.43331  -0.42993  -0.42815  -0.42590
 Alpha  occ. eigenvalues --   -0.42252  -0.42193  -0.42078  -0.41986  -0.41736
 Alpha  occ. eigenvalues --   -0.41675  -0.41597  -0.41440  -0.41366  -0.41172
 Alpha  occ. eigenvalues --   -0.40868  -0.40794  -0.40550  -0.40333  -0.40154
 Alpha  occ. eigenvalues --   -0.40040  -0.39761  -0.39532  -0.39341  -0.39153
 Alpha  occ. eigenvalues --   -0.39003  -0.38526  -0.38301  -0.38255  -0.38221
 Alpha  occ. eigenvalues --   -0.38078  -0.37544  -0.37142  -0.37081  -0.36950
 Alpha  occ. eigenvalues --   -0.36784  -0.36698  -0.36229  -0.36099  -0.35813
 Alpha  occ. eigenvalues --   -0.35554  -0.35188  -0.35149  -0.34834  -0.34806
 Alpha  occ. eigenvalues --   -0.34531  -0.34495  -0.33907  -0.33572  -0.33265
 Alpha  occ. eigenvalues --   -0.32536  -0.32207  -0.32129  -0.31998  -0.31663
 Alpha  occ. eigenvalues --   -0.31241  -0.30740  -0.30487  -0.30240  -0.29603
 Alpha  occ. eigenvalues --   -0.29319  -0.28586  -0.28291  -0.27943  -0.27663
 Alpha  occ. eigenvalues --   -0.26867  -0.26234  -0.22946  -0.21726
 Alpha virt. eigenvalues --   -0.08795  -0.06718  -0.02156  -0.00700   0.00482
 Alpha virt. eigenvalues --    0.01807   0.03472   0.03785   0.04008   0.04225
 Alpha virt. eigenvalues --    0.05077   0.05869   0.08347   0.09395   0.09644

 Mulliken charges:
               1
     1  Mg   0.829415
     2  C    0.018924
     3  C   -0.153883
     4  C   -0.189868
     5  C   -0.195924
     6  N   -0.618904
     7  C    0.292691
     8  C   -0.139805
     9  C   -0.130298
    10  C    0.313668
    11  C   -0.325325
    12  C   -0.172389
    13  C   -0.251021
    14  C    0.586991
    15  O   -0.503468
    16  O   -0.429864
    17  N   -0.689495
    18  C    0.281723
    19  C    0.075245
    20  C   -0.026490
    21  C    0.292930
    22  C   -0.389195
    23  C    0.257233
    24  O   -0.429500
    25  N   -0.733712
    26  C    0.260940
    27  C   -0.001550
    28  C   -0.009988
    29  C    0.386949
    30  C    0.284875
    31  C   -0.245122
    32  C   -0.328619
    33  N   -0.710910
    34  C    0.312980
    35  C   -0.016728
    36  C    0.128565
    37  C    0.254860
    38  C   -0.367937
    39  C    0.318388
    40  O   -0.445508
    41  C   -0.273360
    42  C    0.631539
    43  O   -0.460936
    44  O   -0.461445
    45  C   -0.083882
    46  C   -0.028727
    47  C   -0.122165
    48  C    0.153240
    49  C   -0.369643
    50  C   -0.219717
    51  C   -0.177001
    52  C   -0.176877
    53  C   -0.058737
    54  C   -0.277265
    55  C   -0.149355
    56  C   -0.178090
    57  C   -0.161846
    58  C   -0.074936
    59  C   -0.313145
    60  C   -0.160585
    61  C   -0.184121
    62  C   -0.148135
    63  C   -0.059811
    64  C   -0.310170
    65  C   -0.298674
    66  H    0.090081
    67  H    0.166711
    68  H    0.086265
    69  H    0.130685
    70  H    0.107483
    71  H    0.124864
    72  H    0.100624
    73  H    0.103751
    74  H    0.129461
    75  H    0.128802
    76  H    0.107854
    77  H    0.125149
    78  H    0.095521
    79  H    0.159454
    80  H    0.130675
    81  H    0.042649
    82  H    0.109536
    83  H    0.123511
    84  H    0.115491
    85  H    0.125529
    86  H    0.114230
    87  H    0.144324
    88  H    0.146444
    89  H    0.097552
    90  H    0.146923
    91  H    0.106533
    92  H    0.128628
    93  H    0.088114
    94  H    0.146065
    95  H    0.132387
    96  H    0.103323
    97  H    0.077360
    98  H    0.089105
    99  H    0.085643
   100  H    0.086480
   101  H    0.089128
   102  H    0.095286
   103  H    0.078939
   104  H    0.072226
   105  H    0.110891
   106  H    0.103257
   107  H    0.047329
   108  H    0.089952
   109  H    0.103615
   110  H    0.107958
   111  H    0.054227
   112  H    0.087217
   113  H    0.081382
   114  H    0.105422
   115  H    0.092827
   116  H    0.095858
   117  H    0.089827
   118  H    0.091956
   119  H    0.074677
   120  H    0.105980
   121  H    0.075747
   122  H    0.066446
   123  H    0.089893
   124  H    0.083762
   125  H    0.112180
   126  H    0.089433
   127  H    0.091674
   128  H    0.102158
   129  H    0.098586
   130  H    0.118203
   131  H    0.108806
   132  H    0.135712
   133  O   -0.426442
   134  H    0.051648
 Sum of Mulliken charges =   0.00000

 Dipole moment (field-independent basis, Debye):
    X=              2.0570    Y=             -4.2360    Z=             -2.2517  Tot=              5.2197
 Quadrupole moment (field-independent basis, Debye-Ang):
   XX=           -351.7160   YY=           -447.6775   ZZ=           -390.3691
   XY=             -8.1482   XZ=             20.4835   YZ=            -39.4807

 Normal termination of Gaussian 09 at Thu Oct  3 15:59:41 2019.
