 Gaussian 09, Revision D.01,
 Gaussian 09:  ES64L-G09RevD.01 24-Apr-2013

 ----------------------------------------------------------------------
 # td=(NStates=1) iop(3/107=0140000000,3/108=0140000000) iop(3/107=0140
 000000,3/108=0140000000) CAM-B3LYP/6-31G(d,p)
 ----------------------------------------------------------------------

 --
 TD
 --
 Symbolic Z-matrix:
 Charge =  0 Multiplicity = 1

                         Standard orientation:
 ---------------------------------------------------------------------
 Center     Atomic      Atomic             Coordinates (Angstroms)
 Number     Number       Type             X           Y           Z
 ---------------------------------------------------------------------
      1         12           0       -5.599310    1.242276    0.088490
      2          6           0       -4.955190   -2.073192   -0.430540
      3          6           0       -3.383292    1.209303    2.738852
      4          6           0       -6.186376    4.621796    0.625190
      5          6           0       -8.113314    1.093989   -2.432733
      6          7           0       -4.350677   -0.237528    0.939332
      7          6           0       -4.202409   -1.577076    0.615155
      8          6           0       -3.242498   -2.369351    1.474148
      9          6           0       -2.946556   -1.314901    2.591131
     10          6           0       -3.498209   -0.008419    2.039596
     11          6           0       -3.522103   -1.721186    3.857543
     12          6           0       -2.029143   -2.844685    0.625603
     13          6           0       -1.052469   -3.566251    1.474321
     14          6           0        0.204606   -3.900970    0.608340
     15          8           0        0.473134   -3.440033   -0.507469
     16          8           0        1.019289   -4.662334    1.246619
     17          7           0       -4.854289    2.708223    1.460594
     18          6           0       -3.888835    2.471761    2.419048
     19          6           0       -3.710705    3.647707    3.139659
     20          6           0       -4.566751    4.664567    2.700308
     21          6           0       -5.337467    3.949522    1.544937
     22          6           0       -2.567943    3.876063    4.130460
     23          6           0       -4.623049    6.166120    2.905528
     24          8           0       -3.806625    6.692391    3.650006
     25          7           0       -6.801775    2.645258   -0.721998
     26          6           0       -6.911721    3.964662   -0.364351
     27          6           0       -7.896430    4.591356   -1.191943
     28          6           0       -8.477519    3.572759   -2.055677
     29          6           0       -7.732884    2.362638   -1.712227
     30          6           0       -8.217635    5.989884   -1.123495
     31          6           0       -9.428867    3.810969   -3.118941
     32          6           0       -8.876012    3.930724   -4.514939
     33          7           0       -6.310947   -0.122417   -1.148699
     34          6           0       -7.381553   -0.113778   -2.086345
     35          6           0       -7.505840   -1.366131   -2.678237
     36          6           0       -6.717248   -2.201953   -1.970497
     37          6           0       -5.940035   -1.403513   -1.059167
     38          6           0       -8.590492   -1.613989   -3.700245
     39          6           0       -6.174995   -3.561091   -1.865653
     40          8           0       -6.695704   -4.557619   -2.546793
     41          6           0       -5.019680   -3.576613   -0.891042
     42          6           0       -5.357551   -4.650070    0.186111
     43          8           0       -5.766748   -4.455836    1.287684
     44          8           0       -5.155972   -5.812937   -0.329551
     45          6           0       -5.526206   -6.903297    0.590519
     46          6           0        2.340203   -5.062669    0.597166
     47          6           0        3.408894   -4.092076    0.934423
     48          6           0        4.031402   -3.217589    0.149508
     49          6           0        3.677856   -3.149767   -1.405202
     50          6           0        5.118965   -2.401100    0.725735
     51          6           0        6.554558   -2.663537    0.058171
     52          6           0        7.609921   -1.776974    0.630821
     53          6           0        8.998637   -1.954099   -0.026633
     54          6           0        9.595786   -3.384172    0.116711
     55          6           0       10.018786   -0.874836    0.610808
     56          6           0       11.320183   -0.931962   -0.214911
     57          6           0       12.229508    0.225485    0.206264
     58          6           0       13.616234    0.345395   -0.572383
     59          6           0       14.465596   -0.805744   -0.285615
     60          6           0       14.266844    1.710282   -0.146095
     61          6           0       15.503424    2.072818   -1.043066
     62          6           0       16.048878    3.490712   -0.485632
     63          6           0       17.309773    3.907940   -1.447036
     64          6           0       16.990321    3.988184   -2.983856
     65          6           0       17.870316    5.244652   -0.919039
     66          1           0       -2.469108    1.103094    3.463154
     67          1           0       -6.397831    5.712743    0.737721
     68          1           0       -8.793849    1.009320   -3.114210
     69          1           0       -3.850844   -3.359311    1.923771
     70          1           0       -1.818051   -1.085616    2.799557
     71          1           0       -3.194660   -2.725390    4.324751
     72          1           0       -3.454287   -0.904650    4.806493
     73          1           0       -4.598956   -1.649257    3.723478
     74          1           0       -2.424017   -3.527851   -0.181623
     75          1           0       -1.538161   -1.809492    0.293033
     76          1           0       -0.602940   -3.084172    2.394920
     77          1           0       -1.508706   -4.547451    1.799319
     78          1           0       -1.462714    3.623213    3.789899
     79          1           0       -2.576336    4.918270    4.346639
     80          1           0       -2.800829    3.483927    5.182175
     81          1           0       -5.349038    6.652984    2.267513
     82          1           0      -10.239945    2.945283   -3.057190
     83          1           0       -9.887152    4.620992   -2.860337
     84          1           0       -9.842959    4.005468   -5.114776
     85          1           0       -8.155092    4.770953   -4.491024
     86          1           0       -8.366442    3.000693   -4.697421
     87          1           0       -8.297826   -1.110038   -4.655505
     88          1           0       -8.377614   -2.741268   -3.669663
     89          1           0       -9.655312   -1.244867   -3.128838
     90          1           0       -4.162453   -3.987493   -1.431872
     91          1           0        2.734891   -5.947939    0.991148
     92          1           0        2.064982   -5.191150   -0.429782
     93          1           0        3.605141   -4.194523    2.138907
     94          1           0        2.540736   -3.610974   -1.664109
     95          1           0        3.727955   -1.903013   -1.664218
     96          1           0        4.365030   -3.719898   -1.962701
     97          1           0        4.931695   -1.447285    0.479660
     98          1           0        5.269070   -2.664573    1.728125
     99          1           0        6.671337   -3.715745    0.045867
    100          1           0        6.428246   -2.506508   -0.970633
    101          1           0        7.206259   -0.629951    0.511259
    102          1           0        7.725630   -1.935417    1.831492
    103          1           0        8.802618   -1.734590   -1.179440
    104          1           0        8.920276   -4.231095   -0.087648
    105          1           0       10.608737   -3.391563   -0.466334
    106          1           0        9.867006   -3.574454    1.262176
    107          1           0        9.517494   -0.069942    0.456347
    108          1           0       10.119749   -0.871455    1.785025
    109          1           0       11.804870   -1.868467    0.138311
    110          1           0       11.379406   -1.036920   -1.300482
    111          1           0       11.587857    1.030641   -0.046127
    112          1           0       12.534984    0.164982    1.341330
    113          1           0       13.300470    0.531693   -1.735560
    114          1           0       14.816030   -0.984788    0.690677
    115          1           0       14.207536   -1.771006   -0.662793
    116          1           0       15.487266   -0.676351   -0.865889
    117          1           0       13.604510    2.617553   -0.187468
    118          1           0       14.572137    1.701222    0.937936
    119          1           0       16.151648    1.487802   -0.853097
    120          1           0       15.375287    2.126880   -2.058470
    121          1           0       15.392937    4.323043   -0.579056
    122          1           0       16.576398    3.483884    0.472218
    123          1           0       18.093447    3.256599   -1.352497
    124          1           0       16.290259    4.593527   -3.106912
    125          1           0       17.942294    4.081144   -3.528756
    126          1           0       16.709359    2.768761   -3.278356
    127          1           0       18.270828    5.272067    0.068946
    128          1           0       18.744169    5.650428   -1.629017
    129          1           0       17.178373    6.025082   -0.980585
    130          1           0       -5.028896   -7.952807    0.164151
    131          1           0       -6.587783   -6.996258    0.640673
    132          1           0       -5.110380   -6.732893    1.561494
    133          8           0       -7.798438    6.864966   -0.338678
    134          1           0       -8.908959    6.313554   -1.990166
 ---------------------------------------------------------------------

 SCF Done:  E(RCAM-B3LYP) =  -3043.42057000     A.U. after   16 cycles

 Excitation energies and oscillator strengths:

 Excited State   1:      Singlet-A      1.9771 eV  627.09 nm  f=0.1630  <S**2>=0.000
     243 -> 246       -0.27976
     244 -> 245        0.64205
 This state for optimization and/or second-order correction.
 Total Energy, E(TD-HF/TD-KS) =  -3043.34791142
 Copying the excited state density for this state as the 1-particle RhoCI density.

 The electronic state is 1-A.
 Alpha  occ. eigenvalues --  -46.81059 -19.24289 -19.22347 -19.17782 -19.17253
 Alpha  occ. eigenvalues --  -19.16807 -19.16620 -19.15770 -14.39593 -14.37245
 Alpha  occ. eigenvalues --  -14.36721 -14.36423 -10.35771 -10.34435 -10.31689
 Alpha  occ. eigenvalues --  -10.30682 -10.30285 -10.29188 -10.28077 -10.27913
 Alpha  occ. eigenvalues --  -10.27667 -10.27563 -10.26618 -10.26223 -10.26157
 Alpha  occ. eigenvalues --  -10.26049 -10.25948 -10.25623 -10.25440 -10.25216
 Alpha  occ. eigenvalues --  -10.25102 -10.24727 -10.24667 -10.24602 -10.24554
 Alpha  occ. eigenvalues --  -10.24123 -10.24072 -10.24013 -10.23843 -10.23807
 Alpha  occ. eigenvalues --  -10.23796 -10.23567 -10.23485 -10.23337 -10.23323
 Alpha  occ. eigenvalues --  -10.23315 -10.22703 -10.22645 -10.22496 -10.22495
 Alpha  occ. eigenvalues --  -10.22328 -10.22259 -10.21955 -10.21667 -10.20943
 Alpha  occ. eigenvalues --  -10.20777 -10.20717 -10.20706 -10.20557 -10.20538
 Alpha  occ. eigenvalues --  -10.20490 -10.20436 -10.20370 -10.20136 -10.19597
 Alpha  occ. eigenvalues --  -10.18173  -3.09706  -1.84645  -1.84171  -1.84120
 Alpha  occ. eigenvalues --   -1.16948  -1.13836  -1.06748  -1.06375  -1.04872
 Alpha  occ. eigenvalues --   -1.02657  -1.02133  -1.00390  -0.99615  -0.98979
 Alpha  occ. eigenvalues --   -0.98303  -0.89048  -0.86424  -0.86131  -0.86035
 Alpha  occ. eigenvalues --   -0.84883  -0.84693  -0.84104  -0.83643  -0.83333
 Alpha  occ. eigenvalues --   -0.82364  -0.81977  -0.81499  -0.80664  -0.80183
 Alpha  occ. eigenvalues --   -0.79035  -0.78537  -0.77892  -0.77414  -0.76774
 Alpha  occ. eigenvalues --   -0.75041  -0.74249  -0.73701  -0.73347  -0.71694
 Alpha  occ. eigenvalues --   -0.71080  -0.70628  -0.70339  -0.70010  -0.69525
 Alpha  occ. eigenvalues --   -0.69198  -0.68530  -0.67243  -0.66733  -0.66168
 Alpha  occ. eigenvalues --   -0.65868  -0.65226  -0.63645  -0.63361  -0.62376
 Alpha  occ. eigenvalues --   -0.61415  -0.61177  -0.61023  -0.59957  -0.59538
 Alpha  occ. eigenvalues --   -0.58837  -0.58209  -0.57466  -0.57286  -0.57147
 Alpha  occ. eigenvalues --   -0.56192  -0.55993  -0.55826  -0.55159  -0.54935
 Alpha  occ. eigenvalues --   -0.53802  -0.53315  -0.52833  -0.52546  -0.52229
 Alpha  occ. eigenvalues --   -0.52074  -0.51920  -0.51755  -0.51413  -0.50928
 Alpha  occ. eigenvalues --   -0.50748  -0.49757  -0.49589  -0.49112  -0.48980
 Alpha  occ. eigenvalues --   -0.48853  -0.48602  -0.48470  -0.48051  -0.47625
 Alpha  occ. eigenvalues --   -0.47454  -0.47240  -0.46924  -0.46773  -0.46614
 Alpha  occ. eigenvalues --   -0.46456  -0.46345  -0.46033  -0.45850  -0.45573
 Alpha  occ. eigenvalues --   -0.45281  -0.45261  -0.45086  -0.44806  -0.44497
 Alpha  occ. eigenvalues --   -0.44396  -0.44337  -0.43882  -0.43621  -0.43461
 Alpha  occ. eigenvalues --   -0.43328  -0.43120  -0.42947  -0.42649  -0.42587
 Alpha  occ. eigenvalues --   -0.42455  -0.42251  -0.42049  -0.41789  -0.41567
 Alpha  occ. eigenvalues --   -0.41237  -0.41038  -0.40951  -0.40852  -0.40767
 Alpha  occ. eigenvalues --   -0.40684  -0.40371  -0.40318  -0.40107  -0.39884
 Alpha  occ. eigenvalues --   -0.39779  -0.39592  -0.39482  -0.39256  -0.39215
 Alpha  occ. eigenvalues --   -0.38813  -0.38745  -0.38517  -0.38321  -0.38037
 Alpha  occ. eigenvalues --   -0.37737  -0.37650  -0.37387  -0.37293  -0.36987
 Alpha  occ. eigenvalues --   -0.36707  -0.36548  -0.36324  -0.35678  -0.35600
 Alpha  occ. eigenvalues --   -0.35394  -0.35189  -0.35019  -0.34970  -0.34815
 Alpha  occ. eigenvalues --   -0.34731  -0.34437  -0.34033  -0.34012  -0.33573
 Alpha  occ. eigenvalues --   -0.33187  -0.32773  -0.32593  -0.31911  -0.31653
 Alpha  occ. eigenvalues --   -0.31621  -0.31008  -0.30106  -0.29639  -0.28813
 Alpha  occ. eigenvalues --   -0.28626  -0.27808  -0.27714  -0.27568  -0.27491
 Alpha  occ. eigenvalues --   -0.27391  -0.27240  -0.23188  -0.21706
 Alpha virt. eigenvalues --   -0.08828  -0.07336  -0.02243  -0.00715   0.00005
 Alpha virt. eigenvalues --    0.03001   0.03381   0.04004   0.04237   0.04831
 Alpha virt. eigenvalues --    0.05066   0.05207   0.07413   0.07989   0.09027

 Mulliken charges:
               1
     1  Mg   0.822296
     2  C    0.023595
     3  C   -0.174479
     4  C   -0.160385
     5  C   -0.113951
     6  N   -0.621847
     7  C    0.330500
     8  C   -0.165524
     9  C   -0.129796
    10  C    0.304081
    11  C   -0.293167
    12  C   -0.142155
    13  C   -0.262694
    14  C    0.592824
    15  O   -0.500535
    16  O   -0.451177
    17  N   -0.680476
    18  C    0.326723
    19  C    0.016285
    20  C   -0.048916
    21  C    0.278236
    22  C   -0.395476
    23  C    0.266400
    24  O   -0.412731
    25  N   -0.723954
    26  C    0.329621
    27  C   -0.024443
    28  C    0.022796
    29  C    0.284503
    30  C    0.230218
    31  C   -0.242988
    32  C   -0.290763
    33  N   -0.754196
    34  C    0.263176
    35  C   -0.003388
    36  C    0.045395
    37  C    0.354605
    38  C   -0.363505
    39  C    0.340133
    40  O   -0.507848
    41  C   -0.300858
    42  C    0.610789
    43  O   -0.471908
    44  O   -0.402972
    45  C   -0.099907
    46  C    0.011846
    47  C   -0.147625
    48  C    0.143383
    49  C   -0.359042
    50  C   -0.216011
    51  C   -0.196764
    52  C   -0.150048
    53  C   -0.052447
    54  C   -0.302843
    55  C   -0.160492
    56  C   -0.193269
    57  C   -0.162056
    58  C   -0.052177
    59  C   -0.312389
    60  C   -0.179924
    61  C   -0.145928
    62  C   -0.197260
    63  C   -0.077122
    64  C   -0.280474
    65  C   -0.320724
    66  H    0.093521
    67  H    0.150186
    68  H    0.073853
    69  H    0.121816
    70  H    0.094281
    71  H    0.111455
    72  H    0.079350
    73  H    0.130073
    74  H    0.114720
    75  H    0.117391
    76  H    0.139360
    77  H    0.123477
    78  H    0.107983
    79  H    0.161380
    80  H    0.111893
    81  H    0.104124
    82  H    0.087461
    83  H    0.119329
    84  H    0.112173
    85  H    0.119338
    86  H    0.114293
    87  H    0.133056
    88  H    0.155451
    89  H    0.109708
    90  H    0.171793
    91  H    0.128683
    92  H    0.124990
    93  H    0.067498
    94  H    0.135856
    95  H    0.081296
    96  H    0.131571
    97  H    0.109286
    98  H    0.106729
    99  H    0.100216
   100  H    0.101483
   101  H    0.067628
   102  H    0.064546
   103  H    0.071058
   104  H    0.102153
   105  H    0.101335
   106  H    0.080908
   107  H    0.105476
   108  H    0.084200
   109  H    0.095011
   110  H    0.097210
   111  H    0.092386
   112  H    0.069276
   113  H    0.057679
   114  H    0.115108
   115  H    0.111258
   116  H    0.076934
   117  H    0.084239
   118  H    0.080816
   119  H    0.103988
   120  H    0.098055
   121  H    0.095781
   122  H    0.096490
   123  H    0.094601
   124  H    0.114476
   125  H    0.106769
   126  H    0.054849
   127  H    0.104034
   128  H    0.066520
   129  H    0.105061
   130  H    0.109687
   131  H    0.154781
   132  H    0.146008
   133  O   -0.452248
   134  H    0.048090
 Sum of Mulliken charges =   0.00000

 Dipole moment (field-independent basis, Debye):
    X=              3.0427    Y=             -6.5436    Z=             -0.3975  Tot=              7.2274
 Quadrupole moment (field-independent basis, Debye-Ang):
   XX=           -376.5048   YY=           -432.9119   ZZ=           -398.7825
   XY=              6.0788   XZ=             17.5553   YZ=            -37.1363

 Normal termination of Gaussian 09 at Fri Oct  4 17:18:43 2019.
