 Gaussian 09, Revision D.01,
 Gaussian 09:  ES64L-G09RevD.01 24-Apr-2013

 ----------------------------------------------------------------------
 # td=(NStates=1) iop(3/107=0140000000,3/108=0140000000) iop(3/107=0140
 000000,3/108=0140000000) CAM-B3LYP/6-31G(d,p)
 ----------------------------------------------------------------------

 --
 TD
 --
 Symbolic Z-matrix:
 Charge =  0 Multiplicity = 1

                         Standard orientation:
 ---------------------------------------------------------------------
 Center     Atomic      Atomic             Coordinates (Angstroms)
 Number     Number       Type             X           Y           Z
 ---------------------------------------------------------------------
      1         12           0       -5.643012    1.221993    0.219705
      2          6           0       -5.038520   -2.175145   -0.251480
      3          6           0       -3.515692    1.249749    2.779400
      4          6           0       -6.253688    4.614691    0.615011
      5          6           0       -8.044012    1.169781   -2.392820
      6          7           0       -4.348795   -0.258552    1.021641
      7          6           0       -4.257515   -1.633028    0.721234
      8          6           0       -3.271189   -2.323776    1.665222
      9          6           0       -2.955927   -1.254076    2.708587
     10          6           0       -3.638395    0.007870    2.150273
     11          6           0       -3.335146   -1.612708    4.151888
     12          6           0       -2.062933   -2.720329    0.705291
     13          6           0       -0.937819   -3.474652    1.546851
     14          6           0        0.203281   -3.862972    0.600903
     15          8           0        0.368069   -3.456268   -0.429167
     16          8           0        1.066726   -4.713112    1.248047
     17          7           0       -5.022379    2.718874    1.390511
     18          6           0       -4.051956    2.472550    2.346850
     19          6           0       -3.672030    3.664176    3.033597
     20          6           0       -4.486555    4.702289    2.567368
     21          6           0       -5.352008    4.030909    1.401537
     22          6           0       -2.778743    3.789467    4.204931
     23          6           0       -4.622272    6.135768    2.863575
     24          8           0       -4.135763    6.722776    3.797810
     25          7           0       -6.923708    2.614463   -0.695173
     26          6           0       -6.910341    3.947155   -0.378207
     27          6           0       -7.944671    4.595008   -1.369236
     28          6           0       -8.467880    3.551765   -2.096159
     29          6           0       -7.753542    2.392780   -1.731406
     30          6           0       -8.229687    5.962966   -1.269896
     31          6           0       -9.296015    3.791805   -3.160210
     32          6           0       -8.701089    3.937308   -4.534584
     33          7           0       -6.412846   -0.214186   -1.006003
     34          6           0       -7.395984   -0.062339   -2.017069
     35          6           0       -7.678637   -1.433474   -2.534707
     36          6           0       -6.768648   -2.169745   -1.950128
     37          6           0       -5.974965   -1.430990   -1.032817
     38          6           0       -8.572310   -1.811574   -3.637567
     39          6           0       -6.254804   -3.534432   -1.871123
     40          8           0       -6.615173   -4.458049   -2.570851
     41          6           0       -5.024817   -3.650777   -0.854995
     42          6           0       -5.229617   -4.753799    0.159362
     43          8           0       -5.604771   -4.593611    1.254344
     44          8           0       -4.988458   -5.887475   -0.355525
     45          6           0       -5.064530   -6.991852    0.456932
     46          6           0        2.354494   -5.073283    0.524993
     47          6           0        3.382243   -4.008749    0.959393
     48          6           0        4.021432   -3.232060    0.100732
     49          6           0        3.623528   -3.069170   -1.295363
     50          6           0        5.078692   -2.424884    0.622079
     51          6           0        6.438543   -2.523054   -0.136237
     52          6           0        7.579669   -1.800639    0.449831
     53          6           0        8.965603   -2.026668   -0.218734
     54          6           0        9.530607   -3.420225    0.088132
     55          6           0        9.845465   -0.824465    0.201386
     56          6           0       11.275960   -0.894161   -0.321152
     57          6           0       12.255322    0.297255    0.120151
     58          6           0       13.604342    0.401722   -0.592843
     59          6           0       14.494583   -0.737138   -0.285989
     60          6           0       14.260474    1.733397   -0.111631
     61          6           0       15.567067    2.125707   -0.777000
     62          6           0       16.121374    3.530622   -0.536448
     63          6           0       17.440396    3.743022   -1.261598
     64          6           0       17.193956    3.955931   -2.845284
     65          6           0       18.098745    5.168259   -0.711548
     66          1           0       -2.812740    1.266570    3.629668
     67          1           0       -6.557862    5.626489    0.713197
     68          1           0       -8.828026    1.327054   -3.180237
     69          1           0       -3.808975   -3.285182    1.937558
     70          1           0       -1.949254   -1.229092    2.631385
     71          1           0       -2.764460   -2.531800    4.453920
     72          1           0       -3.096712   -0.847208    4.858313
     73          1           0       -4.424931   -1.809044    4.259404
     74          1           0       -2.408674   -3.367545   -0.050644
     75          1           0       -1.446409   -1.835166    0.201674
     76          1           0       -0.735244   -3.046842    2.622559
     77          1           0       -1.375172   -4.459594    1.632316
     78          1           0       -1.697706    3.441017    3.985019
     79          1           0       -2.383337    5.140287    4.233120
     80          1           0       -3.004291    3.314879    5.122955
     81          1           0       -5.135339    6.699722    1.938123
     82          1           0      -10.095655    2.940044   -3.393496
     83          1           0       -9.968971    4.637783   -2.966404
     84          1           0       -9.534989    4.059174   -5.185670
     85          1           0       -8.207624    5.033506   -4.624320
     86          1           0       -8.109384    3.174740   -4.592768
     87          1           0       -8.508300   -1.228322   -4.565298
     88          1           0       -8.459554   -3.054980   -3.898064
     89          1           0       -9.515507   -1.505555   -3.230348
     90          1           0       -4.265163   -3.929558   -1.584446
     91          1           0        2.591287   -5.887714    1.095254
     92          1           0        2.213393   -5.256657   -0.559461
     93          1           0        3.469887   -3.967283    2.071839
     94          1           0        2.702785   -3.455305   -1.349668
     95          1           0        3.866513   -1.911275   -1.594222
     96          1           0        4.126972   -3.647739   -2.082059
     97          1           0        4.908750   -1.378850    0.645968
     98          1           0        5.305176   -2.879066    1.460740
     99          1           0        6.757364   -3.652121   -0.266086
    100          1           0        6.282756   -2.036646   -1.119461
    101          1           0        7.323505   -0.800235    0.287811
    102          1           0        7.726647   -1.954854    1.550460
    103          1           0        8.970157   -1.730814   -1.332828
    104          1           0        8.768045   -4.201302   -0.180896
    105          1           0       10.367073   -3.446242   -0.390390
    106          1           0        9.868814   -3.596495    1.166123
    107          1           0        9.604700    0.189456    0.110976
    108          1           0        9.810037   -1.172724    1.349589
    109          1           0       11.782832   -1.641743   -0.034567
    110          1           0       11.460951   -0.914806   -1.288281
    111          1           0       11.764033    1.373666    0.038507
    112          1           0       12.482712    0.146074    1.246266
    113          1           0       13.623989    0.514022   -1.549541
    114          1           0       14.966546   -0.939447    0.708408
    115          1           0       14.005094   -1.703342   -0.437656
    116          1           0       15.485937   -0.588833   -0.758125
    117          1           0       13.623841    2.746238   -0.160063
    118          1           0       14.503046    1.674307    1.111109
    119          1           0       16.397368    1.349770   -0.985926
    120          1           0       15.266757    2.240461   -1.889410
    121          1           0       15.288701    4.224925   -0.994118
    122          1           0       16.162292    3.947107    0.566656
    123          1           0       18.091956    2.963556   -1.199039
    124          1           0       16.210411    4.466948   -2.982385
    125          1           0       18.020547    4.269612   -3.465661
    126          1           0       16.994337    3.015041   -3.192119
    127          1           0       18.091296    5.156189    0.326698
    128          1           0       19.049953    5.541159   -1.339637
    129          1           0       17.319484    5.855207   -0.912584
    130          1           0       -4.971780   -7.902448   -0.100090
    131          1           0       -6.134886   -7.113651    0.832928
    132          1           0       -4.469746   -6.956857    1.355943
    133          8           0       -7.805307    6.814540   -0.648648
    134          1           0       -8.960637    6.162077   -2.105554
 ---------------------------------------------------------------------

 SCF Done:  E(RCAM-B3LYP) =  -3043.38408891     A.U. after   16 cycles

 Excitation energies and oscillator strengths:

 Excited State   1:      Singlet-A      2.0201 eV  613.76 nm  f=0.2046  <S**2>=0.000
     243 -> 246       -0.23680
     244 -> 245        0.65954
 This state for optimization and/or second-order correction.
 Total Energy, E(TD-HF/TD-KS) =  -3043.30985281
 Copying the excited state density for this state as the 1-particle RhoCI density.

 The electronic state is 1-A.
 Alpha  occ. eigenvalues --  -46.81319 -19.23871 -19.20387 -19.17788 -19.17375
 Alpha  occ. eigenvalues --  -19.16977 -19.16803 -19.16663 -14.38965 -14.37253
 Alpha  occ. eigenvalues --  -14.36811 -14.36726 -10.34835 -10.34017 -10.31076
 Alpha  occ. eigenvalues --  -10.30815 -10.28429 -10.27959 -10.27676 -10.27335
 Alpha  occ. eigenvalues --  -10.27275 -10.27156 -10.27008 -10.26532 -10.25947
 Alpha  occ. eigenvalues --  -10.25604 -10.25409 -10.25360 -10.25317 -10.24791
 Alpha  occ. eigenvalues --  -10.24414 -10.24413 -10.24281 -10.24146 -10.24107
 Alpha  occ. eigenvalues --  -10.24067 -10.24051 -10.23704 -10.23326 -10.23231
 Alpha  occ. eigenvalues --  -10.23060 -10.22992 -10.22664 -10.22644 -10.22557
 Alpha  occ. eigenvalues --  -10.22480 -10.22007 -10.21998 -10.21885 -10.21856
 Alpha  occ. eigenvalues --  -10.21855 -10.21590 -10.21516 -10.21470 -10.21292
 Alpha  occ. eigenvalues --  -10.21256 -10.20866 -10.20844 -10.20834 -10.20334
 Alpha  occ. eigenvalues --  -10.20224 -10.20184 -10.20180 -10.19480 -10.19302
 Alpha  occ. eigenvalues --  -10.18395  -3.09929  -1.84875  -1.84395  -1.84337
 Alpha  occ. eigenvalues --   -1.18940  -1.15619  -1.11121  -1.07962  -1.07285
 Alpha  occ. eigenvalues --   -1.07104  -1.05127  -1.01042  -0.99892  -0.99257
 Alpha  occ. eigenvalues --   -0.98501  -0.87808  -0.87725  -0.87381  -0.85978
 Alpha  occ. eigenvalues --   -0.85478  -0.85388  -0.84887  -0.84492  -0.83293
 Alpha  occ. eigenvalues --   -0.82995  -0.82752  -0.81590  -0.81175  -0.80413
 Alpha  occ. eigenvalues --   -0.79303  -0.78804  -0.78341  -0.77655  -0.76573
 Alpha  occ. eigenvalues --   -0.75918  -0.74484  -0.74118  -0.73865  -0.73389
 Alpha  occ. eigenvalues --   -0.72457  -0.71098  -0.70981  -0.70278  -0.69953
 Alpha  occ. eigenvalues --   -0.69592  -0.68885  -0.67477  -0.66806  -0.66287
 Alpha  occ. eigenvalues --   -0.66079  -0.65296  -0.64082  -0.62632  -0.61949
 Alpha  occ. eigenvalues --   -0.61777  -0.61165  -0.60800  -0.60559  -0.59679
 Alpha  occ. eigenvalues --   -0.59046  -0.58357  -0.57576  -0.57257  -0.56901
 Alpha  occ. eigenvalues --   -0.56387  -0.55977  -0.55779  -0.55673  -0.54910
 Alpha  occ. eigenvalues --   -0.54724  -0.54205  -0.53540  -0.53098  -0.52916
 Alpha  occ. eigenvalues --   -0.52724  -0.52492  -0.52232  -0.51962  -0.51226
 Alpha  occ. eigenvalues --   -0.50646  -0.50549  -0.50021  -0.49879  -0.49488
 Alpha  occ. eigenvalues --   -0.48833  -0.48726  -0.48637  -0.48517  -0.48197
 Alpha  occ. eigenvalues --   -0.47898  -0.47653  -0.47541  -0.47374  -0.47156
 Alpha  occ. eigenvalues --   -0.46993  -0.46805  -0.46627  -0.46274  -0.46104
 Alpha  occ. eigenvalues --   -0.45843  -0.45516  -0.45421  -0.45147  -0.45027
 Alpha  occ. eigenvalues --   -0.44904  -0.44664  -0.44525  -0.44265  -0.44047
 Alpha  occ. eigenvalues --   -0.43960  -0.43795  -0.43532  -0.43094  -0.42900
 Alpha  occ. eigenvalues --   -0.42853  -0.42767  -0.42643  -0.42472  -0.42324
 Alpha  occ. eigenvalues --   -0.42137  -0.41733  -0.41467  -0.41241  -0.41140
 Alpha  occ. eigenvalues --   -0.40941  -0.40842  -0.40632  -0.40408  -0.40270
 Alpha  occ. eigenvalues --   -0.40107  -0.39934  -0.39813  -0.39729  -0.39520
 Alpha  occ. eigenvalues --   -0.39480  -0.39317  -0.38847  -0.38790  -0.38637
 Alpha  occ. eigenvalues --   -0.38521  -0.38129  -0.37682  -0.37285  -0.37155
 Alpha  occ. eigenvalues --   -0.36986  -0.36897  -0.36580  -0.36287  -0.35743
 Alpha  occ. eigenvalues --   -0.35719  -0.35321  -0.35101  -0.35069  -0.34639
 Alpha  occ. eigenvalues --   -0.34266  -0.33751  -0.33712  -0.33405  -0.33286
 Alpha  occ. eigenvalues --   -0.33160  -0.32427  -0.32132  -0.31724  -0.31299
 Alpha  occ. eigenvalues --   -0.31030  -0.30845  -0.30733  -0.30186  -0.30074
 Alpha  occ. eigenvalues --   -0.28916  -0.28476  -0.27950  -0.27433  -0.27317
 Alpha  occ. eigenvalues --   -0.26933  -0.26491  -0.23428  -0.21281
 Alpha virt. eigenvalues --   -0.08335  -0.06307  -0.00958  -0.00040   0.01178
 Alpha virt. eigenvalues --    0.03471   0.03859   0.04114   0.04352   0.05042
 Alpha virt. eigenvalues --    0.05774   0.06811   0.07984   0.08750   0.08964

 Mulliken charges:
               1
     1  Mg   0.817669
     2  C    0.073386
     3  C   -0.193172
     4  C   -0.155948
     5  C   -0.147100
     6  N   -0.644367
     7  C    0.284996
     8  C   -0.168062
     9  C   -0.122316
    10  C    0.346701
    11  C   -0.315453
    12  C   -0.188656
    13  C   -0.286449
    14  C    0.584753
    15  O   -0.386569
    16  O   -0.509217
    17  N   -0.731579
    18  C    0.345515
    19  C    0.066620
    20  C   -0.009772
    21  C    0.310413
    22  C   -0.387629
    23  C    0.231445
    24  O   -0.400765
    25  N   -0.706405
    26  C    0.275927
    27  C   -0.026325
    28  C    0.102054
    29  C    0.310323
    30  C    0.243586
    31  C   -0.319985
    32  C   -0.263586
    33  N   -0.728148
    34  C    0.219744
    35  C    0.016400
    36  C    0.061563
    37  C    0.325173
    38  C   -0.380875
    39  C    0.331901
    40  O   -0.456692
    41  C   -0.321325
    42  C    0.615846
    43  O   -0.459337
    44  O   -0.377383
    45  C   -0.108171
    46  C   -0.006266
    47  C   -0.164077
    48  C    0.181722
    49  C   -0.359264
    50  C   -0.217109
    51  C   -0.193524
    52  C   -0.149414
    53  C   -0.074679
    54  C   -0.304155
    55  C   -0.162723
    56  C   -0.179740
    57  C   -0.189621
    58  C   -0.028629
    59  C   -0.323398
    60  C   -0.156373
    61  C   -0.187346
    62  C   -0.164800
    63  C   -0.056145
    64  C   -0.326068
    65  C   -0.319242
    66  H    0.087396
    67  H    0.133468
    68  H    0.100432
    69  H    0.137344
    70  H    0.118827
    71  H    0.107336
    72  H    0.115408
    73  H    0.125486
    74  H    0.118338
    75  H    0.114869
    76  H    0.128491
    77  H    0.134652
    78  H    0.110583
    79  H    0.104104
    80  H    0.144966
    81  H    0.068533
    82  H    0.080340
    83  H    0.118336
    84  H    0.119190
    85  H    0.090895
    86  H    0.113516
    87  H    0.131556
    88  H    0.132704
    89  H    0.131292
    90  H    0.162257
    91  H    0.125471
    92  H    0.125484
    93  H    0.091618
    94  H    0.137405
    95  H    0.090820
    96  H    0.115273
    97  H    0.102677
    98  H    0.102864
    99  H    0.067343
   100  H    0.088804
   101  H    0.092821
   102  H    0.080411
   103  H    0.074035
   104  H    0.106710
   105  H    0.120958
   106  H    0.091060
   107  H    0.102502
   108  H    0.061670
   109  H    0.104549
   110  H    0.098037
   111  H    0.064084
   112  H    0.085458
   113  H    0.099142
   114  H    0.099503
   115  H    0.099339
   116  H    0.097683
   117  H    0.073246
   118  H    0.057129
   119  H    0.086849
   120  H    0.083084
   121  H    0.079687
   122  H    0.076808
   123  H    0.099721
   124  H    0.097415
   125  H    0.104164
   126  H    0.108464
   127  H    0.105994
   128  H    0.084687
   129  H    0.110646
   130  H    0.130989
   131  H    0.118437
   132  H    0.129359
   133  O   -0.387518
   134  H   -0.003080
 Sum of Mulliken charges =   0.00000

 Dipole moment (field-independent basis, Debye):
    X=              3.2123    Y=             -6.6832    Z=             -1.2455  Tot=              7.5190
 Quadrupole moment (field-independent basis, Debye-Ang):
   XX=           -392.8599   YY=           -439.0672   ZZ=           -395.1416
   XY=              9.1162   XZ=             11.1295   YZ=            -31.3815

 Normal termination of Gaussian 09 at Sat Oct  5 03:22:26 2019.
