 Gaussian 09, Revision D.01,
 Gaussian 09:  ES64L-G09RevD.01 24-Apr-2013

 ----------------------------------------------------------------------
 # td=(NStates=1) iop(3/107=0140000000,3/108=0140000000) iop(3/107=0140
 000000,3/108=0140000000) CAM-B3LYP/6-31G(d,p)
 ----------------------------------------------------------------------

 --
 TD
 --
 Symbolic Z-matrix:
 Charge =  0 Multiplicity = 1

                         Standard orientation:
 ---------------------------------------------------------------------
 Center     Atomic      Atomic             Coordinates (Angstroms)
 Number     Number       Type             X           Y           Z
 ---------------------------------------------------------------------
      1         12           0       -5.587257    1.183277    0.151318
      2          6           0       -5.061385   -2.194328   -0.340120
      3          6           0       -3.413840    1.152336    2.713255
      4          6           0       -6.160589    4.574666    0.637914
      5          6           0       -7.961955    1.187171   -2.394852
      6          7           0       -4.397203   -0.265780    1.037379
      7          6           0       -4.353856   -1.597205    0.600924
      8          6           0       -3.285218   -2.298343    1.439921
      9          6           0       -2.982330   -1.317532    2.578230
     10          6           0       -3.675484   -0.029623    2.044062
     11          6           0       -3.621161   -1.746035    3.906928
     12          6           0       -2.065245   -2.672509    0.647126
     13          6           0       -0.961603   -3.403402    1.430553
     14          6           0        0.299237   -3.896850    0.643227
     15          8           0        0.566260   -3.497164   -0.490426
     16          8           0        1.023495   -4.696724    1.266995
     17          7           0       -4.974492    2.646953    1.490089
     18          6           0       -3.965951    2.411980    2.462368
     19          6           0       -3.574574    3.660831    3.058806
     20          6           0       -4.320790    4.666642    2.477927
     21          6           0       -5.194016    4.047007    1.440157
     22          6           0       -2.567008    3.796611    4.248160
     23          6           0       -4.506862    6.130724    2.838499
     24          8           0       -3.716036    6.595879    3.725311
     25          7           0       -6.790364    2.664953   -0.708459
     26          6           0       -6.830561    3.947085   -0.398278
     27          6           0       -7.968460    4.599966   -1.193925
     28          6           0       -8.477865    3.581359   -1.901636
     29          6           0       -7.739456    2.481787   -1.726857
     30          6           0       -8.450221    6.083750   -1.094532
     31          6           0       -9.590566    3.819620   -3.066632
     32          6           0       -9.077285    3.857144   -4.527390
     33          7           0       -6.372240   -0.144248   -1.079451
     34          6           0       -7.303769   -0.007532   -2.120650
     35          6           0       -7.533332   -1.250095   -2.728252
     36          6           0       -6.708621   -2.181478   -2.132602
     37          6           0       -6.038765   -1.406194   -1.102452
     38          6           0       -8.514874   -1.518851   -3.838051
     39          6           0       -6.320869   -3.615016   -2.026788
     40          8           0       -6.655673   -4.662690   -2.592104
     41          6           0       -5.169656   -3.654366   -0.863870
     42          6           0       -5.473534   -4.616628    0.230655
     43          8           0       -5.809648   -4.375439    1.340022
     44          8           0       -5.249270   -5.939797   -0.208069
     45          6           0       -5.549252   -6.997670    0.756305
     46          6           0        2.422453   -4.899659    0.738403
     47          6           0        3.504458   -3.892509    1.054946
     48          6           0        4.129107   -3.206900    0.079711
     49          6           0        3.726338   -3.112517   -1.421714
     50          6           0        5.207340   -2.311085    0.610813
     51          6           0        6.656499   -2.763777   -0.063257
     52          6           0        7.714805   -1.847747    0.547744
     53          6           0        9.063481   -2.003432   -0.120464
     54          6           0        9.548404   -3.527714    0.127776
     55          6           0        9.998728   -0.995972    0.410749
     56          6           0       11.383185   -0.900441   -0.209741
     57          6           0       12.251777    0.276488    0.301703
     58          6           0       13.562958    0.434721   -0.516250
     59          6           0       14.651228   -0.674964   -0.376281
     60          6           0       14.196884    1.859778   -0.095150
     61          6           0       15.427304    2.163128   -0.900976
     62          6           0       16.150424    3.470021   -0.621868
     63          6           0       17.385306    3.784271   -1.375964
     64          6           0       17.182806    3.995309   -2.864847
     65          6           0       17.937671    5.106962   -0.834874
     66          1           0       -2.413765    1.031398    3.347776
     67          1           0       -6.437445    5.623281    0.745064
     68          1           0       -8.757549    1.092556   -3.159791
     69          1           0       -3.657580   -3.261742    1.909312
     70          1           0       -1.962694   -1.137772    2.675848
     71          1           0       -3.282664   -2.893382    4.130158
     72          1           0       -3.396301   -1.176138    4.735915
     73          1           0       -4.790734   -1.638705    3.806935
     74          1           0       -2.453200   -3.260304   -0.155998
     75          1           0       -1.796077   -1.766129    0.188322
     76          1           0       -0.606161   -2.885930    2.238376
     77          1           0       -1.247096   -4.408906    1.742009
     78          1           0       -1.442532    3.945858    3.788613
     79          1           0       -2.623711    4.651851    4.791699
     80          1           0       -2.658150    2.946347    5.015848
     81          1           0       -5.260155    6.646950    2.089136
     82          1           0      -10.339071    3.027356   -2.960886
     83          1           0      -10.200226    4.651609   -2.722415
     84          1           0      -10.021613    3.902693   -5.343736
     85          1           0       -8.347132    4.657759   -4.652427
     86          1           0       -8.580315    2.833482   -4.749195
     87          1           0       -8.336796   -0.819680   -4.611486
     88          1           0       -8.447165   -2.702008   -3.868511
     89          1           0       -9.536491   -1.340768   -3.566241
     90          1           0       -4.343199   -4.056619   -1.521861
     91          1           0        2.672601   -5.913916    1.072556
     92          1           0        2.397875   -4.958721   -0.215302
     93          1           0        3.780793   -3.864733    2.173875
     94          1           0        2.682039   -3.473626   -1.620077
     95          1           0        3.814985   -2.058387   -1.821914
     96          1           0        4.579162   -3.787010   -1.889325
     97          1           0        4.936227   -1.181424    0.188447
     98          1           0        5.248167   -2.241430    1.675202
     99          1           0        6.865764   -3.959196    0.017460
    100          1           0        6.600307   -2.360454   -1.082270
    101          1           0        7.091107   -0.754952    0.357691
    102          1           0        7.898730   -1.926751    1.649766
    103          1           0        9.225452   -1.975402   -1.260630
    104          1           0        8.814411   -4.443963   -0.116212
    105          1           0       10.492939   -3.680560   -0.508100
    106          1           0        9.757551   -3.714819    0.995189
    107          1           0        9.527358    0.064671    0.168383
    108          1           0       10.214073   -0.960622    1.546322
    109          1           0       11.932905   -1.952116   -0.112865
    110          1           0       11.321646   -0.702576   -1.417763
    111          1           0       11.760041    1.214683    0.192441
    112          1           0       12.693560    0.311966    1.312028
    113          1           0       13.198230    0.550140   -1.502866
    114          1           0       14.753733   -0.706005    0.667179
    115          1           0       14.424317   -1.705419   -0.739850
    116          1           0       15.585040   -0.767703   -0.881603
    117          1           0       13.517614    2.650669   -0.331762
    118          1           0       14.440656    1.812313    0.926278
    119          1           0       16.191877    1.428545   -0.733268
    120          1           0       15.118219    2.057473   -2.186719
    121          1           0       15.338507    4.292451   -0.721031
    122          1           0       16.295438    3.445079    0.429070
    123          1           0       18.148222    3.119407   -1.308495
    124          1           0       16.308207    4.738541   -3.249721
    125          1           0       18.091006    4.175819   -3.559870
    126          1           0       16.922888    2.978355   -3.314774
    127          1           0       18.135317    5.109084    0.307116
    128          1           0       18.943484    5.326736   -1.335871
    129          1           0       17.200117    5.955899   -1.199766
    130          1           0       -5.202270   -7.755210    0.293578
    131          1           0       -6.596200   -6.903061    0.838083
    132          1           0       -4.951413   -6.651841    1.568461
    133          8           0       -8.054507    6.748480   -0.209147
    134          1           0       -9.171308    6.318261   -1.826452
 ---------------------------------------------------------------------

 SCF Done:  E(RCAM-B3LYP) =  -3043.46219439     A.U. after   15 cycles

 Excitation energies and oscillator strengths:

 Excited State   1:      Singlet-A      2.0466 eV  605.81 nm  f=0.2031  <S**2>=0.000
     243 -> 246       -0.21869
     244 -> 245        0.66465
 This state for optimization and/or second-order correction.
 Total Energy, E(TD-HF/TD-KS) =  -3043.38698342
 Copying the excited state density for this state as the 1-particle RhoCI density.

 The electronic state is 1-A.
 Alpha  occ. eigenvalues --  -46.80929 -19.22672 -19.19880 -19.18425 -19.17847
 Alpha  occ. eigenvalues --  -19.17791 -19.17480 -19.14262 -14.38441 -14.37057
 Alpha  occ. eigenvalues --  -14.36674 -14.36288 -10.34544 -10.33468 -10.32797
 Alpha  occ. eigenvalues --  -10.32095 -10.31172 -10.26985 -10.26867 -10.26814
 Alpha  occ. eigenvalues --  -10.26489 -10.26393 -10.26156 -10.25930 -10.25855
 Alpha  occ. eigenvalues --  -10.25826 -10.25607 -10.25504 -10.25003 -10.24785
 Alpha  occ. eigenvalues --  -10.24527 -10.24415 -10.24106 -10.24025 -10.23958
 Alpha  occ. eigenvalues --  -10.23691 -10.23280 -10.23260 -10.23157 -10.23091
 Alpha  occ. eigenvalues --  -10.23029 -10.22937 -10.22889 -10.22882 -10.22876
 Alpha  occ. eigenvalues --  -10.22876 -10.22833 -10.22741 -10.22740 -10.22575
 Alpha  occ. eigenvalues --  -10.22458 -10.22418 -10.22283 -10.22267 -10.21989
 Alpha  occ. eigenvalues --  -10.21673 -10.21630 -10.21463 -10.21355 -10.21304
 Alpha  occ. eigenvalues --  -10.20879 -10.20830 -10.20391 -10.20301 -10.20130
 Alpha  occ. eigenvalues --  -10.19773  -3.09616  -1.84556  -1.84073  -1.84045
 Alpha  occ. eigenvalues --   -1.15534  -1.12226  -1.10280  -1.06234  -1.04042
 Alpha  occ. eigenvalues --   -1.03955  -1.02078  -1.01971  -1.01033  -1.00005
 Alpha  occ. eigenvalues --   -0.96890  -0.88049  -0.86137  -0.85732  -0.85449
 Alpha  occ. eigenvalues --   -0.85301  -0.84970  -0.84598  -0.83445  -0.83430
 Alpha  occ. eigenvalues --   -0.82501  -0.81531  -0.81131  -0.80282  -0.79530
 Alpha  occ. eigenvalues --   -0.78465  -0.77875  -0.77664  -0.77192  -0.76702
 Alpha  occ. eigenvalues --   -0.74928  -0.74571  -0.73743  -0.73120  -0.72383
 Alpha  occ. eigenvalues --   -0.71787  -0.71316  -0.70458  -0.69609  -0.69235
 Alpha  occ. eigenvalues --   -0.69116  -0.68606  -0.67232  -0.66621  -0.66115
 Alpha  occ. eigenvalues --   -0.65655  -0.64982  -0.64152  -0.61990  -0.61701
 Alpha  occ. eigenvalues --   -0.61332  -0.60617  -0.59721  -0.59352  -0.59063
 Alpha  occ. eigenvalues --   -0.58678  -0.58553  -0.58198  -0.57197  -0.56869
 Alpha  occ. eigenvalues --   -0.56339  -0.55863  -0.55588  -0.54856  -0.54296
 Alpha  occ. eigenvalues --   -0.53843  -0.53295  -0.52659  -0.52557  -0.52048
 Alpha  occ. eigenvalues --   -0.51915  -0.51526  -0.51275  -0.50938  -0.50241
 Alpha  occ. eigenvalues --   -0.50088  -0.49985  -0.49747  -0.49102  -0.48937
 Alpha  occ. eigenvalues --   -0.48852  -0.48420  -0.48251  -0.48044  -0.47826
 Alpha  occ. eigenvalues --   -0.47416  -0.47116  -0.47026  -0.46799  -0.46601
 Alpha  occ. eigenvalues --   -0.46474  -0.46194  -0.46098  -0.46006  -0.45664
 Alpha  occ. eigenvalues --   -0.45608  -0.45372  -0.45145  -0.44854  -0.44600
 Alpha  occ. eigenvalues --   -0.44436  -0.44226  -0.43997  -0.43907  -0.43809
 Alpha  occ. eigenvalues --   -0.43587  -0.43274  -0.43111  -0.42918  -0.42626
 Alpha  occ. eigenvalues --   -0.42514  -0.42337  -0.42273  -0.42000  -0.41812
 Alpha  occ. eigenvalues --   -0.41738  -0.41487  -0.41440  -0.40870  -0.40834
 Alpha  occ. eigenvalues --   -0.40538  -0.40339  -0.40237  -0.39682  -0.39542
 Alpha  occ. eigenvalues --   -0.39387  -0.39130  -0.38975  -0.38914  -0.38754
 Alpha  occ. eigenvalues --   -0.38563  -0.38384  -0.38306  -0.38054  -0.37721
 Alpha  occ. eigenvalues --   -0.37564  -0.37517  -0.37264  -0.36621  -0.36375
 Alpha  occ. eigenvalues --   -0.36314  -0.36310  -0.36220  -0.36115  -0.35780
 Alpha  occ. eigenvalues --   -0.35637  -0.35053  -0.34969  -0.34893  -0.34838
 Alpha  occ. eigenvalues --   -0.34489  -0.34215  -0.33704  -0.33634  -0.33104
 Alpha  occ. eigenvalues --   -0.32660  -0.32324  -0.31994  -0.31652  -0.31544
 Alpha  occ. eigenvalues --   -0.31412  -0.30831  -0.30575  -0.30465  -0.29340
 Alpha  occ. eigenvalues --   -0.28700  -0.28353  -0.28327  -0.28037  -0.27989
 Alpha  occ. eigenvalues --   -0.27493  -0.27191  -0.23591  -0.21434
 Alpha virt. eigenvalues --   -0.08356  -0.06274  -0.01749  -0.00877   0.00958
 Alpha virt. eigenvalues --    0.02878   0.03311   0.03816   0.04620   0.05451
 Alpha virt. eigenvalues --    0.05889   0.06470   0.08127   0.08973   0.09091

 Mulliken charges:
               1
     1  Mg   0.813539
     2  C    0.108876
     3  C   -0.196907
     4  C   -0.183276
     5  C   -0.167935
     6  N   -0.653858
     7  C    0.280011
     8  C   -0.174649
     9  C   -0.140116
    10  C    0.366534
    11  C   -0.293572
    12  C   -0.151450
    13  C   -0.261331
    14  C    0.559788
    15  O   -0.507240
    16  O   -0.423827
    17  N   -0.695527
    18  C    0.319681
    19  C    0.035445
    20  C   -0.012968
    21  C    0.297175
    22  C   -0.358235
    23  C    0.246288
    24  O   -0.430617
    25  N   -0.667407
    26  C    0.293996
    27  C   -0.087941
    28  C    0.019335
    29  C    0.261008
    30  C    0.278145
    31  C   -0.226803
    32  C   -0.290006
    33  N   -0.737175
    34  C    0.286629
    35  C   -0.002932
    36  C    0.039806
    37  C    0.284562
    38  C   -0.380169
    39  C    0.353946
    40  O   -0.454901
    41  C   -0.321590
    42  C    0.631988
    43  O   -0.448779
    44  O   -0.508405
    45  C   -0.057508
    46  C    0.013127
    47  C   -0.157881
    48  C    0.151119
    49  C   -0.367479
    50  C   -0.229771
    51  C   -0.171974
    52  C   -0.141035
    53  C   -0.053258
    54  C   -0.313877
    55  C   -0.150445
    56  C   -0.171482
    57  C   -0.168911
    58  C   -0.071750
    59  C   -0.315437
    60  C   -0.181896
    61  C   -0.153260
    62  C   -0.150654
    63  C   -0.038113
    64  C   -0.307287
    65  C   -0.290091
    66  H    0.090263
    67  H    0.123319
    68  H    0.094365
    69  H    0.112016
    70  H    0.100808
    71  H    0.089844
    72  H    0.120872
    73  H    0.112599
    74  H    0.108294
    75  H    0.114354
    76  H    0.135282
    77  H    0.125766
    78  H    0.104682
    79  H    0.163342
    80  H    0.110151
    81  H    0.107319
    82  H    0.107224
    83  H    0.102864
    84  H    0.088397
    85  H    0.125171
    86  H    0.101280
    87  H    0.134272
    88  H    0.141230
    89  H    0.134325
    90  H    0.173429
    91  H    0.112293
    92  H    0.129807
    93  H    0.082110
    94  H    0.165338
    95  H    0.117884
    96  H    0.108998
    97  H    0.074440
    98  H    0.110119
    99  H    0.084969
   100  H    0.115378
   101  H    0.054657
   102  H    0.093739
   103  H    0.086081
   104  H    0.077102
   105  H    0.091468
   106  H    0.120746
   107  H    0.077616
   108  H    0.084138
   109  H    0.083858
   110  H    0.062905
   111  H    0.100812
   112  H    0.083554
   113  H    0.085683
   114  H    0.104680
   115  H    0.087055
   116  H    0.113987
   117  H    0.096268
   118  H    0.091213
   119  H    0.093800
   120  H    0.031027
   121  H    0.071023
   122  H    0.092357
   123  H    0.099362
   124  H    0.085281
   125  H    0.092841
   126  H    0.092276
   127  H    0.084324
   128  H    0.086453
   129  H    0.088869
   130  H    0.131002
   131  H    0.136943
   132  H    0.127139
   133  O   -0.384858
   134  H    0.082521
 Sum of Mulliken charges =   0.00000

 Dipole moment (field-independent basis, Debye):
    X=              2.4261    Y=             -3.4328    Z=             -0.9805  Tot=              4.3164
 Quadrupole moment (field-independent basis, Debye-Ang):
   XX=           -360.4454   YY=           -433.2456   ZZ=           -397.2881
   XY=            -17.1398   XZ=             29.6790   YZ=            -37.0922

 Normal termination of Gaussian 09 at Mon Oct  7 12:38:03 2019.
