 Gaussian 09, Revision D.01,
 Gaussian 09:  ES64L-G09RevD.01 24-Apr-2013

 ----------------------------------------------------------------------
 # td=(NStates=1) iop(3/107=0140000000,3/108=0140000000) iop(3/107=0140
 000000,3/108=0140000000) CAM-B3LYP/6-31G(d,p)
 ----------------------------------------------------------------------

 --
 TD
 --
 Symbolic Z-matrix:
 Charge =  0 Multiplicity = 1

                         Standard orientation:
 ---------------------------------------------------------------------
 Center     Atomic      Atomic             Coordinates (Angstroms)
 Number     Number       Type             X           Y           Z
 ---------------------------------------------------------------------
      1         12           0       -5.568124    1.197664    0.166286
      2          6           0       -4.941241   -2.142939   -0.376722
      3          6           0       -3.422353    1.124187    2.745576
      4          6           0       -6.388886    4.505722    0.682423
      5          6           0       -8.004568    1.151671   -2.433685
      6          7           0       -4.297575   -0.354130    1.043587
      7          6           0       -4.174901   -1.605517    0.602834
      8          6           0       -3.262566   -2.365526    1.501655
      9          6           0       -2.902898   -1.368616    2.634139
     10          6           0       -3.631016   -0.118846    2.106371
     11          6           0       -3.317837   -1.746964    4.022893
     12          6           0       -2.031174   -2.783654    0.670779
     13          6           0       -1.015000   -3.504141    1.434065
     14          6           0        0.178790   -3.885486    0.628432
     15          8           0        0.480885   -3.523746   -0.442790
     16          8           0        0.998033   -4.674796    1.426941
     17          7           0       -4.951873    2.649076    1.467269
     18          6           0       -3.987259    2.395656    2.490495
     19          6           0       -3.819967    3.610102    3.159313
     20          6           0       -4.693003    4.525832    2.546238
     21          6           0       -5.373245    3.951890    1.372518
     22          6           0       -2.856789    3.926151    4.336089
     23          6           0       -4.773298    6.053312    2.887023
     24          8           0       -4.345056    6.632418    3.942318
     25          7           0       -6.925375    2.607108   -0.751366
     26          6           0       -7.101118    3.945260   -0.319864
     27          6           0       -8.110580    4.574846   -1.083542
     28          6           0       -8.567921    3.632843   -2.066566
     29          6           0       -7.764252    2.408830   -1.797134
     30          6           0       -8.535967    5.987109   -1.147246
     31          6           0       -9.573354    3.775349   -3.127015
     32          6           0       -8.982565    3.848858   -4.513216
     33          7           0       -6.378713   -0.121122   -1.127851
     34          6           0       -7.348112   -0.076543   -2.106298
     35          6           0       -7.583359   -1.449993   -2.707878
     36          6           0       -6.624600   -2.225908   -2.014360
     37          6           0       -5.934604   -1.333786   -1.165707
     38          6           0       -8.374215   -1.871652   -3.865036
     39          6           0       -6.087708   -3.605603   -2.140540
     40          8           0       -6.392806   -4.468186   -2.819742
     41          6           0       -4.981223   -3.477625   -0.949376
     42          6           0       -5.131644   -4.675703    0.101934
     43          8           0       -5.534612   -4.565481    1.196780
     44          8           0       -4.651147   -5.860426   -0.402044
     45          6           0       -4.727204   -7.136736    0.359034
     46          6           0        2.359951   -5.018602    0.824436
     47          6           0        3.421410   -4.054548    1.114095
     48          6           0        4.027562   -3.190081    0.273268
     49          6           0        3.656829   -3.197363   -1.335172
     50          6           0        5.212733   -2.388787    0.737613
     51          6           0        6.547536   -2.597466    0.094496
     52          6           0        7.674848   -1.754048    0.574319
     53          6           0        9.120475   -1.971231    0.053739
     54          6           0        9.577442   -3.382022    0.484865
     55          6           0       10.034307   -0.862501    0.420852
     56          6           0       11.440188   -0.835157   -0.245243
     57          6           0       12.169901    0.482654    0.135004
     58          6           0       13.519682    0.588065   -0.565992
     59          6           0       14.495468   -0.679206   -0.359987
     60          6           0       14.194022    1.870043   -0.220748
     61          6           0       15.391376    2.147229   -1.154851
     62          6           0       15.992458    3.604478   -0.815435
     63          6           0       17.325383    4.048418   -1.336473
     64          6           0       17.171587    4.228097   -3.000076
     65          6           0       17.860708    5.306983   -0.774871
     66          1           0       -2.890386    1.267805    3.569742
     67          1           0       -6.519102    5.528219    0.879032
     68          1           0       -8.945146    1.132834   -3.148975
     69          1           0       -3.852242   -3.202069    2.142252
     70          1           0       -1.780862   -1.084615    2.602469
     71          1           0       -2.681536   -2.521033    4.509238
     72          1           0       -3.071975   -0.749706    4.678866
     73          1           0       -4.430417   -2.070902    3.933239
     74          1           0       -2.469302   -3.363185   -0.046389
     75          1           0       -1.567976   -1.659980    0.376923
     76          1           0       -0.833364   -3.013897    2.326463
     77          1           0       -1.673204   -4.492707    1.854055
     78          1           0       -1.951395    3.146612    3.946761
     79          1           0       -2.643631    5.056363    4.442396
     80          1           0       -3.284800    3.472659    5.243375
     81          1           0       -5.513694    6.507751    2.030888
     82          1           0      -10.162602    2.897694   -2.885031
     83          1           0      -10.269708    4.590683   -2.962109
     84          1           0       -9.680517    3.983775   -5.325271
     85          1           0       -8.408922    4.756662   -4.747285
     86          1           0       -8.341582    3.042704   -4.752029
     87          1           0       -8.274398   -0.985181   -4.474205
     88          1           0       -7.896267   -2.652761   -4.427766
     89          1           0       -9.573344   -2.111799   -3.570328
     90          1           0       -4.068522   -3.701134   -1.473234
     91          1           0        2.675640   -6.064516    1.239511
     92          1           0        2.218177   -5.309326   -0.347947
     93          1           0        3.791228   -3.878424    2.024180
     94          1           0        2.698333   -3.381439   -1.448970
     95          1           0        3.888219   -2.286881   -1.862106
     96          1           0        4.331198   -3.822759   -1.946914
     97          1           0        5.047113   -1.201114    0.548773
     98          1           0        5.231801   -2.620245    1.846168
     99          1           0        6.998127   -3.814029    0.240115
    100          1           0        6.371159   -2.526643   -1.059050
    101          1           0        7.491250   -0.662143    0.386185
    102          1           0        7.739003   -2.050960    1.611787
    103          1           0        9.143674   -1.953781   -1.067471
    104          1           0        8.936272   -4.329844    0.050472
    105          1           0       10.561607   -3.711506    0.109807
    106          1           0        9.645238   -3.462347    1.575026
    107          1           0        9.486728    0.053680    0.043312
    108          1           0       10.270182   -0.816348    1.457356
    109          1           0       11.853268   -1.823373    0.152767
    110          1           0       11.342061   -1.039100   -1.297793
    111          1           0       11.660065    1.393605    0.039134
    112          1           0       12.457065    0.314062    1.262335
    113          1           0       13.242578    0.611064   -1.666642
    114          1           0       14.929866   -0.488678    0.612593
    115          1           0       13.795364   -1.750977   -0.422280
    116          1           0       15.279948   -0.949787   -1.280552
    117          1           0       13.334036    2.542311   -0.254221
    118          1           0       14.675331    2.122129    0.861524
    119          1           0       16.098550    1.430169   -1.028058
    120          1           0       15.112831    1.918598   -2.207405
    121          1           0       15.160373    4.248085   -1.094037
    122          1           0       15.943841    3.539731    0.349457
    123          1           0       18.083558    3.337343   -1.259383
    124          1           0       16.346273    4.875918   -3.207248
    125          1           0       18.147823    4.571605   -3.474240
    126          1           0       17.069282    3.096649   -3.507442
    127          1           0       18.219173    5.181305    0.193014
    128          1           0       18.769305    5.629502   -1.229060
    129          1           0       17.180400    6.168409   -0.757474
    130          1           0       -4.386869   -7.929158   -0.242680
    131          1           0       -5.728360   -7.252213    1.073834
    132          1           0       -4.103799   -7.034067    1.205134
    133          8           0       -8.087312    6.818778   -0.371883
    134          1           0       -9.363022    6.319699   -1.826928
 ---------------------------------------------------------------------

 SCF Done:  E(RCAM-B3LYP) =  -3043.44818182     A.U. after   16 cycles

 Excitation energies and oscillator strengths:

 Excited State   1:      Singlet-A      2.0224 eV  613.05 nm  f=0.1773  <S**2>=0.000
     243 -> 246       -0.23777
     244 -> 245        0.65343
 This state for optimization and/or second-order correction.
 Total Energy, E(TD-HF/TD-KS) =  -3043.37385999
 Copying the excited state density for this state as the 1-particle RhoCI density.

 The electronic state is 1-A.
 Alpha  occ. eigenvalues --  -46.82399 -19.22308 -19.21149 -19.19200 -19.17969
 Alpha  occ. eigenvalues --  -19.17952 -19.17610 -19.16683 -14.38878 -14.37692
 Alpha  occ. eigenvalues --  -14.36840 -14.35793 -10.35629 -10.34817 -10.32340
 Alpha  occ. eigenvalues --  -10.31676 -10.30379 -10.29284 -10.28624 -10.27620
 Alpha  occ. eigenvalues --  -10.27420 -10.26670 -10.26508 -10.26437 -10.26366
 Alpha  occ. eigenvalues --  -10.26100 -10.25761 -10.25687 -10.25654 -10.24987
 Alpha  occ. eigenvalues --  -10.24855 -10.24214 -10.24183 -10.24152 -10.24124
 Alpha  occ. eigenvalues --  -10.24117 -10.23999 -10.23952 -10.23895 -10.23880
 Alpha  occ. eigenvalues --  -10.23563 -10.23521 -10.23372 -10.23345 -10.23170
 Alpha  occ. eigenvalues --  -10.23098 -10.22896 -10.22205 -10.22123 -10.22000
 Alpha  occ. eigenvalues --  -10.21993 -10.21803 -10.21675 -10.21584 -10.21558
 Alpha  occ. eigenvalues --  -10.21500 -10.21487 -10.21316 -10.21267 -10.21212
 Alpha  occ. eigenvalues --  -10.21087 -10.20755 -10.20477 -10.20038 -10.19812
 Alpha  occ. eigenvalues --  -10.18784  -3.10765  -1.85721  -1.85236  -1.85153
 Alpha  occ. eigenvalues --   -1.13637  -1.13128  -1.12915  -1.06335  -1.05344
 Alpha  occ. eigenvalues --   -1.04211  -1.03325  -1.03129  -1.01809  -0.98650
 Alpha  occ. eigenvalues --   -0.97515  -0.88956  -0.86896  -0.86217  -0.85975
 Alpha  occ. eigenvalues --   -0.85312  -0.84939  -0.84386  -0.84273  -0.83515
 Alpha  occ. eigenvalues --   -0.82907  -0.82015  -0.81101  -0.80476  -0.79902
 Alpha  occ. eigenvalues --   -0.78907  -0.78216  -0.77970  -0.77026  -0.75870
 Alpha  occ. eigenvalues --   -0.74806  -0.74241  -0.73764  -0.73380  -0.71967
 Alpha  occ. eigenvalues --   -0.71741  -0.70534  -0.69833  -0.69711  -0.69454
 Alpha  occ. eigenvalues --   -0.69005  -0.68553  -0.67533  -0.66664  -0.66569
 Alpha  occ. eigenvalues --   -0.65314  -0.64946  -0.63701  -0.62536  -0.62229
 Alpha  occ. eigenvalues --   -0.61813  -0.60975  -0.59800  -0.59487  -0.59060
 Alpha  occ. eigenvalues --   -0.58694  -0.58228  -0.58158  -0.57165  -0.56975
 Alpha  occ. eigenvalues --   -0.56027  -0.55911  -0.55484  -0.54641  -0.54350
 Alpha  occ. eigenvalues --   -0.53968  -0.53436  -0.53262  -0.52346  -0.52296
 Alpha  occ. eigenvalues --   -0.51455  -0.51341  -0.50963  -0.50715  -0.50569
 Alpha  occ. eigenvalues --   -0.50329  -0.50313  -0.49874  -0.49377  -0.49313
 Alpha  occ. eigenvalues --   -0.48970  -0.48917  -0.48594  -0.48264  -0.48119
 Alpha  occ. eigenvalues --   -0.47863  -0.47513  -0.47105  -0.46967  -0.46769
 Alpha  occ. eigenvalues --   -0.46680  -0.46389  -0.46202  -0.46130  -0.45704
 Alpha  occ. eigenvalues --   -0.45426  -0.45342  -0.45199  -0.44795  -0.44676
 Alpha  occ. eigenvalues --   -0.44635  -0.44458  -0.44334  -0.44128  -0.43918
 Alpha  occ. eigenvalues --   -0.43760  -0.43721  -0.43565  -0.43262  -0.43041
 Alpha  occ. eigenvalues --   -0.42977  -0.42597  -0.42364  -0.42248  -0.42094
 Alpha  occ. eigenvalues --   -0.42009  -0.41869  -0.41775  -0.41527  -0.41355
 Alpha  occ. eigenvalues --   -0.41270  -0.41206  -0.40839  -0.40670  -0.40183
 Alpha  occ. eigenvalues --   -0.40069  -0.39632  -0.39217  -0.39136  -0.38921
 Alpha  occ. eigenvalues --   -0.38802  -0.38729  -0.38598  -0.38039  -0.37530
 Alpha  occ. eigenvalues --   -0.37353  -0.37063  -0.37035  -0.36797  -0.36759
 Alpha  occ. eigenvalues --   -0.36297  -0.36120  -0.35994  -0.35781  -0.35487
 Alpha  occ. eigenvalues --   -0.35367  -0.35239  -0.34953  -0.34676  -0.34126
 Alpha  occ. eigenvalues --   -0.34052  -0.33958  -0.33723  -0.33647  -0.33282
 Alpha  occ. eigenvalues --   -0.32877  -0.32430  -0.32008  -0.31967  -0.31564
 Alpha  occ. eigenvalues --   -0.31488  -0.31246  -0.31188  -0.30917  -0.29860
 Alpha  occ. eigenvalues --   -0.28861  -0.28317  -0.27756  -0.27736  -0.27669
 Alpha  occ. eigenvalues --   -0.27044  -0.26602  -0.23351  -0.21447
 Alpha virt. eigenvalues --   -0.08557  -0.06407  -0.01330  -0.00729   0.00900
 Alpha virt. eigenvalues --    0.02503   0.03302   0.03519   0.03737   0.04096
 Alpha virt. eigenvalues --    0.05172   0.05388   0.08002   0.08303   0.09133

 Mulliken charges:
               1
     1  Mg   0.822079
     2  C    0.132080
     3  C   -0.141305
     4  C   -0.132505
     5  C   -0.187901
     6  N   -0.617921
     7  C    0.299410
     8  C   -0.193947
     9  C   -0.144864
    10  C    0.358127
    11  C   -0.297337
    12  C   -0.137107
    13  C   -0.259162
    14  C    0.623656
    15  O   -0.425342
    16  O   -0.499025
    17  N   -0.756877
    18  C    0.315161
    19  C    0.018725
    20  C   -0.074685
    21  C    0.335179
    22  C   -0.349426
    23  C    0.251980
    24  O   -0.440336
    25  N   -0.683771
    26  C    0.292277
    27  C   -0.021868
    28  C    0.013544
    29  C    0.306677
    30  C    0.239177
    31  C   -0.246317
    32  C   -0.323847
    33  N   -0.703633
    34  C    0.236611
    35  C    0.035924
    36  C   -0.034030
    37  C    0.322474
    38  C   -0.375766
    39  C    0.392573
    40  O   -0.380726
    41  C   -0.395052
    42  C    0.605753
    43  O   -0.430248
    44  O   -0.476771
    45  C   -0.089738
    46  C   -0.013837
    47  C   -0.088849
    48  C    0.134851
    49  C   -0.383581
    50  C   -0.216317
    51  C   -0.147273
    52  C   -0.142756
    53  C   -0.051841
    54  C   -0.322888
    55  C   -0.166062
    56  C   -0.190327
    57  C   -0.164046
    58  C   -0.058146
    59  C   -0.297327
    60  C   -0.161693
    61  C   -0.187849
    62  C   -0.156792
    63  C   -0.050077
    64  C   -0.315155
    65  C   -0.313364
    66  H    0.053721
    67  H    0.120209
    68  H    0.100982
    69  H    0.124273
    70  H    0.100039
    71  H    0.117736
    72  H    0.093401
    73  H    0.118328
    74  H    0.117482
    75  H    0.090891
    76  H    0.146361
    77  H    0.102300
    78  H    0.079814
    79  H    0.160740
    80  H    0.138420
    81  H    0.076111
    82  H    0.121251
    83  H    0.113261
    84  H    0.111742
    85  H    0.117528
    86  H    0.119797
    87  H    0.126576
    88  H    0.153252
    89  H    0.112491
    90  H    0.162652
    91  H    0.111340
    92  H    0.116606
    93  H    0.075270
    94  H    0.149376
    95  H    0.104538
    96  H    0.111582
    97  H    0.083694
    98  H    0.086449
    99  H    0.047194
   100  H    0.079469
   101  H    0.079126
   102  H    0.095942
   103  H    0.077014
   104  H    0.083270
   105  H    0.099992
   106  H    0.103979
   107  H    0.077771
   108  H    0.093602
   109  H    0.096220
   110  H    0.090842
   111  H    0.104421
   112  H    0.078522
   113  H    0.083110
   114  H    0.115938
   115  H    0.066174
   116  H    0.086247
   117  H    0.084466
   118  H    0.066737
   119  H    0.109047
   120  H    0.085118
   121  H    0.097042
   122  H    0.066765
   123  H    0.093685
   124  H    0.113013
   125  H    0.093096
   126  H    0.069860
   127  H    0.105660
   128  H    0.101998
   129  H    0.098390
   130  H    0.145673
   131  H    0.116208
   132  H    0.133910
   133  O   -0.418943
   134  H    0.072657
 Sum of Mulliken charges =   0.00000

 Dipole moment (field-independent basis, Debye):
    X=              1.7971    Y=             -5.8526    Z=             -2.5301  Tot=              6.6245
 Quadrupole moment (field-independent basis, Debye-Ang):
   XX=           -366.7569   YY=           -439.4983   ZZ=           -396.9074
   XY=             19.7174   XZ=             33.9055   YZ=            -37.5517

 Normal termination of Gaussian 09 at Mon Oct  7 23:12:29 2019.
