 Gaussian 09, Revision D.01,
 Gaussian 09:  ES64L-G09RevD.01 24-Apr-2013

 ----------------------------------------------------------------------
 # td=(NStates=1) iop(3/107=0140000000,3/108=0140000000) iop(3/107=0140
 000000,3/108=0140000000) CAM-B3LYP/6-31G(d,p)
 ----------------------------------------------------------------------

 --
 TD
 --
 Symbolic Z-matrix:
 Charge =  0 Multiplicity = 1

                         Standard orientation:
 ---------------------------------------------------------------------
 Center     Atomic      Atomic             Coordinates (Angstroms)
 Number     Number       Type             X           Y           Z
 ---------------------------------------------------------------------
      1         12           0       -5.625191    1.253137    0.184519
      2          6           0       -4.989790   -2.133093   -0.349576
      3          6           0       -3.416699    1.194089    2.835301
      4          6           0       -6.259307    4.581841    0.655809
      5          6           0       -8.036119    1.177764   -2.329638
      6          7           0       -4.357541   -0.309572    1.048576
      7          6           0       -4.235704   -1.590281    0.647574
      8          6           0       -3.265895   -2.375314    1.567030
      9          6           0       -3.019703   -1.354018    2.687513
     10          6           0       -3.642914   -0.042626    2.254079
     11          6           0       -3.654217   -1.777606    4.044913
     12          6           0       -1.965450   -2.632295    0.698788
     13          6           0       -0.985210   -3.598355    1.500788
     14          6           0        0.204700   -4.018683    0.666160
     15          8           0        0.406281   -3.558748   -0.487946
     16          8           0        1.112174   -4.765683    1.238915
     17          7           0       -4.955982    2.635729    1.412894
     18          6           0       -4.097679    2.395765    2.437055
     19          6           0       -3.668637    3.568466    3.169880
     20          6           0       -4.428699    4.588862    2.546417
     21          6           0       -5.274353    3.975671    1.484600
     22          6           0       -2.780716    3.767074    4.257923
     23          6           0       -4.585739    6.011049    2.898679
     24          8           0       -3.887360    6.462575    3.751497
     25          7           0       -6.916552    2.586632   -0.710635
     26          6           0       -6.958537    3.921106   -0.403314
     27          6           0       -7.946794    4.628774   -1.140977
     28          6           0       -8.472462    3.728497   -2.015372
     29          6           0       -7.696157    2.440807   -1.707054
     30          6           0       -8.298564    6.051533   -1.148922
     31          6           0       -9.414555    3.893745   -3.122025
     32          6           0       -8.740831    4.048676   -4.475976
     33          7           0       -6.410063   -0.188976   -1.173617
     34          6           0       -7.418312   -0.077031   -2.096579
     35          6           0       -7.534445   -1.365239   -2.724724
     36          6           0       -6.702909   -2.170177   -2.041181
     37          6           0       -5.931459   -1.361856   -1.169727
     38          6           0       -8.591608   -1.537501   -3.750538
     39          6           0       -6.183914   -3.516845   -2.033803
     40          8           0       -6.553333   -4.462827   -2.658086
     41          6           0       -4.998105   -3.528908   -0.923870
     42          6           0       -5.385506   -4.603489    0.100622
     43          8           0       -5.823677   -4.368213    1.198891
     44          8           0       -5.008380   -5.828060   -0.430164
     45          6           0       -5.300493   -6.966186    0.498590
     46          6           0        2.339380   -5.065083    0.568883
     47          6           0        3.470324   -4.240055    0.957474
     48          6           0        4.105427   -3.253121    0.165024
     49          6           0        3.735284   -3.189125   -1.280178
     50          6           0        5.158576   -2.386135    0.684398
     51          6           0        6.586993   -2.713422    0.061630
     52          6           0        7.626811   -1.786464    0.470013
     53          6           0        9.064750   -2.023188   -0.067781
     54          6           0        9.629033   -3.478908    0.293468
     55          6           0       10.066843   -0.905741    0.348877
     56          6           0       11.348211   -0.836888   -0.399542
     57          6           0       12.208080    0.354762    0.142646
     58          6           0       13.562226    0.546739   -0.580220
     59          6           0       14.447139   -0.628862   -0.380170
     60          6           0       14.204164    1.738649   -0.155121
     61          6           0       15.438435    2.209056   -1.191930
     62          6           0       15.978135    3.545864   -0.724765
     63          6           0       17.386806    3.956489   -1.218395
     64          6           0       17.410979    3.917524   -2.777673
     65          6           0       17.681282    5.317624   -0.619951
     66          1           0       -2.656157    1.135419    3.669010
     67          1           0       -6.436109    5.565942    0.658589
     68          1           0       -8.820297    1.243034   -3.086203
     69          1           0       -3.768781   -3.316607    1.770374
     70          1           0       -2.044079   -1.097124    2.892605
     71          1           0       -3.143745   -2.756550    4.412236
     72          1           0       -3.548088   -1.189342    4.892519
     73          1           0       -4.623307   -2.041187    3.860156
     74          1           0       -2.179287   -3.065445   -0.331768
     75          1           0       -1.386591   -1.789932    0.489228
     76          1           0       -0.565327   -3.134867    2.510291
     77          1           0       -1.568942   -4.532618    1.967061
     78          1           0       -1.604733    3.928802    3.915581
     79          1           0       -2.801179    4.803437    4.771254
     80          1           0       -3.019551    2.992132    5.069268
     81          1           0       -5.280751    6.664552    2.389814
     82          1           0       -9.928385    2.858372   -3.030752
     83          1           0      -10.082510    4.678983   -2.955776
     84          1           0       -9.397804    4.050599   -5.411813
     85          1           0       -8.239248    4.849904   -4.421991
     86          1           0       -8.005708    3.442170   -4.738000
     87          1           0       -8.342766   -0.962801   -4.709609
     88          1           0       -8.391045   -2.521638   -4.342444
     89          1           0       -9.732819   -1.459000   -3.578588
     90          1           0       -4.271434   -3.689915   -1.466179
     91          1           0        2.531546   -6.006810    0.975224
     92          1           0        2.142994   -5.253086   -0.486149
     93          1           0        3.718194   -4.344884    2.133083
     94          1           0        2.732760   -3.551568   -1.598104
     95          1           0        4.035038   -2.157145   -1.671770
     96          1           0        4.206150   -3.980746   -1.924277
     97          1           0        4.841071   -1.260916    0.376356
     98          1           0        5.512875   -2.701044    1.614520
     99          1           0        6.885522   -3.812145   -0.053271
    100          1           0        6.566234   -2.521186   -1.069056
    101          1           0        7.282246   -0.830088    0.317163
    102          1           0        7.506529   -1.820317    1.630699
    103          1           0        9.163779   -1.854832   -1.187004
    104          1           0        8.975842   -4.378666    0.172415
    105          1           0       10.634392   -3.605694   -0.244160
    106          1           0       10.133715   -3.437246    1.325215
    107          1           0        9.263822   -0.207926    0.184723
    108          1           0       10.048081   -0.821394    1.386456
    109          1           0       11.910979   -1.765859   -0.347120
    110          1           0       11.306065   -0.570075   -1.390025
    111          1           0       11.496082    1.040980   -0.083646
    112          1           0       12.480157    0.124244    1.244745
    113          1           0       13.191348    0.624964   -1.594034
    114          1           0       14.886637   -0.765819    0.721813
    115          1           0       13.788326   -1.636889   -0.838659
    116          1           0       15.383141   -0.651039   -1.147436
    117          1           0       13.382105    2.454967   -0.079282
    118          1           0       14.653509    1.672868    0.797632
    119          1           0       16.317466    1.481448   -0.968195
    120          1           0       15.346777    2.046142   -2.236887
    121          1           0       15.398478    4.518954   -1.150392
    122          1           0       16.170236    3.543274    0.335175
    123          1           0       18.266765    3.249315   -0.779401
    124          1           0       16.470947    4.619394   -2.942345
    125          1           0       18.427611    4.392329   -2.958434
    126          1           0       17.204587    2.948663   -3.142752
    127          1           0       17.417151    5.161486    0.498981
    128          1           0       18.929713    5.637442   -0.605701
    129          1           0       16.867009    6.089788   -1.133406
    130          1           0       -5.177391   -8.029823   -0.111703
    131          1           0       -6.433699   -7.033424    0.745169
    132          1           0       -4.828592   -6.924378    1.379863
    133          8           0       -7.872786    6.883710   -0.421786
    134          1           0       -8.830227    6.230479   -1.967033
 ---------------------------------------------------------------------

 SCF Done:  E(RCAM-B3LYP) =  -3043.38932786     A.U. after   15 cycles

 Excitation energies and oscillator strengths:

 Excited State   1:      Singlet-A      1.9994 eV  620.11 nm  f=0.2067  <S**2>=0.000
     243 -> 246       -0.25172
     244 -> 245        0.65080
 This state for optimization and/or second-order correction.
 Total Energy, E(TD-HF/TD-KS) =  -3043.31585195
 Copying the excited state density for this state as the 1-particle RhoCI density.

 The electronic state is 1-A.
 Alpha  occ. eigenvalues --  -46.81883 -19.23017 -19.22149 -19.18154 -19.17949
 Alpha  occ. eigenvalues --  -19.17171 -19.16121 -19.15355 -14.37992 -14.37227
 Alpha  occ. eigenvalues --  -14.37127 -14.35656 -10.35531 -10.34523 -10.30835
 Alpha  occ. eigenvalues --  -10.29771 -10.29134 -10.28432 -10.26941 -10.26887
 Alpha  occ. eigenvalues --  -10.26513 -10.26455 -10.26393 -10.26279 -10.25871
 Alpha  occ. eigenvalues --  -10.25603 -10.25570 -10.24857 -10.24649 -10.24290
 Alpha  occ. eigenvalues --  -10.24287 -10.24066 -10.23919 -10.23735 -10.23704
 Alpha  occ. eigenvalues --  -10.23627 -10.23622 -10.23556 -10.23310 -10.23297
 Alpha  occ. eigenvalues --  -10.23216 -10.23146 -10.23122 -10.23112 -10.22973
 Alpha  occ. eigenvalues --  -10.22854 -10.22854 -10.22613 -10.22511 -10.22121
 Alpha  occ. eigenvalues --  -10.21971 -10.21877 -10.21849 -10.21487 -10.21411
 Alpha  occ. eigenvalues --  -10.21397 -10.21150 -10.21037 -10.21016 -10.20967
 Alpha  occ. eigenvalues --  -10.20570 -10.20418 -10.20375 -10.20233 -10.19993
 Alpha  occ. eigenvalues --  -10.19850  -3.10370  -1.85323  -1.84827  -1.84784
 Alpha  occ. eigenvalues --   -1.13915  -1.12245  -1.09489  -1.08276  -1.07734
 Alpha  occ. eigenvalues --   -1.05051  -1.02434  -1.01859  -1.01705  -0.99415
 Alpha  occ. eigenvalues --   -0.97963  -0.87900  -0.86940  -0.86577  -0.86322
 Alpha  occ. eigenvalues --   -0.84810  -0.84645  -0.84326  -0.83786  -0.83637
 Alpha  occ. eigenvalues --   -0.83494  -0.82729  -0.81913  -0.80608  -0.80099
 Alpha  occ. eigenvalues --   -0.79655  -0.78425  -0.77104  -0.76566  -0.76274
 Alpha  occ. eigenvalues --   -0.74962  -0.74330  -0.73684  -0.72790  -0.72075
 Alpha  occ. eigenvalues --   -0.71661  -0.70602  -0.70398  -0.70210  -0.69633
 Alpha  occ. eigenvalues --   -0.69382  -0.68992  -0.68401  -0.67431  -0.66277
 Alpha  occ. eigenvalues --   -0.65431  -0.64739  -0.64290  -0.62592  -0.62314
 Alpha  occ. eigenvalues --   -0.61575  -0.61382  -0.61301  -0.59703  -0.59456
 Alpha  occ. eigenvalues --   -0.58771  -0.58431  -0.58127  -0.57048  -0.56107
 Alpha  occ. eigenvalues --   -0.55903  -0.55596  -0.55338  -0.55331  -0.55021
 Alpha  occ. eigenvalues --   -0.54778  -0.53662  -0.53312  -0.52812  -0.52098
 Alpha  occ. eigenvalues --   -0.51937  -0.51906  -0.51229  -0.50988  -0.50538
 Alpha  occ. eigenvalues --   -0.50392  -0.49980  -0.49896  -0.49416  -0.49174
 Alpha  occ. eigenvalues --   -0.49022  -0.48507  -0.48349  -0.48290  -0.48080
 Alpha  occ. eigenvalues --   -0.47999  -0.47760  -0.47411  -0.47372  -0.47282
 Alpha  occ. eigenvalues --   -0.46862  -0.46512  -0.46431  -0.46262  -0.46025
 Alpha  occ. eigenvalues --   -0.45476  -0.45276  -0.45211  -0.44746  -0.44704
 Alpha  occ. eigenvalues --   -0.44323  -0.44287  -0.44115  -0.43909  -0.43752
 Alpha  occ. eigenvalues --   -0.43533  -0.43285  -0.43149  -0.42952  -0.42866
 Alpha  occ. eigenvalues --   -0.42785  -0.42417  -0.42378  -0.42233  -0.41757
 Alpha  occ. eigenvalues --   -0.41629  -0.41549  -0.41487  -0.41247  -0.41033
 Alpha  occ. eigenvalues --   -0.40762  -0.40515  -0.40236  -0.40020  -0.39819
 Alpha  occ. eigenvalues --   -0.39721  -0.39473  -0.39401  -0.39335  -0.39118
 Alpha  occ. eigenvalues --   -0.38606  -0.38575  -0.38377  -0.38252  -0.38068
 Alpha  occ. eigenvalues --   -0.37930  -0.37744  -0.37518  -0.37403  -0.37018
 Alpha  occ. eigenvalues --   -0.36620  -0.36526  -0.36413  -0.36262  -0.35852
 Alpha  occ. eigenvalues --   -0.35237  -0.34916  -0.34533  -0.34525  -0.34108
 Alpha  occ. eigenvalues --   -0.33753  -0.33713  -0.33379  -0.33302  -0.33202
 Alpha  occ. eigenvalues --   -0.32685  -0.32217  -0.31995  -0.31634  -0.31566
 Alpha  occ. eigenvalues --   -0.31020  -0.30799  -0.29961  -0.29684  -0.29159
 Alpha  occ. eigenvalues --   -0.28982  -0.28682  -0.28477  -0.27548  -0.27284
 Alpha  occ. eigenvalues --   -0.26819  -0.25933  -0.22333  -0.21142
 Alpha virt. eigenvalues --   -0.08308  -0.05768  -0.00614  -0.00308   0.01262
 Alpha virt. eigenvalues --    0.01651   0.03550   0.03650   0.03841   0.04130
 Alpha virt. eigenvalues --    0.05705   0.06296   0.08728   0.08825   0.09082

 Mulliken charges:
               1
     1  Mg   0.836762
     2  C    0.079877
     3  C   -0.180353
     4  C   -0.143275
     5  C   -0.183345
     6  N   -0.642333
     7  C    0.300147
     8  C   -0.145256
     9  C   -0.148785
    10  C    0.318362
    11  C   -0.313559
    12  C   -0.170566
    13  C   -0.273898
    14  C    0.599090
    15  O   -0.504209
    16  O   -0.437397
    17  N   -0.729545
    18  C    0.306537
    19  C    0.119529
    20  C   -0.068841
    21  C    0.292639
    22  C   -0.419157
    23  C    0.243972
    24  O   -0.406027
    25  N   -0.649864
    26  C    0.251425
    27  C   -0.009007
    28  C   -0.022235
    29  C    0.308198
    30  C    0.290583
    31  C   -0.246546
    32  C   -0.304190
    33  N   -0.712792
    34  C    0.285177
    35  C    0.034429
    36  C    0.042185
    37  C    0.306140
    38  C   -0.411321
    39  C    0.318945
    40  O   -0.429890
    41  C   -0.283882
    42  C    0.636381
    43  O   -0.459850
    44  O   -0.457379
    45  C   -0.097185
    46  C    0.028669
    47  C   -0.159788
    48  C    0.170611
    49  C   -0.381246
    50  C   -0.234540
    51  C   -0.202636
    52  C   -0.157838
    53  C   -0.061019
    54  C   -0.321536
    55  C   -0.178909
    56  C   -0.193385
    57  C   -0.176751
    58  C   -0.040928
    59  C   -0.282731
    60  C   -0.152339
    61  C   -0.201626
    62  C   -0.130136
    63  C   -0.078860
    64  C   -0.277898
    65  C   -0.264659
    66  H    0.099874
    67  H    0.103268
    68  H    0.088890
    69  H    0.126114
    70  H    0.108245
    71  H    0.085030
    72  H    0.117639
    73  H    0.137319
    74  H    0.123681
    75  H    0.133207
    76  H    0.125272
    77  H    0.113714
    78  H    0.109324
    79  H    0.166373
    80  H    0.110738
    81  H    0.086878
    82  H    0.102270
    83  H    0.116553
    84  H    0.099770
    85  H    0.122195
    86  H    0.122987
    87  H    0.118340
    88  H    0.123767
    89  H    0.134634
    90  H    0.142785
    91  H    0.114747
    92  H    0.119704
    93  H    0.068645
    94  H    0.152342
    95  H    0.097309
    96  H    0.117531
    97  H    0.100721
    98  H    0.123178
    99  H    0.099714
   100  H    0.078232
   101  H    0.102163
   102  H    0.063151
   103  H    0.082180
   104  H    0.103102
   105  H    0.092448
   106  H    0.093620
   107  H    0.088754
   108  H    0.098920
   109  H    0.100591
   110  H    0.099590
   111  H    0.104352
   112  H    0.074915
   113  H    0.083523
   114  H    0.094202
   115  H    0.059410
   116  H    0.087766
   117  H    0.088462
   118  H    0.095914
   119  H    0.084122
   120  H    0.100539
   121  H    0.062117
   122  H    0.092473
   123  H    0.055074
   124  H    0.075892
   125  H    0.101915
   126  H    0.112732
   127  H    0.095725
   128  H    0.070629
   129  H    0.078943
   130  H    0.113871
   131  H    0.125820
   132  H    0.146344
   133  O   -0.406793
   134  H    0.064399
 Sum of Mulliken charges =   0.00000

 Dipole moment (field-independent basis, Debye):
    X=              1.5562    Y=             -3.4005    Z=             -0.9830  Tot=              3.8667
 Quadrupole moment (field-independent basis, Debye-Ang):
   XX=           -377.0197   YY=           -432.8605   ZZ=           -391.7438
   XY=             -5.4700   XZ=             23.5804   YZ=            -34.5188

 Normal termination of Gaussian 09 at Fri Oct  4 08:56:46 2019.
