 Gaussian 09, Revision D.01,
 Gaussian 09:  ES64L-G09RevD.01 24-Apr-2013

 ----------------------------------------------------------------------
 # td=(NStates=1) iop(3/107=0140000000,3/108=0140000000) iop(3/107=0140
 000000,3/108=0140000000) CAM-B3LYP/6-31G(d,p)
 ----------------------------------------------------------------------

 --
 TD
 --
 Symbolic Z-matrix:
 Charge =  0 Multiplicity = 1

                         Standard orientation:
 ---------------------------------------------------------------------
 Center     Atomic      Atomic             Coordinates (Angstroms)
 Number     Number       Type             X           Y           Z
 ---------------------------------------------------------------------
      1         12           0       -5.593265    1.276112    0.129763
      2          6           0       -5.039097   -2.168170   -0.327814
      3          6           0       -3.481118    1.114979    2.861733
      4          6           0       -6.192721    4.555481    0.647435
      5          6           0       -7.884406    1.202280   -2.353668
      6          7           0       -4.308707   -0.283770    1.057085
      7          6           0       -4.266991   -1.630809    0.676161
      8          6           0       -3.236429   -2.447040    1.478297
      9          6           0       -3.034174   -1.445634    2.803432
     10          6           0       -3.570996   -0.073854    2.218254
     11          6           0       -3.705623   -1.827997    4.063386
     12          6           0       -1.936150   -2.765324    0.701708
     13          6           0       -0.866745   -3.547973    1.499714
     14          6           0        0.369181   -3.771408    0.634589
     15          8           0        0.518199   -3.310013   -0.476462
     16          8           0        1.111205   -4.786235    1.253077
     17          7           0       -4.818414    2.583679    1.428886
     18          6           0       -4.015636    2.387344    2.512274
     19          6           0       -3.815750    3.557595    3.305253
     20          6           0       -4.605216    4.510848    2.669956
     21          6           0       -5.273196    3.968700    1.615825
     22          6           0       -2.956527    3.672197    4.433044
     23          6           0       -4.642627    5.951812    2.947709
     24          8           0       -4.038287    6.483890    3.926242
     25          7           0       -6.814001    2.661973   -0.707681
     26          6           0       -6.782663    4.001353   -0.419985
     27          6           0       -7.833041    4.707518   -1.144243
     28          6           0       -8.416623    3.696593   -2.057255
     29          6           0       -7.707914    2.420846   -1.729084
     30          6           0       -8.177810    6.109378   -1.292826
     31          6           0       -9.533954    3.887965   -3.148972
     32          6           0       -8.917876    4.070997   -4.576665
     33          7           0       -6.315935   -0.080548   -1.260159
     34          6           0       -7.245320   -0.034570   -2.183098
     35          6           0       -7.439399   -1.349311   -2.783151
     36          6           0       -6.638026   -2.177784   -2.043599
     37          6           0       -5.940825   -1.426927   -1.071582
     38          6           0       -8.401570   -1.533672   -3.898405
     39          6           0       -6.190942   -3.593186   -1.994641
     40          8           0       -6.543162   -4.513157   -2.675921
     41          6           0       -5.128576   -3.528901   -0.914703
     42          6           0       -5.328992   -4.643559    0.156895
     43          8           0       -5.709515   -4.482308    1.271103
     44          8           0       -4.887731   -5.894431   -0.384709
     45          6           0       -5.326131   -7.015070    0.434721
     46          6           0        2.318030   -5.076433    0.588146
     47          6           0        3.502786   -4.214893    0.922034
     48          6           0        4.068421   -3.279502    0.087582
     49          6           0        3.686310   -3.175411   -1.405332
     50          6           0        5.092867   -2.494292    0.572229
     51          6           0        6.430038   -2.830847   -0.026840
     52          6           0        7.528556   -1.893498    0.432101
     53          6           0        8.999552   -1.993271   -0.176590
     54          6           0        9.592824   -3.357249    0.242094
     55          6           0        9.868409   -0.868873    0.316146
     56          6           0       11.325743   -0.917117   -0.227876
     57          6           0       12.170076    0.272245    0.127172
     58          6           0       13.642086    0.444962   -0.629390
     59          6           0       14.522360   -0.733603   -0.486145
     60          6           0       14.270491    1.715399   -0.086044
     61          6           0       15.483137    2.247525   -0.964980
     62          6           0       15.990763    3.636720   -0.490984
     63          6           0       17.288117    3.927502   -1.343906
     64          6           0       17.044137    4.107848   -2.765817
     65          6           0       17.771402    5.429010   -0.708569
     66          1           0       -2.790452    1.230207    3.752229
     67          1           0       -6.337322    5.625035    0.896816
     68          1           0       -8.432446    1.258298   -3.277598
     69          1           0       -3.758704   -3.331912    1.671104
     70          1           0       -1.935887   -1.536499    3.016264
     71          1           0       -3.460711   -2.750036    4.503259
     72          1           0       -3.585278   -0.969931    4.890516
     73          1           0       -4.906735   -1.894893    3.856010
     74          1           0       -2.249644   -3.255875   -0.255234
     75          1           0       -1.634165   -1.567524    0.348826
     76          1           0       -0.660969   -3.074227    2.445871
     77          1           0       -1.154144   -4.489123    1.845289
     78          1           0       -2.048475    3.404325    4.168895
     79          1           0       -3.021352    4.727304    4.757381
     80          1           0       -3.272433    2.984164    5.311197
     81          1           0       -5.347326    6.707287    2.464398
     82          1           0      -10.289379    3.224783   -3.178472
     83          1           0      -10.255647    4.924407   -2.820836
     84          1           0       -9.783757    4.092935   -5.408432
     85          1           0       -8.168544    4.850902   -4.606592
     86          1           0       -8.277865    3.046673   -4.847870
     87          1           0       -8.027970   -0.964422   -4.786402
     88          1           0       -8.364955   -2.619790   -4.203415
     89          1           0       -9.357457   -1.324399   -3.600077
     90          1           0       -4.152146   -3.656778   -1.491935
     91          1           0        2.483965   -5.992755    1.223920
     92          1           0        2.285589   -5.259021   -0.400596
     93          1           0        4.121962   -4.373207    1.934716
     94          1           0        2.504941   -3.282137   -1.281772
     95          1           0        3.937213   -2.086130   -1.844899
     96          1           0        4.228528   -3.955423   -1.875761
     97          1           0        4.859185   -1.500830    0.176328
     98          1           0        5.209504   -2.150870    1.525113
     99          1           0        6.566611   -3.893022    0.170646
    100          1           0        6.478073   -2.836988   -1.152559
    101          1           0        7.095959   -1.053243    0.403080
    102          1           0        7.529875   -2.034172    1.429319
    103          1           0        8.959740   -1.948742   -1.316777
    104          1           0        9.002609   -4.391058    0.162962
    105          1           0       10.583662   -3.513007   -0.230785
    106          1           0        9.720303   -3.391041    1.319005
    107          1           0        9.448181    0.109713    0.012085
    108          1           0        9.923975   -1.036002    1.430278
    109          1           0       11.815451   -1.980428   -0.101847
    110          1           0       11.138919   -0.941971   -1.327498
    111          1           0       11.571971    1.187579    0.019478
    112          1           0       12.374037    0.174317    1.290035
    113          1           0       13.399406    0.661367   -1.758513
    114          1           0       14.901362   -0.545318    0.632962
    115          1           0       13.961680   -1.625878   -0.553343
    116          1           0       15.327218   -0.515598   -1.321569
    117          1           0       13.539929    2.450821   -0.004532
    118          1           0       14.346368    1.524182    0.881756
    119          1           0       16.333626    1.590815   -0.868887
    120          1           0       15.308707    2.442192   -1.981098
    121          1           0       15.220735    4.383317   -0.733299
    122          1           0       16.247097    3.887597    0.783740
    123          1           0       18.100884    3.281467   -0.936660
    124          1           0       16.123708    4.579517   -3.040562
    125          1           0       17.816109    4.645702   -3.225083
    126          1           0       17.036661    2.961567   -3.195787
    127          1           0       18.093810    5.211160    0.255794
    128          1           0       18.637023    5.595941   -1.373495
    129          1           0       17.039139    6.241916   -0.707819
    130          1           0       -5.363778   -7.873488   -0.240491
    131          1           0       -6.425998   -7.000744    0.476055
    132          1           0       -4.767434   -7.158864    1.433641
    133          8           0       -7.741616    7.028276   -0.520818
    134          1           0       -8.790223    6.393495   -2.036987
 ---------------------------------------------------------------------

 SCF Done:  E(RCAM-B3LYP) =  -3043.45067924     A.U. after   16 cycles

 Excitation energies and oscillator strengths:

 Excited State   1:      Singlet-A      1.9912 eV  622.67 nm  f=0.1753  <S**2>=0.000
     243 -> 245       -0.12950
     243 -> 246       -0.26731
     244 -> 245        0.62740
 This state for optimization and/or second-order correction.
 Total Energy, E(TD-HF/TD-KS) =  -3043.37750497
 Copying the excited state density for this state as the 1-particle RhoCI density.

 The electronic state is 1-A.
 Alpha  occ. eigenvalues --  -46.81475 -19.22693 -19.22653 -19.19834 -19.19097
 Alpha  occ. eigenvalues --  -19.18260 -19.16512 -19.16483 -14.39325 -14.37236
 Alpha  occ. eigenvalues --  -14.36488 -14.36398 -10.36701 -10.35965 -10.32133
 Alpha  occ. eigenvalues --  -10.30473 -10.29622 -10.27936 -10.27805 -10.27624
 Alpha  occ. eigenvalues --  -10.27312 -10.26785 -10.26467 -10.26387 -10.26385
 Alpha  occ. eigenvalues --  -10.26218 -10.25971 -10.25943 -10.25870 -10.25753
 Alpha  occ. eigenvalues --  -10.25426 -10.25232 -10.25035 -10.25027 -10.24418
 Alpha  occ. eigenvalues --  -10.24289 -10.23982 -10.23980 -10.23887 -10.23824
 Alpha  occ. eigenvalues --  -10.23536 -10.23287 -10.22975 -10.22740 -10.22696
 Alpha  occ. eigenvalues --  -10.22630 -10.22350 -10.22344 -10.22286 -10.22167
 Alpha  occ. eigenvalues --  -10.21895 -10.21775 -10.21720 -10.21479 -10.21443
 Alpha  occ. eigenvalues --  -10.21353 -10.21045 -10.20986 -10.20869 -10.20601
 Alpha  occ. eigenvalues --  -10.20579 -10.20357 -10.19552 -10.19432 -10.18728
 Alpha  occ. eigenvalues --  -10.18421  -3.09999  -1.84942  -1.84489  -1.84385
 Alpha  occ. eigenvalues --   -1.13453  -1.13259  -1.09061  -1.06438  -1.05826
 Alpha  occ. eigenvalues --   -1.03793  -1.03289  -1.00977  -0.99162  -0.98479
 Alpha  occ. eigenvalues --   -0.97447  -0.90781  -0.87504  -0.85182  -0.85114
 Alpha  occ. eigenvalues --   -0.84968  -0.84288  -0.84150  -0.83857  -0.83318
 Alpha  occ. eigenvalues --   -0.83005  -0.82846  -0.81816  -0.80850  -0.80034
 Alpha  occ. eigenvalues --   -0.79421  -0.77942  -0.77709  -0.76988  -0.76599
 Alpha  occ. eigenvalues --   -0.75923  -0.75411  -0.74327  -0.73313  -0.71976
 Alpha  occ. eigenvalues --   -0.71554  -0.70956  -0.70508  -0.69819  -0.69624
 Alpha  occ. eigenvalues --   -0.69508  -0.68532  -0.67386  -0.66385  -0.66052
 Alpha  occ. eigenvalues --   -0.65713  -0.64633  -0.64260  -0.63197  -0.62410
 Alpha  occ. eigenvalues --   -0.61386  -0.61260  -0.61247  -0.59987  -0.59520
 Alpha  occ. eigenvalues --   -0.58587  -0.58571  -0.58403  -0.57102  -0.57047
 Alpha  occ. eigenvalues --   -0.56454  -0.55628  -0.55544  -0.55430  -0.55195
 Alpha  occ. eigenvalues --   -0.54920  -0.53746  -0.53053  -0.52604  -0.52451
 Alpha  occ. eigenvalues --   -0.52056  -0.51684  -0.51195  -0.51035  -0.50512
 Alpha  occ. eigenvalues --   -0.50058  -0.49879  -0.49580  -0.49419  -0.49209
 Alpha  occ. eigenvalues --   -0.49005  -0.48986  -0.48327  -0.48292  -0.48176
 Alpha  occ. eigenvalues --   -0.47894  -0.47539  -0.47201  -0.47112  -0.47047
 Alpha  occ. eigenvalues --   -0.46759  -0.46346  -0.46272  -0.45981  -0.45719
 Alpha  occ. eigenvalues --   -0.45488  -0.45346  -0.45165  -0.44852  -0.44770
 Alpha  occ. eigenvalues --   -0.44652  -0.44233  -0.44089  -0.43668  -0.43544
 Alpha  occ. eigenvalues --   -0.43468  -0.43412  -0.43132  -0.43094  -0.42957
 Alpha  occ. eigenvalues --   -0.42811  -0.42568  -0.42369  -0.42277  -0.42035
 Alpha  occ. eigenvalues --   -0.41894  -0.41636  -0.41496  -0.41210  -0.40961
 Alpha  occ. eigenvalues --   -0.40822  -0.40801  -0.40558  -0.40273  -0.40151
 Alpha  occ. eigenvalues --   -0.39925  -0.39849  -0.39665  -0.39428  -0.39388
 Alpha  occ. eigenvalues --   -0.38971  -0.38892  -0.38759  -0.38294  -0.38235
 Alpha  occ. eigenvalues --   -0.37965  -0.37762  -0.37608  -0.37345  -0.37023
 Alpha  occ. eigenvalues --   -0.36516  -0.36453  -0.36253  -0.35979  -0.35719
 Alpha  occ. eigenvalues --   -0.35501  -0.35111  -0.35042  -0.34744  -0.34330
 Alpha  occ. eigenvalues --   -0.34039  -0.33923  -0.33745  -0.33668  -0.33492
 Alpha  occ. eigenvalues --   -0.33275  -0.32792  -0.32661  -0.32368  -0.32061
 Alpha  occ. eigenvalues --   -0.31361  -0.31182  -0.31160  -0.30909  -0.28855
 Alpha  occ. eigenvalues --   -0.28744  -0.28421  -0.28104  -0.27666  -0.27291
 Alpha  occ. eigenvalues --   -0.26975  -0.25934  -0.22991  -0.22002
 Alpha virt. eigenvalues --   -0.09193  -0.06968  -0.01964  -0.01530   0.00235
 Alpha virt. eigenvalues --    0.01997   0.02312   0.03544   0.03754   0.04111
 Alpha virt. eigenvalues --    0.04451   0.05049   0.07521   0.07877   0.09284

 Mulliken charges:
               1
     1  Mg   0.822000
     2  C    0.105681
     3  C   -0.189412
     4  C   -0.154786
     5  C   -0.194097
     6  N   -0.630994
     7  C    0.295166
     8  C   -0.157239
     9  C   -0.131309
    10  C    0.340116
    11  C   -0.292325
    12  C   -0.152769
    13  C   -0.275029
    14  C    0.617044
    15  O   -0.441006
    16  O   -0.468652
    17  N   -0.712933
    18  C    0.312739
    19  C    0.078016
    20  C   -0.003200
    21  C    0.244678
    22  C   -0.405049
    23  C    0.213541
    24  O   -0.436592
    25  N   -0.702008
    26  C    0.312770
    27  C   -0.027767
    28  C   -0.000309
    29  C    0.334386
    30  C    0.244949
    31  C   -0.217172
    32  C   -0.299188
    33  N   -0.722057
    34  C    0.318420
    35  C    0.010163
    36  C   -0.007677
    37  C    0.276821
    38  C   -0.384578
    39  C    0.389013
    40  O   -0.432824
    41  C   -0.344861
    42  C    0.618370
    43  O   -0.423444
    44  O   -0.472819
    45  C   -0.091735
    46  C    0.011134
    47  C   -0.148241
    48  C    0.115266
    49  C   -0.371928
    50  C   -0.227820
    51  C   -0.187405
    52  C   -0.156252
    53  C   -0.061861
    54  C   -0.313006
    55  C   -0.157534
    56  C   -0.184806
    57  C   -0.178000
    58  C   -0.068847
    59  C   -0.273494
    60  C   -0.154549
    61  C   -0.188599
    62  C   -0.149820
    63  C   -0.063878
    64  C   -0.292345
    65  C   -0.333451
    66  H    0.080399
    67  H    0.131006
    68  H    0.080221
    69  H    0.117573
    70  H    0.094914
    71  H    0.123079
    72  H    0.096486
    73  H    0.097720
    74  H    0.112529
    75  H    0.086888
    76  H    0.141149
    77  H    0.151766
    78  H    0.138375
    79  H    0.163402
    80  H    0.112017
    81  H    0.102952
    82  H    0.133468
    83  H    0.068591
    84  H    0.105003
    85  H    0.133234
    86  H    0.084937
    87  H    0.128489
    88  H    0.138543
    89  H    0.143946
    90  H    0.178194
    91  H    0.101846
    92  H    0.129952
    93  H    0.068442
    94  H    0.151421
    95  H    0.089777
    96  H    0.134732
    97  H    0.097191
    98  H    0.103306
    99  H    0.091516
   100  H    0.085472
   101  H    0.087976
   102  H    0.092670
   103  H    0.074798
   104  H    0.085272
   105  H    0.101588
   106  H    0.104239
   107  H    0.092849
   108  H    0.085500
   109  H    0.080592
   110  H    0.084779
   111  H    0.091015
   112  H    0.064281
   113  H    0.058676
   114  H    0.079381
   115  H    0.111534
   116  H    0.097029
   117  H    0.087160
   118  H    0.095135
   119  H    0.099124
   120  H    0.108783
   121  H    0.090698
   122  H    0.036639
   123  H    0.096623
   124  H    0.116319
   125  H    0.111845
   126  H    0.073331
   127  H    0.108177
   128  H    0.087462
   129  H    0.103548
   130  H    0.128331
   131  H    0.126721
   132  H    0.126243
   133  O   -0.450976
   134  H    0.087515
 Sum of Mulliken charges =   0.00000

 Dipole moment (field-independent basis, Debye):
    X=              0.7259    Y=             -5.3794    Z=             -1.9071  Tot=              5.7534
 Quadrupole moment (field-independent basis, Debye-Ang):
   XX=           -371.1627   YY=           -442.8449   ZZ=           -393.1580
   XY=             21.8003   XZ=             22.0647   YZ=            -38.6571

 Normal termination of Gaussian 09 at Wed Oct  9 05:14:02 2019.
