 Gaussian 09, Revision D.01,
 Gaussian 09:  ES64L-G09RevD.01 24-Apr-2013

 ----------------------------------------------------------------------
 # td=(NStates=1) iop(3/107=0140000000,3/108=0140000000) iop(3/107=0140
 000000,3/108=0140000000) CAM-B3LYP/6-31G(d,p)
 ----------------------------------------------------------------------

 --
 TD
 --
 Symbolic Z-matrix:
 Charge =  0 Multiplicity = 1

                         Standard orientation:
 ---------------------------------------------------------------------
 Center     Atomic      Atomic             Coordinates (Angstroms)
 Number     Number       Type             X           Y           Z
 ---------------------------------------------------------------------
      1         12           0       -5.607935    1.292876    0.130033
      2          6           0       -4.979331   -2.143799   -0.458253
      3          6           0       -3.401097    1.096571    2.809943
      4          6           0       -6.289620    4.519689    0.754785
      5          6           0       -8.007814    1.140271   -2.347874
      6          7           0       -4.318354   -0.231835    0.923083
      7          6           0       -4.259693   -1.594782    0.676577
      8          6           0       -3.272537   -2.355551    1.527569
      9          6           0       -3.016615   -1.350893    2.651339
     10          6           0       -3.552810   -0.039994    2.129684
     11          6           0       -3.441528   -1.812007    3.978980
     12          6           0       -2.010811   -2.679431    0.732271
     13          6           0       -1.036368   -3.626875    1.463905
     14          6           0        0.283949   -3.888657    0.618129
     15          8           0        0.479078   -3.384177   -0.424478
     16          8           0        1.091699   -4.680248    1.317250
     17          7           0       -4.914227    2.551515    1.541755
     18          6           0       -3.952838    2.355976    2.539006
     19          6           0       -3.782597    3.604363    3.253940
     20          6           0       -4.536612    4.557296    2.554123
     21          6           0       -5.241089    3.903817    1.482738
     22          6           0       -2.812210    3.857996    4.334473
     23          6           0       -4.746640    5.974991    2.976230
     24          8           0       -4.092561    6.599782    3.949911
     25          7           0       -6.801756    2.629298   -0.712123
     26          6           0       -7.070327    3.976392   -0.340818
     27          6           0       -7.989169    4.580905   -1.205804
     28          6           0       -8.393140    3.613685   -2.076030
     29          6           0       -7.671727    2.395519   -1.797958
     30          6           0       -8.353358    6.007187   -1.097829
     31          6           0       -9.411573    3.868774   -3.166889
     32          6           0       -8.923463    4.004041   -4.606238
     33          7           0       -6.276225   -0.172645   -1.305896
     34          6           0       -7.256830   -0.001608   -2.079275
     35          6           0       -7.521642   -1.336692   -2.806963
     36          6           0       -6.600918   -2.238449   -2.202194
     37          6           0       -5.825128   -1.434763   -1.285049
     38          6           0       -8.569460   -1.658363   -3.822884
     39          6           0       -6.163840   -3.527387   -2.143867
     40          8           0       -6.523248   -4.622597   -2.670420
     41          6           0       -4.946325   -3.586071   -1.015180
     42          6           0       -5.404295   -4.533503    0.063406
     43          8           0       -5.863377   -4.290765    1.182379
     44          8           0       -5.266385   -5.843847   -0.260310
     45          6           0       -5.456662   -6.828688    0.730897
     46          6           0        2.315994   -5.015850    0.560040
     47          6           0        3.518381   -4.135789    0.970314
     48          6           0        4.089622   -3.325867    0.098999
     49          6           0        3.739099   -3.112218   -1.328030
     50          6           0        5.176190   -2.415658    0.687169
     51          6           0        6.574301   -2.650439    0.091352
     52          6           0        7.696298   -1.773238    0.651444
     53          6           0        9.062210   -1.986432   -0.025925
     54          6           0        9.642753   -3.467788    0.173596
     55          6           0       10.037665   -0.872239    0.523440
     56          6           0       11.423155   -0.897297   -0.113966
     57          6           0       12.268429    0.273586    0.296644
     58          6           0       13.559496    0.466730   -0.554068
     59          6           0       14.634354   -0.669562   -0.248675
     60          6           0       14.271986    1.769248   -0.246019
     61          6           0       15.537552    2.116974   -1.006803
     62          6           0       15.955960    3.557643   -0.652852
     63          6           0       17.343601    3.877171   -1.389400
     64          6           0       17.080577    4.010281   -3.023759
     65          6           0       17.817276    5.273323   -0.877070
     66          1           0       -2.525012    1.000597    3.318355
     67          1           0       -6.557439    5.567958    0.838431
     68          1           0       -8.869602    0.969202   -3.047222
     69          1           0       -3.773895   -3.166617    1.756126
     70          1           0       -1.929517   -1.363881    2.541519
     71          1           0       -2.831275   -2.597616    4.173219
     72          1           0       -3.152522   -1.044113    4.725460
     73          1           0       -4.581221   -1.863816    3.911542
     74          1           0       -2.255795   -3.087470   -0.192577
     75          1           0       -1.471117   -1.894413    0.413983
     76          1           0       -0.716853   -3.170801    2.351831
     77          1           0       -1.569497   -4.642162    1.603537
     78          1           0       -1.888110    3.263671    4.148373
     79          1           0       -2.927300    4.895121    4.465186
     80          1           0       -2.924064    3.276682    5.225645
     81          1           0       -5.242244    6.498648    2.359800
     82          1           0      -10.248835    3.150469   -3.165368
     83          1           0       -9.914166    4.740321   -2.995603
     84          1           0       -9.729517    3.952462   -5.433026
     85          1           0       -8.280941    4.745673   -4.774471
     86          1           0       -8.352844    3.084635   -5.147199
     87          1           0       -8.492275   -0.645535   -4.515487
     88          1           0       -8.287710   -2.538509   -4.212270
     89          1           0       -9.577653   -1.794810   -3.344408
     90          1           0       -4.112620   -4.050914   -1.421899
     91          1           0        2.408694   -6.206602    0.850394
     92          1           0        1.988696   -5.010348   -0.451920
     93          1           0        3.812137   -4.317742    2.090093
     94          1           0        2.765920   -3.287741   -1.479108
     95          1           0        3.628541   -2.098025   -1.403198
     96          1           0        4.426621   -3.782259   -1.944475
     97          1           0        4.986361   -1.248837    0.694107
     98          1           0        5.374545   -2.663952    1.783939
     99          1           0        7.002583   -3.617060    0.007398
    100          1           0        6.509178   -2.632291   -1.117681
    101          1           0        7.304184   -0.630122    0.522686
    102          1           0        7.762155   -1.885087    1.698840
    103          1           0        8.935339   -1.936464   -1.147990
    104          1           0        9.053949   -4.096702   -0.385981
    105          1           0       10.457678   -3.365702   -0.147663
    106          1           0        9.736168   -3.605009    1.201810
    107          1           0        9.395542   -0.020733    0.207998
    108          1           0       10.121935   -0.988354    1.624729
    109          1           0       11.941841   -1.742083   -0.014172
    110          1           0       11.300636   -0.852338   -1.224257
    111          1           0       11.461230    1.140779   -0.046121
    112          1           0       12.606944    0.161278    1.304475
    113          1           0       13.370293    0.463264   -1.606773
    114          1           0       14.565572   -0.784628    0.755421
    115          1           0       14.222188   -1.528288   -0.823341
    116          1           0       15.610234   -0.445642   -0.820555
    117          1           0       13.563735    2.561556   -0.152006
    118          1           0       14.601230    1.820889    0.837047
    119          1           0       16.247837    1.400860   -0.763853
    120          1           0       15.434282    2.106290   -2.124687
    121          1           0       15.226192    4.222647   -1.152860
    122          1           0       16.140073    3.800498    0.490511
    123          1           0       18.119303    3.150414   -1.344323
    124          1           0       16.286064    4.754312   -3.352800
    125          1           0       17.951057    4.222644   -3.476603
    126          1           0       16.857850    3.030923   -3.363861
    127          1           0       18.208113    5.214442    0.156901
    128          1           0       18.794833    5.716204   -1.369819
    129          1           0       17.126229    6.094980   -1.002524
    130          1           0       -5.259636   -7.811471    0.334913
    131          1           0       -6.523705   -6.678721    0.992793
    132          1           0       -4.970722   -6.683433    1.726852
    133          8           0       -7.893777    6.758185   -0.276579
    134          1           0       -9.106853    6.478123   -1.845910
 ---------------------------------------------------------------------

 SCF Done:  E(RCAM-B3LYP) =  -3043.44167435     A.U. after   16 cycles

 Excitation energies and oscillator strengths:

 Excited State   1:      Singlet-A      1.8954 eV  654.13 nm  f=0.1887  <S**2>=0.000
     243 -> 246        0.25378
     244 -> 245        0.65487
 This state for optimization and/or second-order correction.
 Total Energy, E(TD-HF/TD-KS) =  -3043.37201964
 Copying the excited state density for this state as the 1-particle RhoCI density.

 The electronic state is 1-A.
 Alpha  occ. eigenvalues --  -46.81679 -19.22756 -19.21513 -19.18453 -19.17979
 Alpha  occ. eigenvalues --  -19.16870 -19.16503 -19.16483 -14.39446 -14.37466
 Alpha  occ. eigenvalues --  -14.37071 -14.36769 -10.35098 -10.34800 -10.31948
 Alpha  occ. eigenvalues --  -10.31539 -10.29181 -10.28572 -10.28547 -10.26991
 Alpha  occ. eigenvalues --  -10.26890 -10.26848 -10.26753 -10.26739 -10.26710
 Alpha  occ. eigenvalues --  -10.26657 -10.26638 -10.26432 -10.25111 -10.24747
 Alpha  occ. eigenvalues --  -10.24676 -10.24581 -10.24433 -10.24116 -10.24028
 Alpha  occ. eigenvalues --  -10.23919 -10.23515 -10.23374 -10.23333 -10.23222
 Alpha  occ. eigenvalues --  -10.23163 -10.22933 -10.22932 -10.22859 -10.22555
 Alpha  occ. eigenvalues --  -10.22460 -10.22293 -10.22081 -10.21781 -10.21777
 Alpha  occ. eigenvalues --  -10.21713 -10.21565 -10.21559 -10.21489 -10.21381
 Alpha  occ. eigenvalues --  -10.21207 -10.20851 -10.20437 -10.20357 -10.20241
 Alpha  occ. eigenvalues --  -10.20095 -10.20049 -10.19669 -10.19436 -10.19273
 Alpha  occ. eigenvalues --  -10.17203  -3.10249  -1.85188  -1.84715  -1.84662
 Alpha  occ. eigenvalues --   -1.14921  -1.13073  -1.09020  -1.06894  -1.04276
 Alpha  occ. eigenvalues --   -1.03170  -1.02716  -1.00525  -0.98981  -0.98564
 Alpha  occ. eigenvalues --   -0.97767  -0.89371  -0.86939  -0.86369  -0.85656
 Alpha  occ. eigenvalues --   -0.85411  -0.85050  -0.84066  -0.84015  -0.83679
 Alpha  occ. eigenvalues --   -0.82800  -0.82153  -0.81948  -0.80294  -0.79996
 Alpha  occ. eigenvalues --   -0.79644  -0.78515  -0.78124  -0.77438  -0.76783
 Alpha  occ. eigenvalues --   -0.75901  -0.75667  -0.75030  -0.73272  -0.73114
 Alpha  occ. eigenvalues --   -0.72431  -0.71384  -0.70667  -0.70088  -0.69674
 Alpha  occ. eigenvalues --   -0.69272  -0.68952  -0.68136  -0.67674  -0.67031
 Alpha  occ. eigenvalues --   -0.66664  -0.65977  -0.64813  -0.63106  -0.62412
 Alpha  occ. eigenvalues --   -0.62193  -0.61215  -0.60585  -0.59288  -0.59162
 Alpha  occ. eigenvalues --   -0.58862  -0.58774  -0.58669  -0.58242  -0.57878
 Alpha  occ. eigenvalues --   -0.56820  -0.56438  -0.56012  -0.55683  -0.55019
 Alpha  occ. eigenvalues --   -0.54084  -0.53812  -0.53148  -0.52988  -0.52633
 Alpha  occ. eigenvalues --   -0.52140  -0.51582  -0.51510  -0.51087  -0.50681
 Alpha  occ. eigenvalues --   -0.50339  -0.49820  -0.49522  -0.49318  -0.49122
 Alpha  occ. eigenvalues --   -0.48907  -0.48774  -0.48612  -0.48550  -0.48186
 Alpha  occ. eigenvalues --   -0.48133  -0.48011  -0.47719  -0.47381  -0.47329
 Alpha  occ. eigenvalues --   -0.47143  -0.46754  -0.46699  -0.46422  -0.46060
 Alpha  occ. eigenvalues --   -0.45979  -0.45811  -0.45642  -0.45218  -0.45097
 Alpha  occ. eigenvalues --   -0.44850  -0.44656  -0.44528  -0.44234  -0.44099
 Alpha  occ. eigenvalues --   -0.43966  -0.43598  -0.43498  -0.43165  -0.43007
 Alpha  occ. eigenvalues --   -0.42902  -0.42865  -0.42235  -0.42179  -0.41982
 Alpha  occ. eigenvalues --   -0.41950  -0.41849  -0.41712  -0.41360  -0.41226
 Alpha  occ. eigenvalues --   -0.40798  -0.40666  -0.40344  -0.40325  -0.40160
 Alpha  occ. eigenvalues --   -0.40042  -0.39833  -0.39638  -0.39236  -0.39186
 Alpha  occ. eigenvalues --   -0.39031  -0.38871  -0.38747  -0.38599  -0.38016
 Alpha  occ. eigenvalues --   -0.37890  -0.37772  -0.37509  -0.37462  -0.37264
 Alpha  occ. eigenvalues --   -0.36908  -0.36517  -0.36464  -0.36271  -0.36113
 Alpha  occ. eigenvalues --   -0.35857  -0.35612  -0.35076  -0.35060  -0.34861
 Alpha  occ. eigenvalues --   -0.34268  -0.34062  -0.33567  -0.33178  -0.32746
 Alpha  occ. eigenvalues --   -0.32460  -0.32057  -0.31890  -0.31872  -0.31727
 Alpha  occ. eigenvalues --   -0.31475  -0.31133  -0.30396  -0.30169  -0.30044
 Alpha  occ. eigenvalues --   -0.29169  -0.29060  -0.28528  -0.28297  -0.27608
 Alpha  occ. eigenvalues --   -0.27232  -0.27000  -0.23347  -0.21437
 Alpha virt. eigenvalues --   -0.08919  -0.07226  -0.02847  -0.01888  -0.00246
 Alpha virt. eigenvalues --    0.02743   0.03260   0.03550   0.03756   0.04360
 Alpha virt. eigenvalues --    0.05159   0.05331   0.07652   0.08527   0.09011

 Mulliken charges:
               1
     1  Mg   0.835094
     2  C    0.080319
     3  C   -0.173857
     4  C   -0.170575
     5  C   -0.150055
     6  N   -0.609059
     7  C    0.296958
     8  C   -0.104402
     9  C   -0.169558
    10  C    0.313520
    11  C   -0.277179
    12  C   -0.183587
    13  C   -0.274637
    14  C    0.589373
    15  O   -0.443005
    16  O   -0.451637
    17  N   -0.711579
    18  C    0.292355
    19  C    0.052178
    20  C   -0.071159
    21  C    0.328678
    22  C   -0.384155
    23  C    0.270522
    24  O   -0.465765
    25  N   -0.708273
    26  C    0.247248
    27  C    0.020307
    28  C    0.000565
    29  C    0.284662
    30  C    0.251785
    31  C   -0.242754
    32  C   -0.313134
    33  N   -0.708562
    34  C    0.343332
    35  C   -0.031187
    36  C    0.136000
    37  C    0.241959
    38  C   -0.352612
    39  C    0.281955
    40  O   -0.484594
    41  C   -0.329989
    42  C    0.620183
    43  O   -0.491035
    44  O   -0.440430
    45  C   -0.084575
    46  C   -0.020240
    47  C   -0.121977
    48  C    0.127230
    49  C   -0.351961
    50  C   -0.224849
    51  C   -0.175716
    52  C   -0.148984
    53  C   -0.100950
    54  C   -0.287222
    55  C   -0.164493
    56  C   -0.182399
    57  C   -0.158971
    58  C   -0.075066
    59  C   -0.313100
    60  C   -0.160597
    61  C   -0.177067
    62  C   -0.158888
    63  C   -0.059591
    64  C   -0.331848
    65  C   -0.312982
    66  H    0.086880
    67  H    0.136068
    68  H    0.100635
    69  H    0.116880
    70  H    0.103267
    71  H    0.120925
    72  H    0.103722
    73  H    0.123050
    74  H    0.113680
    75  H    0.124097
    76  H    0.133304
    77  H    0.121680
    78  H    0.112965
    79  H    0.167742
    80  H    0.125273
    81  H    0.096836
    82  H    0.111666
    83  H    0.120915
    84  H    0.102589
    85  H    0.130985
    86  H    0.078066
    87  H    0.107446
    88  H    0.158647
    89  H    0.142610
    90  H    0.156120
    91  H    0.089297
    92  H    0.135435
    93  H    0.094163
    94  H    0.142131
    95  H    0.127081
    96  H    0.125247
    97  H    0.093252
    98  H    0.092306
    99  H    0.102444
   100  H    0.054953
   101  H    0.055691
   102  H    0.097552
   103  H    0.076602
   104  H    0.103286
   105  H    0.105368
   106  H    0.099020
   107  H    0.097094
   108  H    0.086643
   109  H    0.104056
   110  H    0.082361
   111  H    0.069649
   112  H    0.091593
   113  H    0.080666
   114  H    0.111769
   115  H    0.092661
   116  H    0.100555
   117  H    0.083555
   118  H    0.067576
   119  H    0.102624
   120  H    0.087016
   121  H    0.101671
   122  H    0.079197
   123  H    0.092762
   124  H    0.093740
   125  H    0.111907
   126  H    0.101151
   127  H    0.095891
   128  H    0.071519
   129  H    0.109429
   130  H    0.126943
   131  H    0.127643
   132  H    0.115712
   133  O   -0.400616
   134  H    0.065391
 Sum of Mulliken charges =   0.00000

 Dipole moment (field-independent basis, Debye):
    X=              1.9793    Y=             -4.8791    Z=             -2.6047  Tot=              5.8744
 Quadrupole moment (field-independent basis, Debye-Ang):
   XX=           -365.5305   YY=           -444.9158   ZZ=           -398.0210
   XY=             -9.9785   XZ=             28.1135   YZ=            -41.9535

 Normal termination of Gaussian 09 at Thu Oct  3 20:21:15 2019.
