 Gaussian 09, Revision D.01,
 Gaussian 09:  ES64L-G09RevD.01 24-Apr-2013

 ----------------------------------------------------------------------
 # td=(NStates=1) iop(3/107=0140000000,3/108=0140000000) iop(3/107=0140
 000000,3/108=0140000000) CAM-B3LYP/6-31G(d,p)
 ----------------------------------------------------------------------

 --
 TD
 --
 Symbolic Z-matrix:
 Charge =  0 Multiplicity = 1

                         Standard orientation:
 ---------------------------------------------------------------------
 Center     Atomic      Atomic             Coordinates (Angstroms)
 Number     Number       Type             X           Y           Z
 ---------------------------------------------------------------------
      1         12           0       -5.590625    1.259599    0.173661
      2          6           0       -5.031308   -2.183499   -0.361557
      3          6           0       -3.392738    1.344207    2.737583
      4          6           0       -6.054333    4.595069    0.646090
      5          6           0       -7.976772    1.247861   -2.300612
      6          7           0       -4.429879   -0.304247    1.064561
      7          6           0       -4.286913   -1.581784    0.713800
      8          6           0       -3.209234   -2.300868    1.483798
      9          6           0       -2.994021   -1.381666    2.740557
     10          6           0       -3.568874    0.003786    2.114856
     11          6           0       -3.573089   -1.655659    4.020586
     12          6           0       -1.939153   -2.569536    0.662410
     13          6           0       -1.018276   -3.546239    1.424348
     14          6           0        0.295531   -3.908392    0.609127
     15          8           0        0.497208   -3.456850   -0.513664
     16          8           0        1.043906   -4.628244    1.389865
     17          7           0       -4.873754    2.634700    1.479581
     18          6           0       -4.015794    2.456734    2.329807
     19          6           0       -3.693080    3.676259    3.141280
     20          6           0       -4.433044    4.672263    2.543577
     21          6           0       -5.232604    3.972188    1.583650
     22          6           0       -2.607393    3.807667    4.275145
     23          6           0       -4.577981    6.108050    2.931383
     24          8           0       -3.914042    6.561125    3.878159
     25          7           0       -6.868254    2.670449   -0.647170
     26          6           0       -6.843731    3.932493   -0.361064
     27          6           0       -7.817596    4.654387   -1.229057
     28          6           0       -8.369253    3.667195   -2.024758
     29          6           0       -7.811870    2.389143   -1.643441
     30          6           0       -8.138904    6.129223   -1.287859
     31          6           0       -9.435184    3.830167   -2.986329
     32          6           0       -8.911356    4.131955   -4.453412
     33          7           0       -6.294803   -0.115146   -1.153969
     34          6           0       -7.245591    0.041294   -2.087113
     35          6           0       -7.585072   -1.328909   -2.642655
     36          6           0       -6.711726   -2.197505   -2.002614
     37          6           0       -5.963865   -1.449064   -1.090003
     38          6           0       -8.435288   -1.612305   -3.815847
     39          6           0       -6.171134   -3.622447   -2.040017
     40          8           0       -6.529902   -4.605288   -2.645340
     41          6           0       -5.094731   -3.621535   -0.886941
     42          6           0       -5.241814   -4.709749    0.089437
     43          8           0       -5.696047   -4.577423    1.255399
     44          8           0       -5.059369   -5.913136   -0.479142
     45          6           0       -5.513439   -7.021505    0.311280
     46          6           0        2.331549   -5.200483    0.707173
     47          6           0        3.511161   -4.258291    0.957448
     48          6           0        4.060912   -3.418708    0.154252
     49          6           0        3.796057   -3.272842   -1.306922
     50          6           0        5.213145   -2.562055    0.696249
     51          6           0        6.551285   -2.788905    0.050016
     52          6           0        7.579257   -1.828397    0.695109
     53          6           0        8.991488   -2.039945    0.027344
     54          6           0        9.580550   -3.439154    0.224674
     55          6           0        9.940171   -0.929911    0.455822
     56          6           0       11.275329   -1.058861   -0.303248
     57          6           0       12.167320    0.212190    0.077086
     58          6           0       13.573628    0.320217   -0.721012
     59          6           0       14.482980   -0.884185   -0.647053
     60          6           0       14.215898    1.714233   -0.193757
     61          6           0       15.331964    2.245329   -1.099832
     62          6           0       15.857774    3.625960   -0.583056
     63          6           0       17.117059    4.147760   -1.369549
     64          6           0       16.874630    4.490455   -2.903961
     65          6           0       17.773785    5.283164   -0.522695
     66          1           0       -2.628797    1.289820    3.417049
     67          1           0       -6.285479    5.624821    0.786323
     68          1           0       -8.844947    1.276788   -2.986324
     69          1           0       -3.621714   -3.371070    1.703916
     70          1           0       -1.832662   -1.274379    2.765797
     71          1           0       -3.380607   -2.787446    4.711927
     72          1           0       -3.604546   -0.722059    4.606116
     73          1           0       -4.634679   -2.021209    3.757357
     74          1           0       -2.153712   -3.067929   -0.255407
     75          1           0       -1.414766   -1.661013    0.509895
     76          1           0       -0.650904   -3.389157    2.497423
     77          1           0       -1.558487   -4.474061    1.688408
     78          1           0       -1.577069    3.880194    3.811154
     79          1           0       -2.909749    4.566746    4.822934
     80          1           0       -2.486684    2.714440    4.950667
     81          1           0       -5.314583    6.621270    2.374238
     82          1           0      -10.170786    2.973991   -3.137670
     83          1           0       -9.774219    4.715580   -2.864547
     84          1           0       -9.849016    4.745014   -5.200289
     85          1           0       -7.917814    4.997875   -4.330944
     86          1           0       -8.487190    3.108101   -5.075855
     87          1           0       -8.125679   -1.201317   -4.798989
     88          1           0       -8.407673   -2.846802   -3.911330
     89          1           0       -9.293687   -1.294105   -3.501869
     90          1           0       -4.061927   -3.724422   -1.444689
     91          1           0        2.427141   -6.335559    1.097455
     92          1           0        2.012267   -5.347046   -0.371017
     93          1           0        3.999979   -4.080859    1.837086
     94          1           0        2.927588   -3.765524   -1.840947
     95          1           0        3.853405   -2.263258   -1.552239
     96          1           0        4.604538   -3.756849   -1.577284
     97          1           0        5.069647   -1.626661    0.412933
     98          1           0        5.292535   -2.807329    1.789445
     99          1           0        6.905827   -3.951271    0.303953
    100          1           0        6.354704   -2.732879   -0.985914
    101          1           0        7.106906   -0.803349    0.455081
    102          1           0        7.541371   -2.018491    1.792420
    103          1           0        8.846563   -1.975891   -1.160497
    104          1           0        8.974087   -4.277751   -0.232407
    105          1           0       10.600440   -3.539299   -0.140694
    106          1           0        9.587521   -3.532673    1.349261
    107          1           0        9.498937    0.056015    0.034736
    108          1           0       10.122016   -0.855361    1.533771
    109          1           0       11.737785   -1.841099   -0.016399
    110          1           0       11.162008   -0.888557   -1.343818
    111          1           0       11.507788    1.164319    0.034849
    112          1           0       12.342977    0.123225    1.121603
    113          1           0       13.076627    0.365747   -1.534482
    114          1           0       14.896344   -1.082562    0.420765
    115          1           0       13.931270   -1.828413   -0.840418
    116          1           0       15.325364   -0.633591   -1.091052
    117          1           0       13.360110    2.406416   -0.179390
    118          1           0       14.413479    1.536089    0.856082
    119          1           0       16.244614    1.487526   -1.105124
    120          1           0       14.996188    2.034724   -2.029563
    121          1           0       15.042913    4.493024   -0.666601
    122          1           0       16.116326    3.427365    0.561912
    123          1           0       17.876654    3.348626   -1.241851
    124          1           0       16.291292    5.432136   -3.185506
    125          1           0       17.797344    4.530973   -3.517597
    126          1           0       16.334258    3.638096   -3.479342
    127          1           0       17.939970    4.856591    0.495046
    128          1           0       18.811696    5.490014   -1.011646
    129          1           0       17.305932    6.258216   -0.724491
    130          1           0       -5.102489   -7.832492   -0.242363
    131          1           0       -6.724170   -7.143247    0.365112
    132          1           0       -4.926757   -6.890629    1.342640
    133          8           0       -7.716801    6.977819   -0.531740
    134          1           0       -8.898790    6.341253   -1.979166
 ---------------------------------------------------------------------

 SCF Done:  E(RCAM-B3LYP) =  -3043.37314690     A.U. after   15 cycles

 Excitation energies and oscillator strengths:

 Excited State   1:      Singlet-A      2.0789 eV  596.39 nm  f=0.1762  <S**2>=0.000
     243 -> 246       -0.26292
     244 -> 245        0.64966
 This state for optimization and/or second-order correction.
 Total Energy, E(TD-HF/TD-KS) =  -3043.29674874
 Copying the excited state density for this state as the 1-particle RhoCI density.

 The electronic state is 1-A.
 Alpha  occ. eigenvalues --  -46.81739 -19.23089 -19.22802 -19.18071 -19.17970
 Alpha  occ. eigenvalues --  -19.17563 -19.16964 -19.16157 -14.39239 -14.36769
 Alpha  occ. eigenvalues --  -14.36528 -14.36276 -10.35362 -10.34349 -10.32559
 Alpha  occ. eigenvalues --  -10.31038 -10.30482 -10.30433 -10.28765 -10.28705
 Alpha  occ. eigenvalues --  -10.27799 -10.27126 -10.26424 -10.26417 -10.26058
 Alpha  occ. eigenvalues --  -10.26012 -10.25541 -10.25051 -10.24956 -10.24864
 Alpha  occ. eigenvalues --  -10.24825 -10.24406 -10.24063 -10.24003 -10.23943
 Alpha  occ. eigenvalues --  -10.23887 -10.23763 -10.23561 -10.23217 -10.23049
 Alpha  occ. eigenvalues --  -10.23015 -10.22969 -10.22862 -10.22798 -10.22766
 Alpha  occ. eigenvalues --  -10.22632 -10.22616 -10.22542 -10.22213 -10.22136
 Alpha  occ. eigenvalues --  -10.22081 -10.21946 -10.21941 -10.21814 -10.21297
 Alpha  occ. eigenvalues --  -10.21027 -10.21019 -10.20983 -10.20911 -10.20571
 Alpha  occ. eigenvalues --  -10.20431 -10.20256 -10.20249 -10.19892 -10.19610
 Alpha  occ. eigenvalues --  -10.19078  -3.10307  -1.85254  -1.84762  -1.84724
 Alpha  occ. eigenvalues --   -1.13604  -1.12709  -1.07970  -1.07329  -1.06096
 Alpha  occ. eigenvalues --   -1.03851  -1.03577  -1.03080  -1.00512  -0.99943
 Alpha  occ. eigenvalues --   -0.98938  -0.88451  -0.87830  -0.86545  -0.85161
 Alpha  occ. eigenvalues --   -0.85079  -0.84968  -0.83687  -0.83652  -0.83404
 Alpha  occ. eigenvalues --   -0.82773  -0.82069  -0.81343  -0.80815  -0.79531
 Alpha  occ. eigenvalues --   -0.78336  -0.77905  -0.77612  -0.77163  -0.76472
 Alpha  occ. eigenvalues --   -0.75755  -0.74455  -0.74147  -0.73099  -0.72445
 Alpha  occ. eigenvalues --   -0.71367  -0.70677  -0.70331  -0.70064  -0.68931
 Alpha  occ. eigenvalues --   -0.68612  -0.68477  -0.67861  -0.66686  -0.65873
 Alpha  occ. eigenvalues --   -0.65070  -0.64685  -0.64051  -0.61912  -0.61751
 Alpha  occ. eigenvalues --   -0.61135  -0.60956  -0.60204  -0.60109  -0.58762
 Alpha  occ. eigenvalues --   -0.58495  -0.57959  -0.57920  -0.57584  -0.57261
 Alpha  occ. eigenvalues --   -0.56207  -0.55827  -0.55277  -0.55020  -0.54660
 Alpha  occ. eigenvalues --   -0.54154  -0.53257  -0.52924  -0.52633  -0.51975
 Alpha  occ. eigenvalues --   -0.51713  -0.51556  -0.51094  -0.50789  -0.50663
 Alpha  occ. eigenvalues --   -0.50126  -0.49890  -0.49574  -0.49423  -0.48994
 Alpha  occ. eigenvalues --   -0.48852  -0.48622  -0.48434  -0.48282  -0.48071
 Alpha  occ. eigenvalues --   -0.48003  -0.47560  -0.47473  -0.47201  -0.47028
 Alpha  occ. eigenvalues --   -0.46749  -0.46668  -0.46571  -0.46433  -0.46013
 Alpha  occ. eigenvalues --   -0.45994  -0.45725  -0.45483  -0.45271  -0.44980
 Alpha  occ. eigenvalues --   -0.44599  -0.44282  -0.43962  -0.43865  -0.43691
 Alpha  occ. eigenvalues --   -0.43579  -0.43330  -0.43183  -0.42814  -0.42659
 Alpha  occ. eigenvalues --   -0.42455  -0.42015  -0.41805  -0.41655  -0.41546
 Alpha  occ. eigenvalues --   -0.41530  -0.41143  -0.41074  -0.40794  -0.40636
 Alpha  occ. eigenvalues --   -0.40461  -0.40399  -0.40215  -0.39877  -0.39750
 Alpha  occ. eigenvalues --   -0.39720  -0.39368  -0.39263  -0.39002  -0.38956
 Alpha  occ. eigenvalues --   -0.38931  -0.38611  -0.38159  -0.37952  -0.37911
 Alpha  occ. eigenvalues --   -0.37866  -0.37505  -0.37337  -0.37140  -0.36904
 Alpha  occ. eigenvalues --   -0.36799  -0.36346  -0.36225  -0.36111  -0.36035
 Alpha  occ. eigenvalues --   -0.35428  -0.35411  -0.34796  -0.34423  -0.34391
 Alpha  occ. eigenvalues --   -0.34011  -0.33946  -0.33722  -0.33428  -0.33096
 Alpha  occ. eigenvalues --   -0.33030  -0.32920  -0.32490  -0.32101  -0.32087
 Alpha  occ. eigenvalues --   -0.31315  -0.30622  -0.29851  -0.29599  -0.29342
 Alpha  occ. eigenvalues --   -0.28998  -0.28694  -0.28471  -0.28227  -0.27997
 Alpha  occ. eigenvalues --   -0.27948  -0.27809  -0.22843  -0.20634
 Alpha virt. eigenvalues --   -0.07442  -0.06090  -0.02232  -0.01146  -0.00051
 Alpha virt. eigenvalues --    0.02203   0.03315   0.03920   0.04341   0.04596
 Alpha virt. eigenvalues --    0.05259   0.05610   0.06795   0.08604   0.09027

 Mulliken charges:
               1
     1  Mg   0.821986
     2  C    0.066583
     3  C   -0.177721
     4  C   -0.177112
     5  C   -0.156407
     6  N   -0.611460
     7  C    0.337878
     8  C   -0.174408
     9  C   -0.107257
    10  C    0.239598
    11  C   -0.287369
    12  C   -0.154264
    13  C   -0.287733
    14  C    0.609256
    15  O   -0.491301
    16  O   -0.447387
    17  N   -0.686331
    18  C    0.410742
    19  C   -0.008089
    20  C   -0.015836
    21  C    0.259603
    22  C   -0.333331
    23  C    0.269181
    24  O   -0.426330
    25  N   -0.717808
    26  C    0.327862
    27  C   -0.061700
    28  C    0.037858
    29  C    0.302887
    30  C    0.267687
    31  C   -0.227311
    32  C   -0.272773
    33  N   -0.718913
    34  C    0.285123
    35  C   -0.054795
    36  C    0.033330
    37  C    0.280179
    38  C   -0.361405
    39  C    0.391059
    40  O   -0.435585
    41  C   -0.324575
    42  C    0.623331
    43  O   -0.497983
    44  O   -0.427313
    45  C   -0.074798
    46  C   -0.033339
    47  C   -0.098364
    48  C    0.131907
    49  C   -0.363636
    50  C   -0.225764
    51  C   -0.175590
    52  C   -0.164259
    53  C   -0.040271
    54  C   -0.313278
    55  C   -0.171068
    56  C   -0.178111
    57  C   -0.227193
    58  C   -0.056180
    59  C   -0.305888
    60  C   -0.183807
    61  C   -0.163905
    62  C   -0.151558
    63  C   -0.043107
    64  C   -0.329428
    65  C   -0.308740
    66  H    0.079741
    67  H    0.115011
    68  H    0.087874
    69  H    0.109653
    70  H    0.091580
    71  H    0.076696
    72  H    0.119318
    73  H    0.123904
    74  H    0.120310
    75  H    0.121038
    76  H    0.125438
    77  H    0.120388
    78  H    0.136661
    79  H    0.157820
    80  H    0.073073
    81  H    0.107134
    82  H    0.120676
    83  H    0.118661
    84  H    0.069323
    85  H    0.074256
    86  H    0.090458
    87  H    0.132414
    88  H    0.120030
    89  H    0.135347
    90  H    0.159722
    91  H    0.113151
    92  H    0.139437
    93  H    0.061535
    94  H    0.129671
    95  H    0.114836
    96  H    0.139345
    97  H    0.110059
    98  H    0.092496
    99  H    0.060135
   100  H    0.103607
   101  H    0.084604
   102  H    0.094988
   103  H    0.062134
   104  H    0.102658
   105  H    0.109443
   106  H    0.090511
   107  H    0.082040
   108  H    0.092238
   109  H    0.108207
   110  H    0.096859
   111  H    0.072124
   112  H    0.085115
   113  H    0.097761
   114  H    0.078835
   115  H    0.102856
   116  H    0.116267
   117  H    0.090765
   118  H    0.093060
   119  H    0.063498
   120  H    0.108525
   121  H    0.076059
   122  H    0.079703
   123  H    0.088309
   124  H    0.100794
   125  H    0.107747
   126  H    0.094744
   127  H    0.104858
   128  H    0.081433
   129  H    0.107708
   130  H    0.132061
   131  H    0.124161
   132  H    0.122618
   133  O   -0.420133
   134  H    0.071380
 Sum of Mulliken charges =   0.00000

 Dipole moment (field-independent basis, Debye):
    X=              3.4769    Y=             -4.3452    Z=             -1.5666  Tot=              5.7814
 Quadrupole moment (field-independent basis, Debye-Ang):
   XX=           -371.5973   YY=           -429.4634   ZZ=           -400.9446
   XY=             -1.7847   XZ=             15.2200   YZ=            -28.5003

 Normal termination of Gaussian 09 at Tue Oct  8 22:42:41 2019.
