 Gaussian 09, Revision D.01,
 Gaussian 09:  ES64L-G09RevD.01 24-Apr-2013

 ----------------------------------------------------------------------
 # td=(NStates=1) iop(3/107=0140000000,3/108=0140000000) iop(3/107=0140
 000000,3/108=0140000000) CAM-B3LYP/6-31G(d,p)
 ----------------------------------------------------------------------

 --
 TD
 --
 Symbolic Z-matrix:
 Charge =  0 Multiplicity = 1

                         Standard orientation:
 ---------------------------------------------------------------------
 Center     Atomic      Atomic             Coordinates (Angstroms)
 Number     Number       Type             X           Y           Z
 ---------------------------------------------------------------------
      1         12           0       -5.579406    1.263086    0.147080
      2          6           0       -4.937867   -2.119807   -0.512452
      3          6           0       -3.500825    1.153408    2.725161
      4          6           0       -6.279166    4.517645    0.645222
      5          6           0       -8.015470    1.149335   -2.314014
      6          7           0       -4.315778   -0.280233    0.998328
      7          6           0       -4.257934   -1.569974    0.570220
      8          6           0       -3.210996   -2.302970    1.446948
      9          6           0       -2.983643   -1.309275    2.529048
     10          6           0       -3.648278   -0.102989    2.147506
     11          6           0       -3.516711   -1.803917    3.962952
     12          6           0       -1.980381   -2.640263    0.735871
     13          6           0       -0.965271   -3.380858    1.481334
     14          6           0        0.243458   -3.761159    0.646872
     15          8           0        0.597914   -3.396964   -0.475161
     16          8           0        0.988271   -4.650598    1.294264
     17          7           0       -5.038195    2.603131    1.463857
     18          6           0       -4.112232    2.409400    2.482016
     19          6           0       -3.775629    3.634975    3.157771
     20          6           0       -4.560992    4.592150    2.646245
     21          6           0       -5.367486    3.877625    1.482025
     22          6           0       -2.900170    3.680434    4.352620
     23          6           0       -4.724667    5.998918    2.934689
     24          8           0       -4.274726    6.456563    4.004954
     25          7           0       -6.922410    2.572833   -0.675115
     26          6           0       -7.057957    3.859255   -0.371673
     27          6           0       -7.922386    4.539413   -1.257598
     28          6           0       -8.416826    3.613135   -2.127244
     29          6           0       -7.772716    2.379896   -1.785597
     30          6           0       -8.385046    5.964135   -1.122098
     31          6           0       -9.340430    3.760584   -3.248377
     32          6           0       -8.665135    4.047387   -4.595460
     33          7           0       -6.373603   -0.155488   -1.084057
     34          6           0       -7.367357   -0.063995   -2.080313
     35          6           0       -7.540243   -1.318860   -2.802530
     36          6           0       -6.610574   -2.172324   -2.169523
     37          6           0       -5.913360   -1.403293   -1.163133
     38          6           0       -8.463914   -1.620115   -3.883177
     39          6           0       -6.126652   -3.582437   -2.094229
     40          8           0       -6.513506   -4.522573   -2.780090
     41          6           0       -4.934867   -3.521604   -0.946025
     42          6           0       -5.324302   -4.661966    0.122820
     43          8           0       -5.810704   -4.333715    1.189483
     44          8           0       -4.960080   -5.895707   -0.318259
     45          6           0       -5.422463   -6.927458    0.599619
     46          6           0        2.242841   -5.092578    0.796368
     47          6           0        3.384706   -4.116915    1.017941
     48          6           0        4.104873   -3.361090    0.186947
     49          6           0        3.768807   -3.089573   -1.332553
     50          6           0        5.178550   -2.529968    0.771427
     51          6           0        6.519539   -2.667040   -0.050348
     52          6           0        7.624836   -1.729901    0.584581
     53          6           0        9.092404   -1.991901   -0.003941
     54          6           0        9.555001   -3.476191    0.202373
     55          6           0       10.022936   -0.919505    0.494028
     56          6           0       11.303507   -0.778383   -0.240628
     57          6           0       12.115284    0.404020    0.259396
     58          6           0       13.510971    0.651126   -0.434939
     59          6           0       14.406920   -0.575002   -0.215933
     60          6           0       14.170901    1.937799   -0.140867
     61          6           0       15.369560    2.265594   -1.021917
     62          6           0       16.098854    3.527303   -0.682502
     63          6           0       17.503215    3.848877   -1.394819
     64          6           0       17.250191    3.829108   -2.902927
     65          6           0       18.241882    4.979022   -0.854049
     66          1           0       -2.754286    1.077020    3.692179
     67          1           0       -6.782370    5.538192    0.981285
     68          1           0       -8.693645    1.213221   -3.085353
     69          1           0       -3.505682   -3.313556    1.728194
     70          1           0       -1.834466   -1.051381    2.713381
     71          1           0       -3.043446   -2.660782    4.500221
     72          1           0       -3.274734   -0.820203    4.494710
     73          1           0       -4.692761   -2.030572    3.993538
     74          1           0       -2.118439   -3.053472   -0.221563
     75          1           0       -1.418884   -1.721701    0.400370
     76          1           0       -0.582274   -2.837662    2.196904
     77          1           0       -1.389537   -4.408466    1.669850
     78          1           0       -1.908191    3.260317    4.270061
     79          1           0       -2.749243    4.615824    4.953526
     80          1           0       -3.229979    3.019786    5.286559
     81          1           0       -5.270423    6.918093    2.270347
     82          1           0       -9.919037    2.816974   -3.368518
     83          1           0      -10.022529    4.560895   -3.074634
     84          1           0       -9.190102    3.903503   -5.590817
     85          1           0       -7.998751    4.975415   -4.699517
     86          1           0       -7.789509    3.328135   -4.713970
     87          1           0       -8.065825   -1.235448   -4.904352
     88          1           0       -8.708518   -2.874239   -3.880162
     89          1           0       -9.485411   -1.107351   -3.852333
     90          1           0       -3.859609   -3.595983   -1.257625
     91          1           0        2.594838   -6.088306    1.308820
     92          1           0        2.308827   -5.303833   -0.237660
     93          1           0        3.821524   -4.118863    2.044189
     94          1           0        2.880331   -3.591393   -1.680216
     95          1           0        3.860950   -2.041536   -1.546002
     96          1           0        4.762338   -3.426503   -2.044000
     97          1           0        4.783302   -1.595259    0.611092
     98          1           0        5.105412   -2.591530    1.768857
     99          1           0        6.801653   -3.730562   -0.003585
    100          1           0        6.333857   -2.616022   -1.081179
    101          1           0        7.421605   -0.690990    0.184221
    102          1           0        7.631233   -1.828995    1.758507
    103          1           0        8.921171   -1.840761   -1.026279
    104          1           0        8.764096   -4.283905   -0.107503
    105          1           0       10.545994   -3.516683   -0.376045
    106          1           0        9.748335   -3.600481    1.212046
    107          1           0        9.467029    0.033278    0.452483
    108          1           0       10.425050   -1.183816    1.574824
    109          1           0       11.856096   -1.580833   -0.044285
    110          1           0       11.346711   -0.511088   -1.503577
    111          1           0       11.469419    1.240785    0.171127
    112          1           0       12.464576    0.209328    1.374219
    113          1           0       13.168766    0.793305   -1.472171
    114          1           0       14.643906   -0.759863    0.840845
    115          1           0       13.993074   -1.548408   -0.673692
    116          1           0       15.285945   -0.197365   -0.595778
    117          1           0       13.205459    2.558849   -0.527371
    118          1           0       14.377800    2.152095    1.043202
    119          1           0       16.184843    1.339159   -0.905194
    120          1           0       15.075245    2.245643   -2.187260
    121          1           0       15.328097    4.374312   -0.988699
    122          1           0       16.406716    3.520788    0.336571
    123          1           0       18.068767    3.054355   -1.346245
    124          1           0       16.733167    4.800438   -3.328907
    125          1           0       18.274275    3.810752   -3.333296
    126          1           0       16.946700    2.823635   -3.297762
    127          1           0       18.515961    4.879387    0.159195
    128          1           0       19.171103    5.101847   -1.535324
    129          1           0       17.678957    5.953457   -1.044994
    130          1           0       -4.923353   -7.996303    0.216628
    131          1           0       -6.314708   -6.847989    0.643634
    132          1           0       -5.012022   -6.844818    1.627848
    133          8           0       -7.940190    6.866844   -0.332939
    134          1           0       -9.272180    6.223208   -1.686436
 ---------------------------------------------------------------------

 SCF Done:  E(RCAM-B3LYP) =  -3043.45384583     A.U. after   16 cycles

 Excitation energies and oscillator strengths:

 Excited State   1:      Singlet-A      2.0915 eV  592.79 nm  f=0.1594  <S**2>=0.000
     243 -> 245       -0.15106
     243 -> 246        0.28522
     244 -> 245        0.61287
 This state for optimization and/or second-order correction.
 Total Energy, E(TD-HF/TD-KS) =  -3043.37698373
 Copying the excited state density for this state as the 1-particle RhoCI density.

 The electronic state is 1-A.
 Alpha  occ. eigenvalues --  -46.81271 -19.24290 -19.22503 -19.18490 -19.17542
 Alpha  occ. eigenvalues --  -19.17443 -19.16660 -19.16613 -14.38928 -14.37567
 Alpha  occ. eigenvalues --  -14.36527 -14.36502 -10.36537 -10.35107 -10.32160
 Alpha  occ. eigenvalues --  -10.31253 -10.31130 -10.28170 -10.27877 -10.27731
 Alpha  occ. eigenvalues --  -10.27521 -10.27407 -10.26969 -10.26179 -10.25859
 Alpha  occ. eigenvalues --  -10.25738 -10.25371 -10.25320 -10.25262 -10.25149
 Alpha  occ. eigenvalues --  -10.25103 -10.25011 -10.24443 -10.24378 -10.24271
 Alpha  occ. eigenvalues --  -10.24189 -10.23917 -10.23425 -10.23392 -10.23330
 Alpha  occ. eigenvalues --  -10.23321 -10.23218 -10.23200 -10.23144 -10.22935
 Alpha  occ. eigenvalues --  -10.22906 -10.22773 -10.22735 -10.22483 -10.22341
 Alpha  occ. eigenvalues --  -10.22306 -10.21889 -10.21551 -10.21377 -10.21151
 Alpha  occ. eigenvalues --  -10.21151 -10.21018 -10.20953 -10.20941 -10.20905
 Alpha  occ. eigenvalues --  -10.20783 -10.20618 -10.20540 -10.20132 -10.19684
 Alpha  occ. eigenvalues --  -10.19413  -3.10005  -1.84930  -1.84465  -1.84438
 Alpha  occ. eigenvalues --   -1.14217  -1.13940  -1.06426  -1.06062  -1.04931
 Alpha  occ. eigenvalues --   -1.03720  -1.03618  -1.01809  -1.00887  -1.00140
 Alpha  occ. eigenvalues --   -0.99137  -0.88858  -0.88251  -0.86456  -0.86121
 Alpha  occ. eigenvalues --   -0.85753  -0.85152  -0.84703  -0.84119  -0.83941
 Alpha  occ. eigenvalues --   -0.83556  -0.83032  -0.82641  -0.80445  -0.79741
 Alpha  occ. eigenvalues --   -0.79028  -0.78630  -0.77925  -0.77227  -0.76668
 Alpha  occ. eigenvalues --   -0.75254  -0.74680  -0.73931  -0.73349  -0.72320
 Alpha  occ. eigenvalues --   -0.71325  -0.71200  -0.70581  -0.70158  -0.69715
 Alpha  occ. eigenvalues --   -0.69554  -0.69240  -0.67826  -0.67193  -0.66666
 Alpha  occ. eigenvalues --   -0.66150  -0.65329  -0.63963  -0.62840  -0.62565
 Alpha  occ. eigenvalues --   -0.62241  -0.61783  -0.60154  -0.60091  -0.59521
 Alpha  occ. eigenvalues --   -0.58378  -0.58138  -0.58099  -0.57593  -0.56429
 Alpha  occ. eigenvalues --   -0.56332  -0.55848  -0.55725  -0.55207  -0.54821
 Alpha  occ. eigenvalues --   -0.54385  -0.54129  -0.53365  -0.53198  -0.52654
 Alpha  occ. eigenvalues --   -0.52113  -0.51605  -0.51520  -0.51368  -0.51089
 Alpha  occ. eigenvalues --   -0.50329  -0.50160  -0.49984  -0.49376  -0.49129
 Alpha  occ. eigenvalues --   -0.48925  -0.48665  -0.48441  -0.48181  -0.47806
 Alpha  occ. eigenvalues --   -0.47682  -0.47529  -0.47172  -0.46621  -0.46571
 Alpha  occ. eigenvalues --   -0.46344  -0.46302  -0.46202  -0.46008  -0.45734
 Alpha  occ. eigenvalues --   -0.45647  -0.45146  -0.44947  -0.44863  -0.44603
 Alpha  occ. eigenvalues --   -0.44433  -0.44148  -0.43811  -0.43642  -0.43550
 Alpha  occ. eigenvalues --   -0.43450  -0.43367  -0.43119  -0.42762  -0.42726
 Alpha  occ. eigenvalues --   -0.42593  -0.42329  -0.42285  -0.42001  -0.41665
 Alpha  occ. eigenvalues --   -0.41486  -0.41251  -0.41185  -0.40971  -0.40866
 Alpha  occ. eigenvalues --   -0.40841  -0.40603  -0.40456  -0.40291  -0.40256
 Alpha  occ. eigenvalues --   -0.39905  -0.39831  -0.39746  -0.39645  -0.39502
 Alpha  occ. eigenvalues --   -0.39371  -0.39262  -0.38902  -0.38836  -0.38528
 Alpha  occ. eigenvalues --   -0.37914  -0.37894  -0.37614  -0.37379  -0.36968
 Alpha  occ. eigenvalues --   -0.36634  -0.36273  -0.36202  -0.35994  -0.35822
 Alpha  occ. eigenvalues --   -0.35692  -0.35345  -0.35283  -0.34949  -0.34734
 Alpha  occ. eigenvalues --   -0.34682  -0.34311  -0.34112  -0.33960  -0.33271
 Alpha  occ. eigenvalues --   -0.32636  -0.32411  -0.32370  -0.31847  -0.31654
 Alpha  occ. eigenvalues --   -0.31346  -0.31335  -0.30243  -0.30136  -0.30032
 Alpha  occ. eigenvalues --   -0.29143  -0.28807  -0.28022  -0.27895  -0.27406
 Alpha  occ. eigenvalues --   -0.27068  -0.26951  -0.22791  -0.21684
 Alpha virt. eigenvalues --   -0.08322  -0.06677  -0.02108  -0.01131   0.00154
 Alpha virt. eigenvalues --    0.02771   0.02994   0.03841   0.04595   0.04693
 Alpha virt. eigenvalues --    0.04785   0.05518   0.07809   0.08069   0.09284

 Mulliken charges:
               1
     1  Mg   0.835083
     2  C    0.071100
     3  C   -0.209475
     4  C   -0.185014
     5  C   -0.156238
     6  N   -0.650037
     7  C    0.323268
     8  C   -0.117241
     9  C   -0.193955
    10  C    0.412341
    11  C   -0.300762
    12  C   -0.196042
    13  C   -0.225162
    14  C    0.571909
    15  O   -0.484960
    16  O   -0.440786
    17  N   -0.716931
    18  C    0.294025
    19  C    0.120528
    20  C   -0.011683
    21  C    0.323671
    22  C   -0.405948
    23  C    0.187852
    24  O   -0.412453
    25  N   -0.687017
    26  C    0.301797
    27  C   -0.023730
    28  C    0.054488
    29  C    0.271358
    30  C    0.239448
    31  C   -0.245999
    32  C   -0.324168
    33  N   -0.731180
    34  C    0.253309
    35  C    0.085641
    36  C   -0.004211
    37  C    0.331632
    38  C   -0.400316
    39  C    0.363228
    40  O   -0.453848
    41  C   -0.320526
    42  C    0.606489
    43  O   -0.457702
    44  O   -0.436247
    45  C   -0.068484
    46  C    0.011167
    47  C   -0.185390
    48  C    0.160009
    49  C   -0.354878
    50  C   -0.218174
    51  C   -0.190073
    52  C   -0.173717
    53  C   -0.056583
    54  C   -0.316136
    55  C   -0.160363
    56  C   -0.143671
    57  C   -0.163647
    58  C   -0.058645
    59  C   -0.309748
    60  C   -0.145633
    61  C   -0.159465
    62  C   -0.148757
    63  C   -0.039778
    64  C   -0.320151
    65  C   -0.304438
    66  H    0.073957
    67  H    0.139073
    68  H    0.067884
    69  H    0.113680
    70  H    0.102282
    71  H    0.117248
    72  H    0.096454
    73  H    0.117443
    74  H    0.116620
    75  H    0.102825
    76  H    0.142999
    77  H    0.131995
    78  H    0.124762
    79  H    0.159278
    80  H    0.112988
    81  H    0.093444
    82  H    0.114021
    83  H    0.119624
    84  H    0.113543
    85  H    0.111928
    86  H    0.102482
    87  H    0.131158
    88  H    0.128390
    89  H    0.119807
    90  H    0.151701
    91  H    0.108530
    92  H    0.126560
    93  H    0.068723
    94  H    0.143984
    95  H    0.127154
    96  H    0.065194
    97  H    0.115604
    98  H    0.095448
    99  H    0.094160
   100  H    0.101806
   101  H    0.088078
   102  H    0.080627
   103  H    0.093199
   104  H    0.095386
   105  H    0.096707
   106  H    0.112324
   107  H    0.087741
   108  H    0.077950
   109  H    0.106814
   110  H    0.040242
   111  H    0.082715
   112  H    0.060094
   113  H    0.079987
   114  H    0.096587
   115  H    0.096265
   116  H    0.101298
   117  H    0.070919
   118  H    0.069132
   119  H    0.060421
   120  H    0.083697
   121  H    0.072921
   122  H    0.088177
   123  H    0.098388
   124  H    0.089086
   125  H    0.086035
   126  H    0.106923
   127  H    0.111962
   128  H    0.088883
   129  H    0.094587
   130  H    0.111104
   131  H    0.142952
   132  H    0.125956
   133  O   -0.444839
   134  H    0.085947
 Sum of Mulliken charges =   0.00000

 Dipole moment (field-independent basis, Debye):
    X=              2.4433    Y=             -4.8044    Z=             -0.5575  Tot=              5.4188
 Quadrupole moment (field-independent basis, Debye-Ang):
   XX=           -370.6140   YY=           -438.1767   ZZ=           -395.7772
   XY=             15.3638   XZ=             24.7893   YZ=            -41.0531

 Normal termination of Gaussian 09 at Tue Oct  8 12:06:35 2019.
