 Gaussian 09, Revision D.01,
 Gaussian 09:  ES64L-G09RevD.01 24-Apr-2013

 ----------------------------------------------------------------------
 # td=(NStates=1) iop(3/107=0140000000,3/108=0140000000) iop(3/107=0140
 000000,3/108=0140000000) CAM-B3LYP/6-31G(d,p)
 ----------------------------------------------------------------------

 --
 TD
 --
 Symbolic Z-matrix:
 Charge =  0 Multiplicity = 1

                         Standard orientation:
 ---------------------------------------------------------------------
 Center     Atomic      Atomic             Coordinates (Angstroms)
 Number     Number       Type             X           Y           Z
 ---------------------------------------------------------------------
      1         12           0       -5.591633    1.149328    0.259555
      2          6           0       -5.048686   -2.171176   -0.440098
      3          6           0       -3.364325    1.051793    2.835876
      4          6           0       -6.065317    4.548627    0.693406
      5          6           0       -8.099909    1.182762   -2.237882
      6          7           0       -4.418466   -0.411433    0.985636
      7          6           0       -4.304439   -1.651612    0.596948
      8          6           0       -3.254857   -2.449394    1.422945
      9          6           0       -3.017598   -1.437360    2.644162
     10          6           0       -3.537454   -0.128314    2.128969
     11          6           0       -3.592514   -1.805112    4.027892
     12          6           0       -2.020211   -2.711886    0.613804
     13          6           0       -0.986224   -3.682998    1.337977
     14          6           0        0.175624   -3.900473    0.545406
     15          8           0        0.439945   -3.237754   -0.482409
     16          8           0        0.997570   -4.760553    1.192727
     17          7           0       -4.820452    2.596539    1.456529
     18          6           0       -3.942302    2.377816    2.477496
     19          6           0       -3.656157    3.572090    3.161599
     20          6           0       -4.476200    4.535444    2.609971
     21          6           0       -5.256837    3.957022    1.534437
     22          6           0       -2.640509    3.714679    4.254754
     23          6           0       -4.558285    5.971512    2.972695
     24          8           0       -3.837974    6.576474    3.770494
     25          7           0       -6.852416    2.605372   -0.619540
     26          6           0       -6.868492    3.950024   -0.386460
     27          6           0       -7.858279    4.634663   -1.193618
     28          6           0       -8.368139    3.674654   -1.974676
     29          6           0       -7.653538    2.398866   -1.625231
     30          6           0       -8.223915    6.105543   -1.127049
     31          6           0       -9.446920    3.942204   -3.069161
     32          6           0       -8.822143    4.131107   -4.411624
     33          7           0       -6.432907   -0.099555   -1.085487
     34          6           0       -7.472093   -0.015894   -2.048144
     35          6           0       -7.753498   -1.294189   -2.698352
     36          6           0       -6.756129   -2.120470   -2.168862
     37          6           0       -5.964440   -1.320099   -1.178855
     38          6           0       -8.583319   -1.572627   -3.899573
     39          6           0       -6.237114   -3.457816   -2.133966
     40          8           0       -6.627175   -4.423075   -2.801967
     41          6           0       -5.120834   -3.618929   -1.070402
     42          6           0       -5.471761   -4.700588   -0.026552
     43          8           0       -5.884443   -4.438730    1.171009
     44          8           0       -5.129010   -5.806704   -0.401907
     45          6           0       -5.376895   -6.936110    0.477368
     46          6           0        2.381657   -4.970412    0.611362
     47          6           0        3.452863   -3.999338    0.958478
     48          6           0        4.016481   -3.107081    0.145398
     49          6           0        3.686225   -2.853114   -1.250601
     50          6           0        5.205691   -2.228739    0.734288
     51          6           0        6.601901   -2.659332    0.257130
     52          6           0        7.620178   -1.747574    0.783091
     53          6           0        8.901828   -1.981347    0.046575
     54          6           0        9.529233   -3.352359    0.259725
     55          6           0       10.009678   -0.883085    0.502746
     56          6           0       11.318853   -0.853896   -0.232695
     57          6           0       12.234292    0.328725    0.209892
     58          6           0       13.703130    0.396084   -0.445004
     59          6           0       14.451170   -0.838480   -0.357330
     60          6           0       14.395296    1.694540   -0.076491
     61          6           0       15.519115    2.001289   -1.029357
     62          6           0       16.074083    3.358026   -0.676394
     63          6           0       17.374215    3.863620   -1.514664
     64          6           0       17.113387    3.979159   -3.046046
     65          6           0       17.883332    5.160989   -0.930651
     66          1           0       -2.891751    1.022688    3.746844
     67          1           0       -6.353429    5.567358    0.996170
     68          1           0       -8.935182    1.092877   -2.894937
     69          1           0       -3.357534   -3.584882    1.852114
     70          1           0       -1.898632   -1.143056    2.822824
     71          1           0       -3.219697   -2.732068    4.269769
     72          1           0       -3.448061   -1.173867    4.716030
     73          1           0       -4.598419   -1.855002    3.925171
     74          1           0       -2.355855   -3.043541   -0.443516
     75          1           0       -1.559390   -1.786988    0.164522
     76          1           0       -0.686066   -3.079183    2.243824
     77          1           0       -1.595385   -4.624232    1.809178
     78          1           0       -1.424311    3.652343    4.062890
     79          1           0       -2.648706    4.871866    4.568875
     80          1           0       -2.908664    3.249230    5.118159
     81          1           0       -5.260860    6.526282    2.295914
     82          1           0      -10.152482    3.177872   -3.180881
     83          1           0       -9.913917    4.899090   -2.828128
     84          1           0       -9.600534    4.229677   -5.309533
     85          1           0       -7.893828    4.652820   -4.676296
     86          1           0       -8.233932    3.186258   -4.750021
     87          1           0       -8.507267   -1.119386   -4.800393
     88          1           0       -8.433584   -2.722550   -4.022762
     89          1           0       -9.619147   -1.368365   -3.518115
     90          1           0       -4.292815   -3.924773   -1.571846
     91          1           0        2.597247   -5.940214    1.049232
     92          1           0        2.220154   -5.055251   -0.395864
     93          1           0        4.010650   -3.994372    1.929773
     94          1           0        2.574084   -2.833771   -1.446299
     95          1           0        4.282372   -1.996615   -1.729907
     96          1           0        4.365189   -3.822800   -1.827060
     97          1           0        5.039860   -1.037199    0.574974
     98          1           0        4.863715   -2.670108    1.853493
     99          1           0        6.795543   -3.831184    0.515858
    100          1           0        6.425969   -2.743315   -0.873090
    101          1           0        7.350575   -0.729396    0.468869
    102          1           0        7.669115   -2.025156    1.786445
    103          1           0        8.847013   -1.796884   -1.021581
    104          1           0        9.013775   -4.283417   -0.331761
    105          1           0       10.661901   -3.482586   -0.112228
    106          1           0        9.456631   -3.507796    1.320449
    107          1           0        9.498834    0.103504    0.380329
    108          1           0       10.215625   -0.778571    1.569119
    109          1           0       11.950596   -1.835636   -0.083677
    110          1           0       11.113823   -0.773873   -1.254289
    111          1           0       11.736717    1.217504    0.028218
    112          1           0       12.504743    0.351910    1.206707
    113          1           0       13.193659    0.554719   -1.487480
    114          1           0       14.756961   -1.128956    0.548934
    115          1           0       13.978888   -1.628605   -0.794070
    116          1           0       15.326851   -0.874485   -0.809075
    117          1           0       13.610995    2.355352   -0.244703
    118          1           0       14.902934    1.526894    0.855575
    119          1           0       16.205315    1.226991   -0.744823
    120          1           0       15.294080    2.083209   -2.053600
    121          1           0       15.299638    4.036735   -1.037626
    122          1           0       16.298993    3.500050    0.465453
    123          1           0       18.101997    3.043909   -1.366592
    124          1           0       16.429102    4.783146   -3.227698
    125          1           0       17.986135    4.273445   -3.525879
    126          1           0       16.759591    3.076869   -3.535852
    127          1           0       18.019149    5.211670    0.158545
    128          1           0       18.753095    5.315117   -1.455672
    129          1           0       17.008169    5.770120   -1.279585
    130          1           0       -5.038053   -7.780443   -0.111093
    131          1           0       -6.547374   -6.892857    0.756553
    132          1           0       -4.931377   -6.760450    1.560639
    133          8           0       -7.742356    6.892321   -0.279362
    134          1           0       -8.870012    6.269490   -2.066704
 ---------------------------------------------------------------------

 SCF Done:  E(RCAM-B3LYP) =  -3043.43965861     A.U. after   15 cycles

 Excitation energies and oscillator strengths:

 Excited State   1:      Singlet-A      2.0587 eV  602.24 nm  f=0.2074  <S**2>=0.000
     243 -> 245       -0.10633
     243 -> 246       -0.24799
     244 -> 245        0.64189
 This state for optimization and/or second-order correction.
 Total Energy, E(TD-HF/TD-KS) =  -3043.36400216
 Copying the excited state density for this state as the 1-particle RhoCI density.

 The electronic state is 1-A.
 Alpha  occ. eigenvalues --  -46.81404 -19.25221 -19.22180 -19.18806 -19.17178
 Alpha  occ. eigenvalues --  -19.17125 -19.16330 -19.15112 -14.38406 -14.37403
 Alpha  occ. eigenvalues --  -14.36800 -14.36797 -10.34991 -10.34822 -10.32424
 Alpha  occ. eigenvalues --  -10.30721 -10.30316 -10.30306 -10.27592 -10.27446
 Alpha  occ. eigenvalues --  -10.27390 -10.26756 -10.26349 -10.26248 -10.26235
 Alpha  occ. eigenvalues --  -10.26000 -10.25920 -10.25423 -10.25140 -10.25007
 Alpha  occ. eigenvalues --  -10.24460 -10.24258 -10.24099 -10.24089 -10.23897
 Alpha  occ. eigenvalues --  -10.23750 -10.23697 -10.23603 -10.23452 -10.23363
 Alpha  occ. eigenvalues --  -10.23327 -10.23251 -10.23088 -10.22944 -10.22859
 Alpha  occ. eigenvalues --  -10.22814 -10.22741 -10.22500 -10.22423 -10.22267
 Alpha  occ. eigenvalues --  -10.21910 -10.21788 -10.21388 -10.21287 -10.20829
 Alpha  occ. eigenvalues --  -10.20758 -10.20706 -10.20581 -10.20505 -10.19369
 Alpha  occ. eigenvalues --  -10.19343 -10.19229 -10.19070 -10.18995 -10.18895
 Alpha  occ. eigenvalues --  -10.16628  -3.09988  -1.84931  -1.84446  -1.84411
 Alpha  occ. eigenvalues --   -1.18874  -1.11567  -1.05918  -1.05657  -1.05558
 Alpha  occ. eigenvalues --   -1.03179  -1.01398  -1.00459  -0.99933  -0.98941
 Alpha  occ. eigenvalues --   -0.98309  -0.87228  -0.86770  -0.85868  -0.85398
 Alpha  occ. eigenvalues --   -0.85240  -0.84973  -0.84579  -0.84205  -0.83577
 Alpha  occ. eigenvalues --   -0.83015  -0.82578  -0.82005  -0.80930  -0.80300
 Alpha  occ. eigenvalues --   -0.79543  -0.78906  -0.78593  -0.77834  -0.76568
 Alpha  occ. eigenvalues --   -0.75974  -0.74867  -0.74691  -0.73429  -0.72400
 Alpha  occ. eigenvalues --   -0.72255  -0.71498  -0.70954  -0.69719  -0.69435
 Alpha  occ. eigenvalues --   -0.69212  -0.68828  -0.68000  -0.67143  -0.66440
 Alpha  occ. eigenvalues --   -0.65558  -0.64168  -0.63882  -0.61830  -0.61638
 Alpha  occ. eigenvalues --   -0.61046  -0.60659  -0.60133  -0.59808  -0.59361
 Alpha  occ. eigenvalues --   -0.58585  -0.58197  -0.57969  -0.57521  -0.56687
 Alpha  occ. eigenvalues --   -0.56332  -0.55937  -0.55349  -0.54952  -0.54673
 Alpha  occ. eigenvalues --   -0.54421  -0.53731  -0.53028  -0.52932  -0.52572
 Alpha  occ. eigenvalues --   -0.52059  -0.51749  -0.51524  -0.51171  -0.50855
 Alpha  occ. eigenvalues --   -0.50214  -0.49794  -0.49734  -0.49429  -0.49278
 Alpha  occ. eigenvalues --   -0.48985  -0.48857  -0.48512  -0.48316  -0.47844
 Alpha  occ. eigenvalues --   -0.47638  -0.47237  -0.47140  -0.46793  -0.46716
 Alpha  occ. eigenvalues --   -0.46653  -0.46484  -0.46386  -0.46135  -0.46078
 Alpha  occ. eigenvalues --   -0.45834  -0.45439  -0.45294  -0.45231  -0.45004
 Alpha  occ. eigenvalues --   -0.44713  -0.44511  -0.44001  -0.43886  -0.43758
 Alpha  occ. eigenvalues --   -0.43700  -0.43557  -0.43365  -0.42965  -0.42938
 Alpha  occ. eigenvalues --   -0.42784  -0.42662  -0.42202  -0.42047  -0.41593
 Alpha  occ. eigenvalues --   -0.41530  -0.41298  -0.40964  -0.40856  -0.40715
 Alpha  occ. eigenvalues --   -0.40664  -0.40528  -0.40224  -0.40082  -0.40014
 Alpha  occ. eigenvalues --   -0.39731  -0.39622  -0.39260  -0.39182  -0.39044
 Alpha  occ. eigenvalues --   -0.38976  -0.38721  -0.38477  -0.38101  -0.37912
 Alpha  occ. eigenvalues --   -0.37889  -0.37818  -0.37573  -0.37306  -0.37200
 Alpha  occ. eigenvalues --   -0.36751  -0.36520  -0.36176  -0.35657  -0.35361
 Alpha  occ. eigenvalues --   -0.35319  -0.35156  -0.34853  -0.34548  -0.34476
 Alpha  occ. eigenvalues --   -0.34045  -0.33846  -0.33467  -0.33054  -0.32767
 Alpha  occ. eigenvalues --   -0.32330  -0.32279  -0.31614  -0.31562  -0.31511
 Alpha  occ. eigenvalues --   -0.31097  -0.30603  -0.29728  -0.29196  -0.29028
 Alpha  occ. eigenvalues --   -0.28832  -0.28496  -0.28368  -0.27793  -0.27284
 Alpha  occ. eigenvalues --   -0.27218  -0.27186  -0.22963  -0.21441
 Alpha virt. eigenvalues --   -0.08310  -0.06208  -0.01816  -0.01131   0.00686
 Alpha virt. eigenvalues --    0.01769   0.02802   0.03458   0.03746   0.04360
 Alpha virt. eigenvalues --    0.05094   0.05742   0.07830   0.08777   0.08959

 Mulliken charges:
               1
     1  Mg   0.822499
     2  C    0.032850
     3  C   -0.167549
     4  C   -0.183841
     5  C   -0.157138
     6  N   -0.665555
     7  C    0.363416
     8  C   -0.134874
     9  C   -0.163228
    10  C    0.311077
    11  C   -0.288086
    12  C   -0.178752
    13  C   -0.271380
    14  C    0.637510
    15  O   -0.493516
    16  O   -0.486460
    17  N   -0.725943
    18  C    0.310869
    19  C    0.063935
    20  C   -0.031456
    21  C    0.332520
    22  C   -0.415195
    23  C    0.249381
    24  O   -0.420823
    25  N   -0.630512
    26  C    0.223339
    27  C    0.009113
    28  C   -0.029498
    29  C    0.297043
    30  C    0.276794
    31  C   -0.221714
    32  C   -0.319794
    33  N   -0.725416
    34  C    0.245012
    35  C    0.046476
    36  C    0.020371
    37  C    0.331192
    38  C   -0.374784
    39  C    0.329939
    40  O   -0.483837
    41  C   -0.279365
    42  C    0.599197
    43  O   -0.539679
    44  O   -0.346712
    45  C   -0.102111
    46  C    0.006100
    47  C   -0.123897
    48  C    0.142330
    49  C   -0.367975
    50  C   -0.213834
    51  C   -0.165088
    52  C   -0.139756
    53  C   -0.059508
    54  C   -0.296517
    55  C   -0.186956
    56  C   -0.170506
    57  C   -0.192453
    58  C   -0.074223
    59  C   -0.316682
    60  C   -0.152756
    61  C   -0.164132
    62  C   -0.165737
    63  C   -0.079488
    64  C   -0.327889
    65  C   -0.288373
    66  H    0.085454
    67  H    0.135339
    68  H    0.089960
    69  H    0.096138
    70  H    0.093426
    71  H    0.110584
    72  H    0.115209
    73  H    0.133296
    74  H    0.099603
    75  H    0.123339
    76  H    0.155144
    77  H    0.117184
    78  H    0.109000
    79  H    0.147969
    80  H    0.135786
    81  H    0.079168
    82  H    0.120709
    83  H    0.110048
    84  H    0.092601
    85  H    0.124829
    86  H    0.087084
    87  H    0.149287
    88  H    0.148460
    89  H    0.118173
    90  H    0.155666
    91  H    0.119677
    92  H    0.132786
    93  H    0.077068
    94  H    0.163486
    95  H    0.109378
    96  H    0.074608
    97  H    0.088727
    98  H    0.062213
    99  H    0.083764
   100  H    0.086804
   101  H    0.099719
   102  H    0.112345
   103  H    0.087932
   104  H    0.073236
   105  H    0.089528
   106  H    0.105817
   107  H    0.073899
   108  H    0.088130
   109  H    0.080407
   110  H    0.094662
   111  H    0.090044
   112  H    0.090974
   113  H    0.057325
   114  H    0.102654
   115  H    0.107273
   116  H    0.107164
   117  H    0.089816
   118  H    0.090539
   119  H    0.088041
   120  H    0.094210
   121  H    0.081082
   122  H    0.066850
   123  H    0.074418
   124  H    0.100576
   125  H    0.109693
   126  H    0.107568
   127  H    0.101946
   128  H    0.107240
   129  H    0.093978
   130  H    0.140963
   131  H    0.139700
   132  H    0.140714
   133  O   -0.431817
   134  H    0.083431
 Sum of Mulliken charges =   0.00000

 Dipole moment (field-independent basis, Debye):
    X=              2.0741    Y=             -5.7224    Z=             -1.4294  Tot=              6.2523
 Quadrupole moment (field-independent basis, Debye-Ang):
   XX=           -367.2458   YY=           -430.9183   ZZ=           -392.1559
   XY=              4.1621   XZ=             18.5314   YZ=            -34.9518

 Normal termination of Gaussian 09 at Mon Oct  7 15:06:13 2019.
