 Gaussian 09, Revision D.01,
 Gaussian 09:  ES64L-G09RevD.01 24-Apr-2013

 ----------------------------------------------------------------------
 # td=(NStates=1) iop(3/107=0140000000,3/108=0140000000) iop(3/107=0140
 000000,3/108=0140000000) CAM-B3LYP/6-31G(d,p)
 ----------------------------------------------------------------------

 --
 TD
 --
 Symbolic Z-matrix:
 Charge =  0 Multiplicity = 1

                         Standard orientation:
 ---------------------------------------------------------------------
 Center     Atomic      Atomic             Coordinates (Angstroms)
 Number     Number       Type             X           Y           Z
 ---------------------------------------------------------------------
      1         12           0       -5.642935    1.268079    0.145296
      2          6           0       -5.036712   -2.172354   -0.363949
      3          6           0       -3.429260    1.162960    2.681154
      4          6           0       -6.276761    4.553008    0.773426
      5          6           0       -7.900962    1.124958   -2.285175
      6          7           0       -4.280240   -0.260900    0.953012
      7          6           0       -4.187374   -1.601024    0.590820
      8          6           0       -3.151554   -2.352370    1.507903
      9          6           0       -2.936629   -1.332178    2.624024
     10          6           0       -3.545789   -0.111656    2.084861
     11          6           0       -3.609720   -1.741877    3.935675
     12          6           0       -1.958450   -2.762788    0.635692
     13          6           0       -0.934814   -3.567119    1.418190
     14          6           0        0.259597   -3.893024    0.593046
     15          8           0        0.432373   -3.502636   -0.553678
     16          8           0        1.022147   -4.692827    1.249171
     17          7           0       -4.823904    2.689663    1.289707
     18          6           0       -3.965249    2.438546    2.382771
     19          6           0       -3.778022    3.589799    3.206897
     20          6           0       -4.532912    4.560576    2.556445
     21          6           0       -5.299317    3.977325    1.522146
     22          6           0       -2.762147    3.739328    4.186022
     23          6           0       -4.658309    5.985274    3.037364
     24          8           0       -4.009746    6.493655    3.995389
     25          7           0       -6.846685    2.621007   -0.729195
     26          6           0       -6.929423    3.953446   -0.329409
     27          6           0       -7.890240    4.612521   -1.158913
     28          6           0       -8.443952    3.624851   -2.121233
     29          6           0       -7.774905    2.354888   -1.639595
     30          6           0       -8.301973    6.044573   -1.193659
     31          6           0       -9.455587    3.889835   -3.218689
     32          6           0       -8.783835    4.034876   -4.596413
     33          7           0       -6.173623   -0.092362   -1.180184
     34          6           0       -7.300084   -0.098849   -2.062400
     35          6           0       -7.542992   -1.355561   -2.697683
     36          6           0       -6.620132   -2.170526   -2.101252
     37          6           0       -5.930667   -1.400912   -1.131701
     38          6           0       -8.450332   -1.567142   -3.701392
     39          6           0       -6.238290   -3.571148   -2.010483
     40          8           0       -6.580683   -4.521634   -2.669831
     41          6           0       -5.115557   -3.618503   -0.847969
     42          6           0       -5.448940   -4.637562    0.218328
     43          8           0       -5.894470   -4.406318    1.365595
     44          8           0       -5.195353   -5.808297   -0.266672
     45          6           0       -5.538782   -6.996126    0.526248
     46          6           0        2.389988   -4.984001    0.621369
     47          6           0        3.441409   -4.009020    0.960204
     48          6           0        4.040100   -3.167949    0.112220
     49          6           0        3.703270   -3.053865   -1.320253
     50          6           0        5.195677   -2.263968    0.640442
     51          6           0        6.632708   -2.523793    0.029483
     52          6           0        7.601396   -1.707847    0.688276
     53          6           0        8.889076   -1.906246   -0.035825
     54          6           0        9.419135   -3.362989    0.098670
     55          6           0        9.984614   -0.866896    0.409073
     56          6           0       11.307552   -0.770594   -0.347110
     57          6           0       12.182831    0.382036    0.249402
     58          6           0       13.576940    0.420297   -0.529024
     59          6           0       14.456923   -0.739857   -0.300429
     60          6           0       14.314112    1.648629   -0.035760
     61          6           0       15.614898    2.031177   -0.867521
     62          6           0       16.227522    3.358204   -0.551896
     63          6           0       17.411615    3.832859   -1.427807
     64          6           0       17.153385    3.961288   -2.932530
     65          6           0       17.957558    5.096290   -0.888244
     66          1           0       -2.899882    1.157335    3.758363
     67          1           0       -6.602287    5.557570    1.041889
     68          1           0       -8.508134    1.055184   -3.154774
     69          1           0       -3.500440   -3.423813    1.767464
     70          1           0       -1.880855   -1.174359    2.584803
     71          1           0       -3.017231   -2.571502    4.449012
     72          1           0       -3.643549   -0.888552    4.632779
     73          1           0       -4.576547   -2.161863    3.830045
     74          1           0       -2.181597   -3.485076   -0.213118
     75          1           0       -1.556574   -1.897664    0.178388
     76          1           0       -0.549786   -2.903714    2.332739
     77          1           0       -1.431292   -4.521533    1.915912
     78          1           0       -1.691748    3.498189    3.811552
     79          1           0       -2.734142    4.764122    4.447974
     80          1           0       -2.825648    3.055302    5.076489
     81          1           0       -5.179961    6.689142    2.288747
     82          1           0      -10.069481    3.033290   -3.101230
     83          1           0      -10.227620    4.702429   -3.078223
     84          1           0       -9.587315    3.894019   -5.396765
     85          1           0       -8.289645    5.166180   -4.718203
     86          1           0       -8.076516    3.195426   -4.538558
     87          1           0       -8.050446   -1.244956   -4.690557
     88          1           0       -8.655755   -2.666689   -3.849957
     89          1           0       -9.546973   -0.953512   -3.719077
     90          1           0       -4.209634   -4.060197   -1.466956
     91          1           0        2.559079   -6.055963    0.868519
     92          1           0        2.318585   -4.943966   -0.484847
     93          1           0        3.666809   -3.930778    1.883430
     94          1           0        2.517145   -3.167480   -1.308776
     95          1           0        3.875570   -1.966384   -1.729096
     96          1           0        4.140793   -3.822551   -2.010420
     97          1           0        5.041454   -1.255510    0.537457
     98          1           0        5.212619   -2.454573    1.695545
     99          1           0        6.759393   -3.640559    0.243952
    100          1           0        6.459518   -2.620652   -1.015454
    101          1           0        7.192498   -0.704183    0.436422
    102          1           0        7.620347   -1.986494    1.784408
    103          1           0        8.481606   -1.874192   -1.202689
    104          1           0        8.684365   -3.946317   -0.326490
    105          1           0       10.556609   -3.386366   -0.258449
    106          1           0        9.306901   -3.482871    1.219115
    107          1           0        9.463297    0.134268    0.478974
    108          1           0       10.041693   -0.998185    1.548141
    109          1           0       12.000873   -1.721282   -0.392345
    110          1           0       11.060587   -0.499158   -1.351357
    111          1           0       11.609721    1.331532    0.294442
    112          1           0       12.562069    0.245269    1.254014
    113          1           0       13.472232    0.357641   -1.672210
    114          1           0       14.526954   -0.903000    0.822221
    115          1           0       14.018978   -1.721154   -0.650915
    116          1           0       15.464469   -0.541907   -0.736425
    117          1           0       13.665975    2.509456   -0.232241
    118          1           0       14.626325    1.548455    1.067150
    119          1           0       16.406226    1.273841   -0.741904
    120          1           0       15.224645    1.988388   -1.897731
    121          1           0       15.554679    4.279065   -0.603173
    122          1           0       16.667910    3.157790    0.527034
    123          1           0       18.273098    3.120510   -1.321148
    124          1           0       16.209622    4.590088   -3.212916
    125          1           0       18.022880    4.202612   -3.322669
    126          1           0       16.781596    2.899725   -3.378858
    127          1           0       18.122219    5.050656    0.082190
    128          1           0       18.879588    5.224138   -1.437904
    129          1           0       17.212335    5.959160   -1.071159
    130          1           0       -5.273686   -7.845601   -0.025072
    131          1           0       -6.706146   -6.845912    0.886695
    132          1           0       -4.764154   -7.007184    1.329014
    133          8           0       -7.827331    6.806616   -0.433456
    134          1           0       -9.197139    6.348805   -1.895329
 ---------------------------------------------------------------------

 SCF Done:  E(RCAM-B3LYP) =  -3043.57518257     A.U. after   15 cycles

 Excitation energies and oscillator strengths:

 Excited State   1:      Singlet-A      2.0424 eV  607.05 nm  f=0.1380  <S**2>=0.000
     243 -> 246       -0.30383
     244 -> 245        0.62850
 This state for optimization and/or second-order correction.
 Total Energy, E(TD-HF/TD-KS) =  -3043.50012597
 Copying the excited state density for this state as the 1-particle RhoCI density.

 The electronic state is 1-A.
 Alpha  occ. eigenvalues --  -46.80435 -19.23348 -19.22813 -19.17445 -19.17311
 Alpha  occ. eigenvalues --  -19.17010 -19.16368 -19.16141 -14.38676 -14.36512
 Alpha  occ. eigenvalues --  -14.36375 -14.36222 -10.34804 -10.34356 -10.31539
 Alpha  occ. eigenvalues --  -10.31025 -10.30434 -10.29209 -10.28184 -10.27340
 Alpha  occ. eigenvalues --  -10.27331 -10.26455 -10.26366 -10.26191 -10.25588
 Alpha  occ. eigenvalues --  -10.25441 -10.25426 -10.25274 -10.25140 -10.24739
 Alpha  occ. eigenvalues --  -10.24688 -10.24228 -10.24072 -10.23985 -10.23787
 Alpha  occ. eigenvalues --  -10.23735 -10.23727 -10.23510 -10.23449 -10.23435
 Alpha  occ. eigenvalues --  -10.23351 -10.23117 -10.22999 -10.22730 -10.22543
 Alpha  occ. eigenvalues --  -10.22424 -10.22342 -10.22246 -10.22105 -10.21915
 Alpha  occ. eigenvalues --  -10.21739 -10.21574 -10.21458 -10.21252 -10.21240
 Alpha  occ. eigenvalues --  -10.21198 -10.21106 -10.21039 -10.20977 -10.20819
 Alpha  occ. eigenvalues --  -10.20664 -10.20636 -10.20565 -10.20500 -10.20169
 Alpha  occ. eigenvalues --  -10.18793  -3.09242  -1.84155  -1.83709  -1.83678
 Alpha  occ. eigenvalues --   -1.14599  -1.14272  -1.09165  -1.07713  -1.04193
 Alpha  occ. eigenvalues --   -1.04074  -1.02766  -1.00653  -0.99452  -0.99181
 Alpha  occ. eigenvalues --   -0.98088  -0.87875  -0.87343  -0.86266  -0.85969
 Alpha  occ. eigenvalues --   -0.85544  -0.85231  -0.84951  -0.84055  -0.83580
 Alpha  occ. eigenvalues --   -0.83219  -0.83187  -0.81767  -0.80751  -0.79921
 Alpha  occ. eigenvalues --   -0.78939  -0.78218  -0.77837  -0.77085  -0.76664
 Alpha  occ. eigenvalues --   -0.75675  -0.75195  -0.73959  -0.72675  -0.72291
 Alpha  occ. eigenvalues --   -0.71451  -0.71405  -0.70354  -0.70042  -0.69527
 Alpha  occ. eigenvalues --   -0.69137  -0.68951  -0.67330  -0.66165  -0.65540
 Alpha  occ. eigenvalues --   -0.65286  -0.64725  -0.63307  -0.62433  -0.62002
 Alpha  occ. eigenvalues --   -0.61294  -0.60688  -0.60391  -0.58924  -0.58531
 Alpha  occ. eigenvalues --   -0.58081  -0.57682  -0.57378  -0.57176  -0.57073
 Alpha  occ. eigenvalues --   -0.56415  -0.55913  -0.55579  -0.55283  -0.54050
 Alpha  occ. eigenvalues --   -0.53711  -0.52955  -0.52740  -0.52403  -0.52226
 Alpha  occ. eigenvalues --   -0.52091  -0.51591  -0.51226  -0.51167  -0.51132
 Alpha  occ. eigenvalues --   -0.50708  -0.50156  -0.49730  -0.49497  -0.49419
 Alpha  occ. eigenvalues --   -0.48837  -0.48510  -0.48318  -0.47915  -0.47791
 Alpha  occ. eigenvalues --   -0.47721  -0.47314  -0.47214  -0.47011  -0.46829
 Alpha  occ. eigenvalues --   -0.46525  -0.46275  -0.46139  -0.46022  -0.45920
 Alpha  occ. eigenvalues --   -0.45405  -0.45337  -0.45234  -0.44966  -0.44806
 Alpha  occ. eigenvalues --   -0.44610  -0.44560  -0.44268  -0.43817  -0.43621
 Alpha  occ. eigenvalues --   -0.43382  -0.43059  -0.43055  -0.42751  -0.42529
 Alpha  occ. eigenvalues --   -0.42390  -0.42346  -0.42090  -0.42049  -0.41912
 Alpha  occ. eigenvalues --   -0.41625  -0.41500  -0.41378  -0.41243  -0.40930
 Alpha  occ. eigenvalues --   -0.40749  -0.40575  -0.40486  -0.40284  -0.40100
 Alpha  occ. eigenvalues --   -0.39911  -0.39614  -0.39495  -0.39436  -0.39346
 Alpha  occ. eigenvalues --   -0.39071  -0.38846  -0.38700  -0.38594  -0.38191
 Alpha  occ. eigenvalues --   -0.37884  -0.37869  -0.37693  -0.37499  -0.36829
 Alpha  occ. eigenvalues --   -0.36780  -0.36571  -0.36260  -0.36011  -0.35655
 Alpha  occ. eigenvalues --   -0.35417  -0.35264  -0.34827  -0.34629  -0.34482
 Alpha  occ. eigenvalues --   -0.34191  -0.34030  -0.33777  -0.33509  -0.33230
 Alpha  occ. eigenvalues --   -0.33093  -0.33012  -0.32584  -0.32302  -0.32100
 Alpha  occ. eigenvalues --   -0.30891  -0.30280  -0.30144  -0.30099  -0.29589
 Alpha  occ. eigenvalues --   -0.28625  -0.27921  -0.27828  -0.27756  -0.27584
 Alpha  occ. eigenvalues --   -0.27444  -0.26808  -0.22454  -0.21491
 Alpha virt. eigenvalues --   -0.08202  -0.06376  -0.01668  -0.00546   0.00929
 Alpha virt. eigenvalues --    0.02145   0.02955   0.03596   0.04100   0.04774
 Alpha virt. eigenvalues --    0.05391   0.05815   0.07571   0.08138   0.09115

 Mulliken charges:
               1
     1  Mg   0.834874
     2  C    0.074639
     3  C   -0.205144
     4  C   -0.177216
     5  C   -0.187106
     6  N   -0.610394
     7  C    0.287328
     8  C   -0.149866
     9  C   -0.121517
    10  C    0.332185
    11  C   -0.312121
    12  C   -0.172524
    13  C   -0.274451
    14  C    0.626591
    15  O   -0.490551
    16  O   -0.448580
    17  N   -0.719223
    18  C    0.303880
    19  C    0.089543
    20  C   -0.047433
    21  C    0.344968
    22  C   -0.407253
    23  C    0.242252
    24  O   -0.429636
    25  N   -0.701465
    26  C    0.307638
    27  C   -0.070572
    28  C    0.013116
    29  C    0.300010
    30  C    0.246572
    31  C   -0.249705
    32  C   -0.288232
    33  N   -0.717320
    34  C    0.229877
    35  C    0.162957
    36  C    0.000117
    37  C    0.326626
    38  C   -0.446086
    39  C    0.360642
    40  O   -0.446653
    41  C   -0.338608
    42  C    0.623372
    43  O   -0.515383
    44  O   -0.418231
    45  C   -0.083923
    46  C   -0.033444
    47  C   -0.087781
    48  C    0.138494
    49  C   -0.409237
    50  C   -0.239176
    51  C   -0.196413
    52  C   -0.144121
    53  C   -0.058618
    54  C   -0.292838
    55  C   -0.173740
    56  C   -0.172985
    57  C   -0.169429
    58  C   -0.065173
    59  C   -0.299492
    60  C   -0.162347
    61  C   -0.185707
    62  C   -0.147540
    63  C   -0.068996
    64  C   -0.284836
    65  C   -0.282826
    66  H    0.066104
    67  H    0.131012
    68  H    0.075102
    69  H    0.108723
    70  H    0.119509
    71  H    0.103199
    72  H    0.112347
    73  H    0.148991
    74  H    0.114868
    75  H    0.123815
    76  H    0.114993
    77  H    0.119605
    78  H    0.119671
    79  H    0.164656
    80  H    0.117759
    81  H    0.087905
    82  H    0.120799
    83  H    0.110690
    84  H    0.105838
    85  H    0.099438
    86  H    0.118143
    87  H    0.146385
    88  H    0.146974
    89  H    0.105090
    90  H    0.153807
    91  H    0.121737
    92  H    0.133225
    93  H    0.068404
    94  H    0.154379
    95  H    0.101756
    96  H    0.122453
    97  H    0.106440
    98  H    0.090711
    99  H    0.084669
   100  H    0.111733
   101  H    0.095743
   102  H    0.095302
   103  H    0.047306
   104  H    0.113905
   105  H    0.095350
   106  H    0.086660
   107  H    0.081448
   108  H    0.077442
   109  H    0.082586
   110  H    0.110965
   111  H    0.090933
   112  H    0.094680
   113  H    0.072576
   114  H    0.084684
   115  H    0.089078
   116  H    0.107392
   117  H    0.090314
   118  H    0.078699
   119  H    0.090598
   120  H    0.088292
   121  H    0.076008
   122  H    0.068603
   123  H    0.073963
   124  H    0.089002
   125  H    0.113370
   126  H    0.075063
   127  H    0.110246
   128  H    0.093741
   129  H    0.081726
   130  H    0.141989
   131  H    0.138169
   132  H    0.127385
   133  O   -0.389511
   134  H    0.053580
 Sum of Mulliken charges =   0.00000

 Dipole moment (field-independent basis, Debye):
    X=              2.0521    Y=             -5.8107    Z=             -1.1873  Tot=              6.2758
 Quadrupole moment (field-independent basis, Debye-Ang):
   XX=           -364.3608   YY=           -429.5099   ZZ=           -397.9171
   XY=             11.8869   XZ=             24.5590   YZ=            -33.2923

 Normal termination of Gaussian 09 at Tue Oct  8 07:26:48 2019.
