 Gaussian 09, Revision D.01,
 Gaussian 09:  ES64L-G09RevD.01 24-Apr-2013

 ----------------------------------------------------------------------
 # td=(NStates=1) iop(3/107=0140000000,3/108=0140000000) iop(3/107=0140
 000000,3/108=0140000000) CAM-B3LYP/6-31G(d,p)
 ----------------------------------------------------------------------

 --
 TD
 --
 Symbolic Z-matrix:
 Charge =  0 Multiplicity = 1

                         Standard orientation:
 ---------------------------------------------------------------------
 Center     Atomic      Atomic             Coordinates (Angstroms)
 Number     Number       Type             X           Y           Z
 ---------------------------------------------------------------------
      1         12           0       -5.539445    1.294434    0.228177
      2          6           0       -4.955174   -2.100060   -0.350123
      3          6           0       -3.396876    1.079513    2.751795
      4          6           0       -6.129141    4.528656    0.677349
      5          6           0       -7.944095    1.216636   -2.413940
      6          7           0       -4.293679   -0.361147    0.994368
      7          6           0       -4.280771   -1.662074    0.644298
      8          6           0       -3.235022   -2.456109    1.471166
      9          6           0       -2.935024   -1.420928    2.613866
     10          6           0       -3.519197   -0.094023    2.079869
     11          6           0       -3.426212   -1.926767    4.005450
     12          6           0       -2.029480   -2.789695    0.674582
     13          6           0       -1.026342   -3.642870    1.467488
     14          6           0        0.310976   -3.973920    0.647394
     15          8           0        0.572094   -3.593327   -0.513291
     16          8           0        1.138452   -4.726959    1.415362
     17          7           0       -4.829129    2.552738    1.479725
     18          6           0       -3.950117    2.350377    2.521044
     19          6           0       -3.698393    3.546233    3.298463
     20          6           0       -4.524842    4.509940    2.725185
     21          6           0       -5.239528    3.909542    1.489216
     22          6           0       -2.645298    3.719505    4.357206
     23          6           0       -4.667744    5.886253    3.043174
     24          8           0       -4.064443    6.455160    4.002104
     25          7           0       -6.966649    2.649179   -0.697484
     26          6           0       -6.947279    3.963549   -0.332436
     27          6           0       -8.048286    4.614439   -1.060070
     28          6           0       -8.553293    3.628262   -1.997667
     29          6           0       -7.819463    2.453690   -1.742923
     30          6           0       -8.329897    6.068618   -1.032193
     31          6           0       -9.498361    3.863106   -3.234579
     32          6           0       -8.843898    4.169360   -4.575387
     33          7           0       -6.284943   -0.063584   -1.144615
     34          6           0       -7.261723    0.042801   -2.178862
     35          6           0       -7.513253   -1.248923   -2.776544
     36          6           0       -6.599828   -2.088120   -2.096966
     37          6           0       -5.906962   -1.340795   -1.166347
     38          6           0       -8.488865   -1.472304   -3.931280
     39          6           0       -6.137330   -3.512004   -2.020006
     40          8           0       -6.463983   -4.443867   -2.696267
     41          6           0       -5.117898   -3.511946   -0.907704
     42          6           0       -5.359216   -4.646024    0.048052
     43          8           0       -5.798059   -4.544830    1.225543
     44          8           0       -5.168426   -5.861613   -0.476894
     45          6           0       -5.489403   -6.975341    0.379861
     46          6           0        2.387007   -5.103230    0.739916
     47          6           0        3.316651   -4.025395    1.057472
     48          6           0        4.028037   -3.346886    0.141904
     49          6           0        3.578877   -3.128877   -1.316809
     50          6           0        5.031895   -2.174860    0.651323
     51          6           0        6.466786   -2.530215    0.014241
     52          6           0        7.624034   -1.700336    0.544785
     53          6           0        9.054471   -1.864591   -0.142729
     54          6           0        9.448786   -3.312762   -0.025848
     55          6           0       10.017570   -0.874383    0.366676
     56          6           0       11.527106   -0.893274   -0.227924
     57          6           0       12.273100    0.296106    0.179496
     58          6           0       13.618416    0.450633   -0.516270
     59          6           0       14.509732   -0.675340   -0.173497
     60          6           0       14.156426    1.777735   -0.147253
     61          6           0       15.423568    2.219898   -0.978681
     62          6           0       16.062655    3.586419   -0.650678
     63          6           0       17.309910    3.883071   -1.474254
     64          6           0       17.042226    3.842692   -3.029165
     65          6           0       17.943915    5.225117   -0.873254
     66          1           0       -2.821386    1.141032    3.639907
     67          1           0       -6.287792    5.585197    0.948189
     68          1           0       -8.855015    1.263751   -3.159008
     69          1           0       -3.910338   -3.331223    1.781863
     70          1           0       -1.721679   -1.080186    2.813064
     71          1           0       -2.812711   -2.851918    4.211487
     72          1           0       -3.613736   -1.214126    4.775743
     73          1           0       -4.472545   -2.374723    3.975976
     74          1           0       -2.448109   -3.589514   -0.221123
     75          1           0       -1.483550   -1.915758    0.134769
     76          1           0       -0.446514   -2.993779    2.135363
     77          1           0       -1.438859   -4.473615    2.013857
     78          1           0       -1.741148    3.490298    3.987169
     79          1           0       -2.607531    4.757814    4.788034
     80          1           0       -2.743196    3.155272    5.347541
     81          1           0       -5.281571    6.587072    2.501117
     82          1           0       -9.933486    2.936169   -3.109055
     83          1           0       -9.983624    4.729471   -2.984473
     84          1           0       -9.746283    4.191814   -5.296086
     85          1           0       -8.212182    5.071070   -4.584853
     86          1           0       -8.189732    3.154960   -4.914884
     87          1           0       -8.255473   -0.610279   -4.726780
     88          1           0       -8.452079   -2.512519   -4.216158
     89          1           0       -9.449171   -1.243301   -3.628647
     90          1           0       -4.111026   -3.553039   -1.497260
     91          1           0        2.574119   -6.045749    1.271934
     92          1           0        2.137086   -5.352851   -0.416987
     93          1           0        3.677892   -3.843842    2.134861
     94          1           0        2.621285   -3.543576   -1.815668
     95          1           0        3.504170   -2.198580   -1.631442
     96          1           0        4.474914   -3.423260   -1.798774
     97          1           0        4.543154   -1.218912    0.549398
     98          1           0        4.938329   -2.302356    1.745927
     99          1           0        6.746363   -3.600459    0.097562
    100          1           0        6.289420   -2.234689   -1.112166
    101          1           0        7.277902   -0.635774    0.297024
    102          1           0        7.715677   -1.864245    1.640321
    103          1           0        8.773318   -1.576272   -1.232851
    104          1           0        8.658071   -3.970902   -0.517405
    105          1           0       10.468095   -3.638880   -0.391908
    106          1           0        9.528538   -3.705656    0.992730
    107          1           0        9.800588    0.079663    0.243742
    108          1           0        9.989964   -0.893511    1.485271
    109          1           0       12.071964   -1.770527    0.113022
    110          1           0       11.320780   -1.119351   -1.244617
    111          1           0       11.525865    1.080359    0.035229
    112          1           0       12.446404    0.504024    1.278274
    113          1           0       13.439124    0.222103   -1.575906
    114          1           0       14.805138   -0.880414    1.008106
    115          1           0       14.292587   -1.767532   -0.274057
    116          1           0       15.442068   -0.567194   -0.567987
    117          1           0       13.162688    2.538151   -0.190495
    118          1           0       14.526063    1.996813    0.846955
    119          1           0       16.129130    1.402811   -0.754027
    120          1           0       14.992539    2.186922   -2.131513
    121          1           0       15.167967    4.119275   -0.646250
    122          1           0       16.568375    3.536632    0.411802
    123          1           0       18.084500    3.100730   -1.031612
    124          1           0       16.399597    4.716176   -3.105236
    125          1           0       18.020956    3.978993   -3.408361
    126          1           0       16.678882    2.799371   -3.378095
    127          1           0       18.271440    5.251511    0.164309
    128          1           0       18.889489    5.352342   -1.480670
    129          1           0       17.253502    5.966635   -0.817241
    130          1           0       -5.670834   -7.919979   -0.302077
    131          1           0       -6.506412   -6.535891    0.950880
    132          1           0       -4.613049   -7.283853    1.081481
    133          8           0       -7.808412    6.899005   -0.460322
    134          1           0       -9.246129    6.259176   -1.678490
 ---------------------------------------------------------------------

 SCF Done:  E(RCAM-B3LYP) =  -3043.46682579     A.U. after   15 cycles

 Excitation energies and oscillator strengths:

 Excited State   1:      Singlet-A      2.1279 eV  582.66 nm  f=0.1261  <S**2>=0.000
     243 -> 246        0.28530
     244 -> 245        0.63863
 This state for optimization and/or second-order correction.
 Total Energy, E(TD-HF/TD-KS) =  -3043.38862737
 Copying the excited state density for this state as the 1-particle RhoCI density.

 The electronic state is 1-A.
 Alpha  occ. eigenvalues --  -46.81601 -19.23499 -19.22303 -19.17460 -19.17396
 Alpha  occ. eigenvalues --  -19.17268 -19.17007 -19.16422 -14.38053 -14.37336
 Alpha  occ. eigenvalues --  -14.36589 -14.36395 -10.36319 -10.35411 -10.31561
 Alpha  occ. eigenvalues --  -10.29806 -10.29715 -10.29625 -10.28326 -10.27699
 Alpha  occ. eigenvalues --  -10.27652 -10.27455 -10.26450 -10.26105 -10.26087
 Alpha  occ. eigenvalues --  -10.26063 -10.26060 -10.26036 -10.25862 -10.25696
 Alpha  occ. eigenvalues --  -10.25648 -10.25443 -10.25236 -10.24643 -10.24385
 Alpha  occ. eigenvalues --  -10.24368 -10.24216 -10.24186 -10.23926 -10.23497
 Alpha  occ. eigenvalues --  -10.23454 -10.23143 -10.23003 -10.22932 -10.22686
 Alpha  occ. eigenvalues --  -10.22677 -10.22636 -10.22431 -10.22383 -10.22244
 Alpha  occ. eigenvalues --  -10.22173 -10.22063 -10.21700 -10.21648 -10.21629
 Alpha  occ. eigenvalues --  -10.21526 -10.21485 -10.20847 -10.20844 -10.20504
 Alpha  occ. eigenvalues --  -10.20228 -10.20141 -10.19971 -10.19887 -10.19469
 Alpha  occ. eigenvalues --  -10.19385  -3.10153  -1.85089  -1.84641  -1.84552
 Alpha  occ. eigenvalues --   -1.14116  -1.12225  -1.11565  -1.08443  -1.03846
 Alpha  occ. eigenvalues --   -1.03288  -1.03089  -1.00570  -0.99491  -0.99148
 Alpha  occ. eigenvalues --   -0.98260  -0.89334  -0.86431  -0.85702  -0.85437
 Alpha  occ. eigenvalues --   -0.84877  -0.84350  -0.84017  -0.83873  -0.83332
 Alpha  occ. eigenvalues --   -0.83183  -0.83057  -0.81092  -0.80350  -0.79474
 Alpha  occ. eigenvalues --   -0.78744  -0.77899  -0.77774  -0.77437  -0.76321
 Alpha  occ. eigenvalues --   -0.75817  -0.75292  -0.74124  -0.73369  -0.72827
 Alpha  occ. eigenvalues --   -0.71586  -0.71365  -0.71210  -0.70432  -0.70356
 Alpha  occ. eigenvalues --   -0.69387  -0.68703  -0.67657  -0.66747  -0.65773
 Alpha  occ. eigenvalues --   -0.65628  -0.65038  -0.63659  -0.62395  -0.61989
 Alpha  occ. eigenvalues --   -0.61311  -0.60790  -0.60709  -0.59187  -0.58591
 Alpha  occ. eigenvalues --   -0.58089  -0.57724  -0.57543  -0.57502  -0.57321
 Alpha  occ. eigenvalues --   -0.56210  -0.55766  -0.55681  -0.55429  -0.55221
 Alpha  occ. eigenvalues --   -0.54042  -0.53444  -0.52657  -0.52299  -0.51926
 Alpha  occ. eigenvalues --   -0.51525  -0.51224  -0.51071  -0.50825  -0.50637
 Alpha  occ. eigenvalues --   -0.50359  -0.49923  -0.49366  -0.49071  -0.48837
 Alpha  occ. eigenvalues --   -0.48805  -0.48479  -0.48371  -0.48199  -0.48161
 Alpha  occ. eigenvalues --   -0.47952  -0.47541  -0.47038  -0.46947  -0.46862
 Alpha  occ. eigenvalues --   -0.46660  -0.46582  -0.46364  -0.46330  -0.46045
 Alpha  occ. eigenvalues --   -0.45735  -0.45641  -0.45320  -0.45174  -0.44864
 Alpha  occ. eigenvalues --   -0.44853  -0.44471  -0.44381  -0.43969  -0.43879
 Alpha  occ. eigenvalues --   -0.43414  -0.43381  -0.43218  -0.42922  -0.42849
 Alpha  occ. eigenvalues --   -0.42746  -0.42458  -0.42387  -0.42356  -0.42010
 Alpha  occ. eigenvalues --   -0.41933  -0.41716  -0.41567  -0.41443  -0.41218
 Alpha  occ. eigenvalues --   -0.41100  -0.40933  -0.40766  -0.40410  -0.39971
 Alpha  occ. eigenvalues --   -0.39833  -0.39546  -0.39238  -0.39162  -0.39103
 Alpha  occ. eigenvalues --   -0.38986  -0.38599  -0.38513  -0.38453  -0.37982
 Alpha  occ. eigenvalues --   -0.37880  -0.37594  -0.37438  -0.36995  -0.36938
 Alpha  occ. eigenvalues --   -0.35989  -0.35949  -0.35824  -0.35567  -0.35517
 Alpha  occ. eigenvalues --   -0.34971  -0.34879  -0.34641  -0.34312  -0.34230
 Alpha  occ. eigenvalues --   -0.33682  -0.33500  -0.33425  -0.33227  -0.33132
 Alpha  occ. eigenvalues --   -0.32610  -0.32074  -0.32021  -0.31846  -0.31340
 Alpha  occ. eigenvalues --   -0.31322  -0.31002  -0.30278  -0.30047  -0.29809
 Alpha  occ. eigenvalues --   -0.28891  -0.28212  -0.28070  -0.27484  -0.27333
 Alpha  occ. eigenvalues --   -0.27100  -0.26965  -0.23313  -0.22520
 Alpha virt. eigenvalues --   -0.08819  -0.06881  -0.01440  -0.00408   0.00946
 Alpha virt. eigenvalues --    0.02316   0.03452   0.03872   0.04120   0.04177
 Alpha virt. eigenvalues --    0.05365   0.06368   0.07373   0.08243   0.08862

 Mulliken charges:
               1
     1  Mg   0.829757
     2  C    0.089788
     3  C   -0.195512
     4  C   -0.170500
     5  C   -0.173861
     6  N   -0.650480
     7  C    0.289979
     8  C   -0.157533
     9  C   -0.134271
    10  C    0.383456
    11  C   -0.318013
    12  C   -0.142649
    13  C   -0.246507
    14  C    0.581566
    15  O   -0.485273
    16  O   -0.459874
    17  N   -0.779036
    18  C    0.314740
    19  C    0.088925
    20  C   -0.021015
    21  C    0.332390
    22  C   -0.403616
    23  C    0.204339
    24  O   -0.444030
    25  N   -0.688085
    26  C    0.306468
    27  C   -0.076027
    28  C   -0.048948
    29  C    0.322526
    30  C    0.261198
    31  C   -0.194442
    32  C   -0.288049
    33  N   -0.720643
    34  C    0.254388
    35  C    0.034888
    36  C   -0.027638
    37  C    0.339741
    38  C   -0.367897
    39  C    0.371864
    40  O   -0.438195
    41  C   -0.321151
    42  C    0.622278
    43  O   -0.507182
    44  O   -0.417787
    45  C   -0.085557
    46  C   -0.015026
    47  C   -0.114753
    48  C    0.095241
    49  C   -0.352068
    50  C   -0.235156
    51  C   -0.173973
    52  C   -0.173775
    53  C   -0.049286
    54  C   -0.315383
    55  C   -0.168888
    56  C   -0.191558
    57  C   -0.172408
    58  C   -0.026180
    59  C   -0.316611
    60  C   -0.176204
    61  C   -0.183974
    62  C   -0.154295
    63  C   -0.066075
    64  C   -0.304750
    65  C   -0.325039
    66  H    0.074627
    67  H    0.126981
    68  H    0.089549
    69  H    0.141487
    70  H    0.074117
    71  H    0.115571
    72  H    0.119630
    73  H    0.116057
    74  H    0.068951
    75  H    0.124587
    76  H    0.138301
    77  H    0.135776
    78  H    0.143535
    79  H    0.165736
    80  H    0.119133
    81  H    0.098508
    82  H    0.117237
    83  H    0.122302
    84  H    0.111028
    85  H    0.128055
    86  H    0.074760
    87  H    0.117355
    88  H    0.151085
    89  H    0.142770
    90  H    0.179597
    91  H    0.119746
    92  H    0.131771
    93  H    0.081769
    94  H    0.131117
    95  H    0.125736
    96  H    0.107590
    97  H    0.118774
    98  H    0.089570
    99  H    0.104611
   100  H    0.085749
   101  H    0.079660
   102  H    0.088818
   103  H    0.068904
   104  H    0.096104
   105  H    0.096101
   106  H    0.103269
   107  H    0.097484
   108  H    0.075021
   109  H    0.095301
   110  H    0.100365
   111  H    0.082179
   112  H    0.089505
   113  H    0.095316
   114  H    0.055852
   115  H    0.104878
   116  H    0.113476
   117  H    0.050197
   118  H    0.102884
   119  H    0.093850
   120  H    0.064002
   121  H    0.099351
   122  H    0.069639
   123  H    0.069405
   124  H    0.114795
   125  H    0.110451
   126  H    0.110691
   127  H    0.104557
   128  H    0.092524
   129  H    0.113866
   130  H    0.123499
   131  H    0.137695
   132  H    0.120063
   133  O   -0.373484
   134  H    0.016251
 Sum of Mulliken charges =   0.00000

 Dipole moment (field-independent basis, Debye):
    X=              2.1527    Y=             -4.1956    Z=             -0.5989  Tot=              4.7535
 Quadrupole moment (field-independent basis, Debye-Ang):
   XX=           -371.3101   YY=           -436.0994   ZZ=           -397.6778
   XY=             10.9135   XZ=             22.4341   YZ=            -30.9095

 Normal termination of Gaussian 09 at Sat Oct  5 13:32:53 2019.
