 Gaussian 09, Revision D.01,
 Gaussian 09:  ES64L-G09RevD.01 24-Apr-2013

 ----------------------------------------------------------------------
 # td=(NStates=1) iop(3/107=0140000000,3/108=0140000000) iop(3/107=0140
 000000,3/108=0140000000) CAM-B3LYP/6-31G(d,p)
 ----------------------------------------------------------------------

 --
 TD
 --
 Symbolic Z-matrix:
 Charge =  0 Multiplicity = 1

                         Standard orientation:
 ---------------------------------------------------------------------
 Center     Atomic      Atomic             Coordinates (Angstroms)
 Number     Number       Type             X           Y           Z
 ---------------------------------------------------------------------
      1         12           0       -5.582507    1.228961    0.212932
      2          6           0       -5.069203   -2.180066   -0.313389
      3          6           0       -3.420899    1.154916    2.810624
      4          6           0       -6.135105    4.668657    0.528453
      5          6           0       -8.074573    1.139743   -2.286043
      6          7           0       -4.310759   -0.316523    1.041197
      7          6           0       -4.218546   -1.558783    0.689142
      8          6           0       -3.200169   -2.326321    1.490033
      9          6           0       -2.973452   -1.272050    2.734288
     10          6           0       -3.525245   -0.027137    2.233442
     11          6           0       -3.442631   -1.726426    4.043783
     12          6           0       -1.976234   -2.591195    0.643037
     13          6           0       -1.100430   -3.559813    1.450751
     14          6           0        0.272308   -3.887214    0.672038
     15          8           0        0.578127   -3.391019   -0.425939
     16          8           0        1.099961   -4.663781    1.380900
     17          7           0       -4.967392    2.629687    1.480488
     18          6           0       -4.038168    2.452901    2.516170
     19          6           0       -3.769663    3.633522    3.129495
     20          6           0       -4.470262    4.670226    2.487292
     21          6           0       -5.223639    3.990802    1.462801
     22          6           0       -2.875346    3.889056    4.332469
     23          6           0       -4.555883    6.102826    2.857941
     24          8           0       -4.053804    6.610565    3.799700
     25          7           0       -6.855150    2.547926   -0.700898
     26          6           0       -6.923143    3.892043   -0.409119
     27          6           0       -7.921109    4.581377   -1.347680
     28          6           0       -8.370106    3.635138   -2.162330
     29          6           0       -7.762359    2.391556   -1.674744
     30          6           0       -8.255020    6.059438   -1.299779
     31          6           0       -9.324589    3.792020   -3.287087
     32          6           0       -8.648441    3.955462   -4.672978
     33          7           0       -6.356625   -0.212793   -1.101462
     34          6           0       -7.324780   -0.081817   -2.136764
     35          6           0       -7.662365   -1.392518   -2.705882
     36          6           0       -6.744211   -2.179938   -1.979982
     37          6           0       -5.967156   -1.501871   -1.006862
     38          6           0       -8.687453   -1.710217   -3.707130
     39          6           0       -6.223525   -3.593022   -1.986021
     40          8           0       -6.642387   -4.547446   -2.569402
     41          6           0       -5.043003   -3.546215   -0.958472
     42          6           0       -5.393267   -4.584306    0.216376
     43          8           0       -5.779281   -4.415470    1.335149
     44          8           0       -5.077665   -5.808062   -0.221592
     45          6           0       -5.398896   -6.982069    0.625959
     46          6           0        2.396211   -4.998080    0.616552
     47          6           0        3.416402   -4.037323    0.899012
     48          6           0        4.106512   -3.349550    0.007504
     49          6           0        3.739373   -3.296464   -1.413137
     50          6           0        5.118342   -2.286776    0.524731
     51          6           0        6.524688   -2.646046   -0.049802
     52          6           0        7.654491   -1.750630    0.394810
     53          6           0        9.037988   -2.035006   -0.146726
     54          6           0        9.503433   -3.518834    0.109774
     55          6           0        9.943132   -0.948441    0.386082
     56          6           0       11.241955   -0.764972   -0.354152
     57          6           0       12.181681    0.378216    0.122899
     58          6           0       13.651533    0.473757   -0.630403
     59          6           0       14.414143   -0.744415   -0.326284
     60          6           0       14.201991    1.797586   -0.207546
     61          6           0       15.504889    2.095654   -0.892803
     62          6           0       16.049418    3.456945   -0.475704
     63          6           0       17.298797    3.810560   -1.295468
     64          6           0       17.193036    3.918379   -2.780510
     65          6           0       17.940270    5.100341   -0.645272
     66          1           0       -2.923969    1.294678    3.891851
     67          1           0       -6.418318    5.535872    0.930396
     68          1           0       -8.614983    1.304829   -3.132036
     69          1           0       -3.656147   -3.186374    1.829673
     70          1           0       -1.860128   -1.436790    2.751953
     71          1           0       -3.066196   -2.700295    4.281912
     72          1           0       -3.117446   -1.227785    5.038424
     73          1           0       -4.641178   -1.683031    3.991411
     74          1           0       -2.461127   -2.928453   -0.413082
     75          1           0       -1.453036   -1.664823    0.403632
     76          1           0       -0.680813   -2.917086    2.260602
     77          1           0       -1.572453   -4.447798    1.936218
     78          1           0       -1.743159    3.633313    3.969442
     79          1           0       -3.039806    4.818602    4.808211
     80          1           0       -2.949811    3.059780    4.971382
     81          1           0       -5.153283    6.904138    2.209056
     82          1           0       -9.989460    3.083089   -3.195768
     83          1           0      -10.076924    4.577959   -3.158673
     84          1           0       -9.287828    4.315151   -5.639305
     85          1           0       -7.694542    4.561834   -4.396424
     86          1           0       -8.025490    3.078323   -5.055397
     87          1           0       -8.501307   -1.275783   -4.472007
     88          1           0       -8.876865   -2.762644   -3.835494
     89          1           0       -9.586557   -1.264008   -3.266834
     90          1           0       -4.113875   -3.859601   -1.531842
     91          1           0        2.682241   -5.966494    0.951637
     92          1           0        2.177499   -5.105904   -0.569106
     93          1           0        3.692350   -3.892266    1.972942
     94          1           0        2.783931   -3.553496   -1.674286
     95          1           0        3.976743   -2.326499   -1.808710
     96          1           0        4.177751   -3.886609   -2.209231
     97          1           0        4.831714   -1.273570    0.312014
     98          1           0        5.134437   -2.272020    1.574524
     99          1           0        6.630584   -3.634368    0.166071
    100          1           0        6.536242   -2.750252   -1.127038
    101          1           0        7.399440   -0.757547    0.170192
    102          1           0        7.614596   -1.843425    1.656274
    103          1           0        8.767140   -1.960185   -1.308628
    104          1           0        8.802656   -4.121831   -0.165811
    105          1           0       10.454118   -3.766536   -0.246001
    106          1           0        9.730313   -3.532763    1.214185
    107          1           0        9.407112    0.013580    0.340715
    108          1           0       10.143173   -1.024777    1.318081
    109          1           0       11.852360   -1.777148   -0.208327
    110          1           0       11.112118   -0.779100   -1.354271
    111          1           0       11.624202    1.344563   -0.013121
    112          1           0       12.369960    0.200618    1.289893
    113          1           0       13.441513    0.676697   -1.857834
    114          1           0       14.249310   -0.794650    0.609526
    115          1           0       14.130617   -1.691715   -0.679512
    116          1           0       15.262203   -0.397168   -0.853827
    117          1           0       13.576786    2.787863   -0.418931
    118          1           0       14.248658    1.884729    0.983611
    119          1           0       16.333490    1.465060   -0.573129
    120          1           0       15.591103    2.078737   -2.001667
    121          1           0       15.290238    4.225150   -0.826275
    122          1           0       16.300868    3.515106    0.514530
    123          1           0       17.872154    2.838183   -0.840711
    124          1           0       16.612587    4.906881   -3.137742
    125          1           0       18.140059    4.306034   -3.227675
    126          1           0       16.979149    2.942739   -3.346270
    127          1           0       18.153814    4.972111    0.413751
    128          1           0       18.989608    5.354773   -1.087357
    129          1           0       17.476345    5.856009   -0.951811
    130          1           0       -5.021556   -7.844169    0.077852
    131          1           0       -6.468936   -6.809571    0.927899
    132          1           0       -4.803257   -7.191268    1.462062
    133          8           0       -7.794000    6.886742   -0.437345
    134          1           0       -9.009094    6.331904   -2.128352
 ---------------------------------------------------------------------

 SCF Done:  E(RCAM-B3LYP) =  -3043.37814809     A.U. after   16 cycles

 Excitation energies and oscillator strengths:

 Excited State   1:      Singlet-A      1.9423 eV  638.35 nm  f=0.2382  <S**2>=0.000
     243 -> 246       -0.20126
     244 -> 245        0.67227
 This state for optimization and/or second-order correction.
 Total Energy, E(TD-HF/TD-KS) =  -3043.30677092
 Copying the excited state density for this state as the 1-particle RhoCI density.

 The electronic state is 1-A.
 Alpha  occ. eigenvalues --  -46.81357 -19.22785 -19.22142 -19.18420 -19.17732
 Alpha  occ. eigenvalues --  -19.17533 -19.16562 -19.16061 -14.39070 -14.37882
 Alpha  occ. eigenvalues --  -14.36312 -14.35726 -10.35281 -10.35261 -10.32459
 Alpha  occ. eigenvalues --  -10.31276 -10.29838 -10.28295 -10.27997 -10.27569
 Alpha  occ. eigenvalues --  -10.27302 -10.27166 -10.26897 -10.26513 -10.26115
 Alpha  occ. eigenvalues --  -10.25702 -10.25644 -10.25393 -10.25183 -10.24667
 Alpha  occ. eigenvalues --  -10.24631 -10.24413 -10.24339 -10.23967 -10.23854
 Alpha  occ. eigenvalues --  -10.23805 -10.23608 -10.23570 -10.23225 -10.23123
 Alpha  occ. eigenvalues --  -10.23032 -10.23018 -10.23003 -10.22804 -10.22554
 Alpha  occ. eigenvalues --  -10.22470 -10.22449 -10.22287 -10.22255 -10.22199
 Alpha  occ. eigenvalues --  -10.21879 -10.21752 -10.21326 -10.21211 -10.21146
 Alpha  occ. eigenvalues --  -10.21084 -10.21035 -10.20101 -10.19921 -10.19900
 Alpha  occ. eigenvalues --  -10.19595 -10.19453 -10.19306 -10.19004 -10.18905
 Alpha  occ. eigenvalues --  -10.17797  -3.09884  -1.84832  -1.84377  -1.84264
 Alpha  occ. eigenvalues --   -1.13794  -1.11983  -1.08404  -1.07928  -1.04862
 Alpha  occ. eigenvalues --   -1.04161  -1.02619  -1.00649  -1.00281  -0.98636
 Alpha  occ. eigenvalues --   -0.97992  -0.88861  -0.86693  -0.86518  -0.86018
 Alpha  occ. eigenvalues --   -0.85931  -0.85096  -0.84717  -0.84194  -0.83591
 Alpha  occ. eigenvalues --   -0.82996  -0.81914  -0.81152  -0.80647  -0.79111
 Alpha  occ. eigenvalues --   -0.78929  -0.78413  -0.77736  -0.77487  -0.76856
 Alpha  occ. eigenvalues --   -0.76144  -0.75393  -0.74165  -0.73001  -0.72543
 Alpha  occ. eigenvalues --   -0.71960  -0.71828  -0.71456  -0.70862  -0.69802
 Alpha  occ. eigenvalues --   -0.69440  -0.68738  -0.67603  -0.67217  -0.66109
 Alpha  occ. eigenvalues --   -0.65175  -0.64675  -0.63249  -0.63200  -0.62327
 Alpha  occ. eigenvalues --   -0.61436  -0.60436  -0.60382  -0.59155  -0.59142
 Alpha  occ. eigenvalues --   -0.58582  -0.58299  -0.57604  -0.56778  -0.56443
 Alpha  occ. eigenvalues --   -0.56228  -0.55680  -0.55657  -0.54940  -0.54705
 Alpha  occ. eigenvalues --   -0.53842  -0.53668  -0.52750  -0.52469  -0.52248
 Alpha  occ. eigenvalues --   -0.51839  -0.51540  -0.51426  -0.51069  -0.50879
 Alpha  occ. eigenvalues --   -0.50574  -0.50208  -0.49832  -0.49773  -0.49443
 Alpha  occ. eigenvalues --   -0.49260  -0.48948  -0.48739  -0.48539  -0.48311
 Alpha  occ. eigenvalues --   -0.47986  -0.47663  -0.47424  -0.47257  -0.46878
 Alpha  occ. eigenvalues --   -0.46711  -0.46447  -0.46100  -0.45863  -0.45682
 Alpha  occ. eigenvalues --   -0.45402  -0.45241  -0.45154  -0.45049  -0.44951
 Alpha  occ. eigenvalues --   -0.44814  -0.44419  -0.44362  -0.44289  -0.44089
 Alpha  occ. eigenvalues --   -0.43880  -0.43737  -0.43294  -0.43121  -0.42898
 Alpha  occ. eigenvalues --   -0.42627  -0.42530  -0.42201  -0.42005  -0.41812
 Alpha  occ. eigenvalues --   -0.41493  -0.41463  -0.41319  -0.41196  -0.41021
 Alpha  occ. eigenvalues --   -0.40869  -0.40653  -0.40583  -0.40466  -0.40381
 Alpha  occ. eigenvalues --   -0.40263  -0.40011  -0.39893  -0.39650  -0.39490
 Alpha  occ. eigenvalues --   -0.39239  -0.38947  -0.38817  -0.38728  -0.38554
 Alpha  occ. eigenvalues --   -0.37917  -0.37834  -0.37612  -0.37542  -0.37266
 Alpha  occ. eigenvalues --   -0.36938  -0.36642  -0.36340  -0.36303  -0.35788
 Alpha  occ. eigenvalues --   -0.35237  -0.34765  -0.34735  -0.34474  -0.34454
 Alpha  occ. eigenvalues --   -0.34068  -0.33563  -0.33384  -0.33044  -0.32784
 Alpha  occ. eigenvalues --   -0.32661  -0.32288  -0.31904  -0.31658  -0.31386
 Alpha  occ. eigenvalues --   -0.30882  -0.30708  -0.30166  -0.29878  -0.29601
 Alpha  occ. eigenvalues --   -0.29432  -0.28666  -0.27608  -0.27524  -0.27403
 Alpha  occ. eigenvalues --   -0.26864  -0.26610  -0.23184  -0.21269
 Alpha virt. eigenvalues --   -0.08975  -0.06185  -0.01466  -0.00478   0.01216
 Alpha virt. eigenvalues --    0.03191   0.03480   0.03835   0.04095   0.04669
 Alpha virt. eigenvalues --    0.05156   0.05604   0.08191   0.08925   0.09528

 Mulliken charges:
               1
     1  Mg   0.824135
     2  C    0.113304
     3  C   -0.178244
     4  C   -0.099056
     5  C   -0.157306
     6  N   -0.634414
     7  C    0.335223
     8  C   -0.158703
     9  C   -0.147920
    10  C    0.338545
    11  C   -0.297000
    12  C   -0.155222
    13  C   -0.276203
    14  C    0.596158
    15  O   -0.481317
    16  O   -0.467348
    17  N   -0.719877
    18  C    0.288521
    19  C    0.037017
    20  C   -0.028800
    21  C    0.233808
    22  C   -0.369788
    23  C    0.226468
    24  O   -0.393488
    25  N   -0.649579
    26  C    0.250141
    27  C   -0.004987
    28  C    0.013249
    29  C    0.277629
    30  C    0.250088
    31  C   -0.228551
    32  C   -0.317627
    33  N   -0.743934
    34  C    0.233602
    35  C    0.027788
    36  C   -0.052384
    37  C    0.363949
    38  C   -0.344365
    39  C    0.376835
    40  O   -0.431788
    41  C   -0.363879
    42  C    0.613551
    43  O   -0.456637
    44  O   -0.448165
    45  C   -0.090775
    46  C   -0.017250
    47  C   -0.122159
    48  C    0.158959
    49  C   -0.393742
    50  C   -0.234814
    51  C   -0.191193
    52  C   -0.146198
    53  C   -0.058090
    54  C   -0.304373
    55  C   -0.149728
    56  C   -0.171927
    57  C   -0.188420
    58  C   -0.062541
    59  C   -0.272340
    60  C   -0.143414
    61  C   -0.188030
    62  C   -0.157245
    63  C   -0.037156
    64  C   -0.322060
    65  C   -0.310116
    66  H    0.085212
    67  H    0.128591
    68  H    0.079462
    69  H    0.127652
    70  H    0.094568
    71  H    0.112371
    72  H    0.103934
    73  H    0.102956
    74  H    0.098327
    75  H    0.132108
    76  H    0.142771
    77  H    0.136531
    78  H    0.097218
    79  H    0.158043
    80  H    0.117387
    81  H    0.058636
    82  H    0.123387
    83  H    0.112397
    84  H    0.108290
    85  H    0.108848
    86  H    0.110007
    87  H    0.138161
    88  H    0.150490
    89  H    0.130080
    90  H    0.162429
    91  H    0.125882
    92  H    0.120257
    93  H    0.083879
    94  H    0.151796
    95  H    0.115733
    96  H    0.109226
    97  H    0.107153
    98  H    0.100955
    99  H    0.108262
   100  H    0.088547
   101  H    0.100862
   102  H    0.036779
   103  H    0.058792
   104  H    0.110861
   105  H    0.110561
   106  H    0.089874
   107  H    0.079945
   108  H    0.099816
   109  H    0.051504
   110  H    0.101788
   111  H    0.083432
   112  H    0.063394
   113  H    0.043440
   114  H    0.108534
   115  H    0.111706
   116  H    0.107510
   117  H    0.087374
   118  H    0.070256
   119  H    0.094964
   120  H    0.093185
   121  H    0.068822
   122  H    0.099309
   123  H    0.052057
   124  H    0.087473
   125  H    0.108868
   126  H    0.107902
   127  H    0.104104
   128  H    0.073700
   129  H    0.118796
   130  H    0.128923
   131  H    0.141234
   132  H    0.127659
   133  O   -0.431070
   134  H    0.085283
 Sum of Mulliken charges =   0.00000

 Dipole moment (field-independent basis, Debye):
    X=              1.7033    Y=             -5.8401    Z=             -2.6733  Tot=              6.6449
 Quadrupole moment (field-independent basis, Debye-Ang):
   XX=           -362.4826   YY=           -430.7526   ZZ=           -389.7174
   XY=             12.6543   XZ=             27.1468   YZ=            -38.1859

 Normal termination of Gaussian 09 at Tue Oct  8 19:45:14 2019.
