 Gaussian 09, Revision D.01,
 Gaussian 09:  ES64L-G09RevD.01 24-Apr-2013

 ----------------------------------------------------------------------
 # td=(NStates=1) iop(3/107=0140000000,3/108=0140000000) iop(3/107=0140
 000000,3/108=0140000000) CAM-B3LYP/6-31G(d,p)
 ----------------------------------------------------------------------

 --
 TD
 --
 Symbolic Z-matrix:
 Charge =  0 Multiplicity = 1

                         Standard orientation:
 ---------------------------------------------------------------------
 Center     Atomic      Atomic             Coordinates (Angstroms)
 Number     Number       Type             X           Y           Z
 ---------------------------------------------------------------------
      1         12           0       -5.639471    1.258582    0.216224
      2          6           0       -4.975918   -2.160511   -0.352130
      3          6           0       -3.401852    1.186315    2.759967
      4          6           0       -6.237404    4.552087    0.659577
      5          6           0       -7.984607    1.176390   -2.429544
      6          7           0       -4.447693   -0.260232    1.025784
      7          6           0       -4.304638   -1.662873    0.659195
      8          6           0       -3.290834   -2.456847    1.519768
      9          6           0       -2.961524   -1.345068    2.665359
     10          6           0       -3.649692   -0.083543    2.205693
     11          6           0       -3.575158   -1.831381    4.036467
     12          6           0       -2.085251   -2.706971    0.701508
     13          6           0       -1.021393   -3.460484    1.322467
     14          6           0        0.211734   -3.841273    0.579913
     15          8           0        0.389882   -3.378152   -0.567566
     16          8           0        1.044995   -4.730490    1.145412
     17          7           0       -4.953674    2.621663    1.503322
     18          6           0       -4.020049    2.446833    2.523596
     19          6           0       -3.767227    3.680627    3.156590
     20          6           0       -4.521731    4.634815    2.534299
     21          6           0       -5.263128    3.981116    1.532563
     22          6           0       -2.851681    3.812663    4.370903
     23          6           0       -4.671955    6.084412    2.844641
     24          8           0       -4.121182    6.604382    3.804564
     25          7           0       -6.953392    2.594654   -0.638862
     26          6           0       -6.950781    3.945260   -0.349247
     27          6           0       -7.919117    4.578201   -1.268141
     28          6           0       -8.470236    3.661716   -2.104239
     29          6           0       -7.737228    2.385826   -1.756177
     30          6           0       -8.276452    5.998327   -1.128645
     31          6           0       -9.377389    3.712283   -3.279443
     32          6           0       -8.591762    3.941802   -4.573255
     33          7           0       -6.285207   -0.087843   -1.102789
     34          6           0       -7.271402    0.024640   -2.074749
     35          6           0       -7.547092   -1.243994   -2.718322
     36          6           0       -6.645640   -2.109919   -2.075250
     37          6           0       -5.954359   -1.369869   -1.156545
     38          6           0       -8.574348   -1.548628   -3.749768
     39          6           0       -6.221746   -3.543446   -1.980669
     40          8           0       -6.566706   -4.560534   -2.597051
     41          6           0       -5.080355   -3.541861   -0.866527
     42          6           0       -5.357251   -4.631718    0.224066
     43          8           0       -5.946437   -4.485918    1.199571
     44          8           0       -5.127303   -5.817873   -0.342256
     45          6           0       -5.522719   -6.972151    0.395395
     46          6           0        2.254229   -4.982386    0.601498
     47          6           0        3.404001   -4.089765    0.981537
     48          6           0        4.105295   -3.203027    0.150845
     49          6           0        3.760686   -3.115016   -1.242568
     50          6           0        5.213862   -2.381472    0.563940
     51          6           0        6.592931   -2.809288    0.002439
     52          6           0        7.699417   -1.896684    0.493724
     53          6           0        9.162273   -2.043345   -0.075719
     54          6           0        9.637189   -3.402491    0.314790
     55          6           0       10.040488   -0.830601    0.496052
     56          6           0       11.352490   -0.962306   -0.194940
     57          6           0       12.319699    0.298600    0.167934
     58          6           0       13.635512    0.392215   -0.473716
     59          6           0       14.614035   -0.747065   -0.234966
     60          6           0       14.364903    1.705618   -0.162538
     61          6           0       15.615725    2.128767   -0.952297
     62          6           0       16.112621    3.560894   -0.662641
     63          6           0       17.390086    3.921606   -1.394921
     64          6           0       17.066316    3.962534   -2.883619
     65          6           0       17.893261    5.322352   -0.921608
     66          1           0       -2.794198    1.139430    3.711572
     67          1           0       -6.691950    5.627693    1.015410
     68          1           0       -8.617669    1.199199   -3.186175
     69          1           0       -3.825580   -3.296745    2.052228
     70          1           0       -1.867319   -1.167361    2.641234
     71          1           0       -3.042182   -2.900438    4.226201
     72          1           0       -3.383506   -1.135513    4.914436
     73          1           0       -4.691416   -1.926765    3.900036
     74          1           0       -2.245747   -3.044869   -0.400994
     75          1           0       -1.636478   -1.726233    0.330432
     76          1           0       -0.411085   -2.988480    2.236757
     77          1           0       -1.226563   -4.414975    1.771670
     78          1           0       -1.799644    3.469831    4.144580
     79          1           0       -2.556012    4.697798    4.706229
     80          1           0       -3.255512    3.135210    5.276916
     81          1           0       -5.327609    6.654638    2.073272
     82          1           0       -9.958412    2.873141   -3.305393
     83          1           0       -9.966229    4.598662   -3.043428
     84          1           0       -9.337523    4.087888   -5.405781
     85          1           0       -8.207502    4.771625   -4.666510
     86          1           0       -7.727385    3.131524   -4.597881
     87          1           0       -8.470680   -0.908671   -4.638653
     88          1           0       -8.251892   -2.464451   -4.131584
     89          1           0       -9.601634   -1.467193   -3.396363
     90          1           0       -4.301870   -4.002106   -1.528339
     91          1           0        2.557614   -6.098082    1.128645
     92          1           0        2.359333   -5.262332   -0.427320
     93          1           0        3.791596   -4.177119    2.072807
     94          1           0        2.783439   -3.245476   -1.595182
     95          1           0        3.946184   -2.103385   -1.812795
     96          1           0        4.170374   -3.724320   -1.828095
     97          1           0        5.096739   -1.258825    0.244693
     98          1           0        5.093876   -2.660653    1.533335
     99          1           0        7.021778   -3.944702    0.180307
    100          1           0        6.271522   -2.622453   -1.132932
    101          1           0        7.284158   -0.927238    0.271447
    102          1           0        7.761025   -2.022093    1.589891
    103          1           0        8.915498   -1.986918   -1.200942
    104          1           0        9.009650   -4.181183    0.020098
    105          1           0       10.823466   -3.565027    0.066667
    106          1           0        9.392088   -3.332173    1.390924
    107          1           0        9.304503    0.040841    0.149338
    108          1           0       10.172932   -0.882578    1.503542
    109          1           0       11.676013   -1.990306    0.175548
    110          1           0       11.229010   -0.845424   -1.227769
    111          1           0       11.707735    1.174767    0.046259
    112          1           0       12.399659    0.233560    1.234929
    113          1           0       13.573602    0.567807   -1.493389
    114          1           0       14.981981   -0.775171    1.079616
    115          1           0       14.020533   -1.765756   -0.282491
    116          1           0       15.543564   -0.789500   -0.671777
    117          1           0       13.685226    2.691774   -0.307192
    118          1           0       14.395949    1.845482    1.026131
    119          1           0       16.421317    1.434627   -0.775017
    120          1           0       15.330690    2.001534   -2.099325
    121          1           0       15.256827    4.290089   -0.897993
    122          1           0       16.361231    3.604872    0.528403
    123          1           0       18.187115    3.058517   -1.222091
    124          1           0       16.283277    4.709543   -3.243452
    125          1           0       17.949283    4.340970   -3.508611
    126          1           0       16.878893    2.927718   -3.331295
    127          1           0       18.167458    5.145074    0.145907
    128          1           0       18.871584    5.560980   -1.185474
    129          1           0       17.038210    6.010518   -0.992920
    130          1           0       -5.350816   -7.734423   -0.264066
    131          1           0       -6.748131   -6.774399    0.470276
    132          1           0       -4.879632   -7.195898    1.228465
    133          8           0       -7.747619    6.879830   -0.404707
    134          1           0       -8.981383    6.281814   -1.712835
 ---------------------------------------------------------------------

 SCF Done:  E(RCAM-B3LYP) =  -3043.41599376     A.U. after   16 cycles

 Excitation energies and oscillator strengths:

 Excited State   1:      Singlet-A      1.9351 eV  640.71 nm  f=0.2258  <S**2>=0.000
     243 -> 246        0.19247
     244 -> 245        0.67097
 This state for optimization and/or second-order correction.
 Total Energy, E(TD-HF/TD-KS) =  -3043.34487985
 Copying the excited state density for this state as the 1-particle RhoCI density.

 The electronic state is 1-A.
 Alpha  occ. eigenvalues --  -46.80236 -19.23863 -19.21680 -19.17339 -19.17233
 Alpha  occ. eigenvalues --  -19.17152 -19.17125 -19.16445 -14.38797 -14.37367
 Alpha  occ. eigenvalues --  -14.36632 -14.36428 -10.35476 -10.34314 -10.31793
 Alpha  occ. eigenvalues --  -10.30746 -10.29354 -10.29083 -10.28002 -10.27422
 Alpha  occ. eigenvalues --  -10.26677 -10.26632 -10.26528 -10.26458 -10.26301
 Alpha  occ. eigenvalues --  -10.25895 -10.25542 -10.25042 -10.25023 -10.25021
 Alpha  occ. eigenvalues --  -10.24744 -10.24743 -10.24524 -10.24494 -10.24350
 Alpha  occ. eigenvalues --  -10.24221 -10.24088 -10.24069 -10.23566 -10.23402
 Alpha  occ. eigenvalues --  -10.23356 -10.23348 -10.23178 -10.23162 -10.22698
 Alpha  occ. eigenvalues --  -10.22594 -10.22558 -10.22362 -10.22208 -10.22199
 Alpha  occ. eigenvalues --  -10.22180 -10.22135 -10.22112 -10.21962 -10.21885
 Alpha  occ. eigenvalues --  -10.21650 -10.21414 -10.21186 -10.20946 -10.20928
 Alpha  occ. eigenvalues --  -10.20824 -10.20752 -10.20588 -10.20125 -10.20023
 Alpha  occ. eigenvalues --  -10.18367  -3.09033  -1.83959  -1.83493  -1.83473
 Alpha  occ. eigenvalues --   -1.15606  -1.15532  -1.07041  -1.06296  -1.05581
 Alpha  occ. eigenvalues --   -1.04825  -1.03925  -1.00952  -0.99398  -0.98589
 Alpha  occ. eigenvalues --   -0.96088  -0.88203  -0.87249  -0.86657  -0.86501
 Alpha  occ. eigenvalues --   -0.85634  -0.84595  -0.84571  -0.83677  -0.83368
 Alpha  occ. eigenvalues --   -0.83255  -0.82823  -0.82113  -0.80582  -0.79986
 Alpha  occ. eigenvalues --   -0.79782  -0.78585  -0.78058  -0.77468  -0.77072
 Alpha  occ. eigenvalues --   -0.75804  -0.75180  -0.74396  -0.73049  -0.72949
 Alpha  occ. eigenvalues --   -0.72432  -0.70860  -0.70631  -0.70459  -0.70201
 Alpha  occ. eigenvalues --   -0.69542  -0.68679  -0.68204  -0.67435  -0.66493
 Alpha  occ. eigenvalues --   -0.65977  -0.64886  -0.63917  -0.62541  -0.61995
 Alpha  occ. eigenvalues --   -0.61783  -0.60473  -0.60299  -0.59282  -0.59111
 Alpha  occ. eigenvalues --   -0.58306  -0.58230  -0.57840  -0.57252  -0.56963
 Alpha  occ. eigenvalues --   -0.56608  -0.56040  -0.55654  -0.55399  -0.55075
 Alpha  occ. eigenvalues --   -0.53998  -0.53603  -0.53347  -0.52927  -0.52766
 Alpha  occ. eigenvalues --   -0.52261  -0.51850  -0.51682  -0.51459  -0.51310
 Alpha  occ. eigenvalues --   -0.50822  -0.49888  -0.49820  -0.49610  -0.49186
 Alpha  occ. eigenvalues --   -0.49007  -0.48469  -0.48269  -0.48050  -0.47994
 Alpha  occ. eigenvalues --   -0.47828  -0.47661  -0.47584  -0.47232  -0.47150
 Alpha  occ. eigenvalues --   -0.46698  -0.46624  -0.46344  -0.46072  -0.45948
 Alpha  occ. eigenvalues --   -0.45760  -0.45489  -0.45209  -0.45142  -0.44876
 Alpha  occ. eigenvalues --   -0.44770  -0.44440  -0.44387  -0.44196  -0.44044
 Alpha  occ. eigenvalues --   -0.43726  -0.43426  -0.43387  -0.43068  -0.42773
 Alpha  occ. eigenvalues --   -0.42470  -0.42185  -0.42099  -0.42012  -0.41667
 Alpha  occ. eigenvalues --   -0.41536  -0.41437  -0.41300  -0.41047  -0.40881
 Alpha  occ. eigenvalues --   -0.40610  -0.40563  -0.40393  -0.40271  -0.39964
 Alpha  occ. eigenvalues --   -0.39812  -0.39731  -0.39524  -0.39268  -0.38994
 Alpha  occ. eigenvalues --   -0.38882  -0.38610  -0.38522  -0.38163  -0.37972
 Alpha  occ. eigenvalues --   -0.37865  -0.37508  -0.37310  -0.36915  -0.36788
 Alpha  occ. eigenvalues --   -0.36461  -0.36094  -0.35639  -0.35409  -0.35177
 Alpha  occ. eigenvalues --   -0.35078  -0.35048  -0.34977  -0.34612  -0.34443
 Alpha  occ. eigenvalues --   -0.34279  -0.33963  -0.33853  -0.33347  -0.33072
 Alpha  occ. eigenvalues --   -0.32928  -0.32822  -0.32275  -0.32198  -0.31915
 Alpha  occ. eigenvalues --   -0.31340  -0.31232  -0.30170  -0.29857  -0.29674
 Alpha  occ. eigenvalues --   -0.29047  -0.28335  -0.28012  -0.27904  -0.27631
 Alpha  occ. eigenvalues --   -0.27524  -0.26328  -0.23246  -0.21623
 Alpha virt. eigenvalues --   -0.09310  -0.06194  -0.00931  -0.00859   0.00315
 Alpha virt. eigenvalues --    0.02195   0.03612   0.03819   0.04236   0.04504
 Alpha virt. eigenvalues --    0.04685   0.06046   0.08194   0.08313   0.09711

 Mulliken charges:
               1
     1  Mg   0.811818
     2  C    0.124870
     3  C   -0.202145
     4  C   -0.188961
     5  C   -0.108623
     6  N   -0.621315
     7  C    0.240750
     8  C   -0.135684
     9  C   -0.153343
    10  C    0.341412
    11  C   -0.307147
    12  C   -0.186403
    13  C   -0.235882
    14  C    0.578598
    15  O   -0.485431
    16  O   -0.417682
    17  N   -0.716170
    18  C    0.317427
    19  C    0.038344
    20  C   -0.007454
    21  C    0.299426
    22  C   -0.362001
    23  C    0.247175
    24  O   -0.414513
    25  N   -0.688074
    26  C    0.321787
    27  C   -0.043888
    28  C    0.012046
    29  C    0.265496
    30  C    0.272832
    31  C   -0.238657
    32  C   -0.289496
    33  N   -0.720226
    34  C    0.255258
    35  C    0.011035
    36  C    0.020930
    37  C    0.294870
    38  C   -0.382747
    39  C    0.365572
    40  O   -0.469184
    41  C   -0.335794
    42  C    0.589978
    43  O   -0.425612
    44  O   -0.437965
    45  C   -0.081149
    46  C    0.018286
    47  C   -0.162627
    48  C    0.159259
    49  C   -0.401403
    50  C   -0.214894
    51  C   -0.169922
    52  C   -0.169210
    53  C   -0.064669
    54  C   -0.298139
    55  C   -0.159673
    56  C   -0.176371
    57  C   -0.188942
    58  C   -0.025567
    59  C   -0.281746
    60  C   -0.168095
    61  C   -0.175082
    62  C   -0.140963
    63  C   -0.052392
    64  C   -0.302158
    65  C   -0.304194
    66  H    0.079447
    67  H    0.143944
    68  H    0.074880
    69  H    0.131009
    70  H    0.116440
    71  H    0.095023
    72  H    0.112566
    73  H    0.132981
    74  H    0.129094
    75  H    0.130093
    76  H    0.120140
    77  H    0.137164
    78  H    0.108960
    79  H    0.151601
    80  H    0.107930
    81  H    0.087750
    82  H    0.125873
    83  H    0.110198
    84  H    0.101178
    85  H    0.133057
    86  H    0.102731
    87  H    0.120743
    88  H    0.153065
    89  H    0.138263
    90  H    0.157223
    91  H    0.071601
    92  H    0.128744
    93  H    0.072361
    94  H    0.146493
    95  H    0.079588
    96  H    0.139647
    97  H    0.104275
    98  H    0.097430
    99  H    0.071815
   100  H    0.078927
   101  H    0.081670
   102  H    0.086612
   103  H    0.075387
   104  H    0.111825
   105  H    0.084129
   106  H    0.095423
   107  H    0.076915
   108  H    0.102919
   109  H    0.090544
   110  H    0.103786
   111  H    0.097801
   112  H    0.090967
   113  H    0.095531
   114  H    0.025807
   115  H    0.091210
   116  H    0.124069
   117  H    0.053038
   118  H    0.064143
   119  H    0.097095
   120  H    0.077928
   121  H    0.084283
   122  H    0.068167
   123  H    0.072505
   124  H    0.094501
   125  H    0.084670
   126  H    0.096832
   127  H    0.091810
   128  H    0.111218
   129  H    0.109164
   130  H    0.136614
   131  H    0.117023
   132  H    0.124857
   133  O   -0.451773
   134  H    0.065518
 Sum of Mulliken charges =   0.00000

 Dipole moment (field-independent basis, Debye):
    X=              0.5676    Y=             -3.8408    Z=             -1.7228  Tot=              4.2476
 Quadrupole moment (field-independent basis, Debye-Ang):
   XX=           -369.4138   YY=           -436.5557   ZZ=           -392.1714
   XY=              3.2519   XZ=             24.5619   YZ=            -38.4163

 Normal termination of Gaussian 09 at Wed Oct  9 01:36:23 2019.
