 Gaussian 09, Revision D.01,
 Gaussian 09:  ES64L-G09RevD.01 24-Apr-2013

 ----------------------------------------------------------------------
 # td=(NStates=1) iop(3/107=0140000000,3/108=0140000000) iop(3/107=0140
 000000,3/108=0140000000) CAM-B3LYP/6-31G(d,p)
 ----------------------------------------------------------------------

 --
 TD
 --
 Symbolic Z-matrix:
 Charge =  0 Multiplicity = 1

                         Standard orientation:
 ---------------------------------------------------------------------
 Center     Atomic      Atomic             Coordinates (Angstroms)
 Number     Number       Type             X           Y           Z
 ---------------------------------------------------------------------
      1         12           0       -5.643896    1.229386    0.266771
      2          6           0       -5.104109   -2.184803   -0.255020
      3          6           0       -3.370660    1.244642    2.696107
      4          6           0       -6.060708    4.542625    0.593084
      5          6           0       -8.025018    1.148858   -2.311462
      6          7           0       -4.324825   -0.183378    0.972346
      7          6           0       -4.236700   -1.587982    0.650853
      8          6           0       -3.277054   -2.221336    1.491380
      9          6           0       -2.965258   -1.331262    2.555951
     10          6           0       -3.499347    0.014986    2.039049
     11          6           0       -3.556131   -1.747243    3.945578
     12          6           0       -1.979005   -2.673963    0.726549
     13          6           0       -0.963769   -3.518123    1.486617
     14          6           0        0.187118   -3.761704    0.639033
     15          8           0        0.487712   -3.286294   -0.470641
     16          8           0        0.877467   -4.783548    1.283446
     17          7           0       -4.946932    2.715517    1.455432
     18          6           0       -4.039703    2.464693    2.438935
     19          6           0       -3.670511    3.710679    3.067360
     20          6           0       -4.442551    4.734488    2.555708
     21          6           0       -5.217167    4.019610    1.470258
     22          6           0       -2.643886    3.906336    4.215141
     23          6           0       -4.367797    6.148368    2.781909
     24          8           0       -3.695140    6.759996    3.590242
     25          7           0       -6.874006    2.538554   -0.639819
     26          6           0       -6.912488    3.970006   -0.406570
     27          6           0       -7.905023    4.626939   -1.125656
     28          6           0       -8.436381    3.608995   -2.044438
     29          6           0       -7.813937    2.386001   -1.741528
     30          6           0       -8.371352    5.981928   -1.129489
     31          6           0       -9.362896    3.771325   -3.165602
     32          6           0       -8.800161    3.866011   -4.579119
     33          7           0       -6.389795   -0.137493   -1.052359
     34          6           0       -7.403258   -0.090875   -1.999456
     35          6           0       -7.563094   -1.346693   -2.672638
     36          6           0       -6.739967   -2.184678   -2.017328
     37          6           0       -6.006794   -1.394037   -1.081852
     38          6           0       -8.551676   -1.616816   -3.747955
     39          6           0       -6.262750   -3.530824   -1.900307
     40          8           0       -6.709861   -4.610394   -2.431344
     41          6           0       -5.133507   -3.585229   -0.829009
     42          6           0       -5.278730   -4.655171    0.205871
     43          8           0       -5.646073   -4.634614    1.364890
     44          8           0       -5.038131   -5.753892   -0.414779
     45          6           0       -5.271435   -7.017699    0.266119
     46          6           0        2.301013   -5.179770    0.826419
     47          6           0        3.403971   -4.147567    1.151514
     48          6           0        3.960274   -3.287204    0.235820
     49          6           0        3.553049   -3.164255   -1.171564
     50          6           0        5.090521   -2.406851    0.657772
     51          6           0        6.512270   -2.768862    0.155880
     52          6           0        7.601452   -1.662781    0.514630
     53          6           0        9.026307   -1.935888   -0.113385
     54          6           0        9.522485   -3.357257    0.033470
     55          6           0       10.016243   -0.893072    0.479092
     56          6           0       11.273029   -0.863658   -0.316386
     57          6           0       12.211499    0.255849    0.067856
     58          6           0       13.611678    0.367781   -0.842503
     59          6           0       14.512145   -0.864344   -0.628462
     60          6           0       14.213073    1.693060   -0.210186
     61          6           0       15.492433    1.987637   -0.892842
     62          6           0       16.044194    3.464990   -0.524111
     63          6           0       17.313080    3.896341   -1.283819
     64          6           0       17.103385    3.999513   -2.871293
     65          6           0       18.019594    5.251285   -0.731266
     66          1           0       -2.656009    1.265257    3.515086
     67          1           0       -6.199815    5.682600    0.672310
     68          1           0       -8.744770    1.061613   -3.222292
     69          1           0       -3.745448   -3.168143    1.753399
     70          1           0       -1.921083   -1.088092    2.658298
     71          1           0       -3.217438   -2.804768    4.268713
     72          1           0       -3.316232   -1.124077    4.842720
     73          1           0       -4.719831   -1.731640    3.873713
     74          1           0       -2.410212   -3.419901   -0.025436
     75          1           0       -1.467045   -2.000514    0.246103
     76          1           0       -0.726508   -3.097311    2.300301
     77          1           0       -1.505113   -4.575747    1.890825
     78          1           0       -1.667630    3.449755    4.005289
     79          1           0       -2.647835    5.031033    4.360105
     80          1           0       -2.984036    3.514951    5.199244
     81          1           0       -4.983491    6.814080    2.002888
     82          1           0      -10.117498    3.187472   -3.215735
     83          1           0      -10.085722    4.592638   -3.067124
     84          1           0       -9.720537    4.125088   -5.233012
     85          1           0       -7.921657    4.494857   -4.554997
     86          1           0       -8.339149    2.824586   -4.845977
     87          1           0       -8.021875   -1.163123   -4.768942
     88          1           0       -8.493467   -2.731055   -4.116071
     89          1           0       -9.533668   -1.277341   -3.594429
     90          1           0       -4.240152   -3.990682   -1.416918
     91          1           0        2.403463   -6.073305    1.284082
     92          1           0        1.911425   -5.208195   -0.301774
     93          1           0        3.663945   -4.113684    2.102938
     94          1           0        2.668946   -3.487346   -1.334913
     95          1           0        3.636275   -2.165197   -1.439224
     96          1           0        4.105289   -3.807638   -1.950593
     97          1           0        4.841864   -1.275006    0.271424
     98          1           0        5.111551   -2.223072    1.717163
     99          1           0        6.897705   -3.800977    0.360663
    100          1           0        6.337136   -2.874814   -0.949763
    101          1           0        7.298310   -0.750822    0.383458
    102          1           0        7.598486   -1.727072    1.717044
    103          1           0        8.895739   -1.664804   -1.058329
    104          1           0        8.737670   -3.989017   -0.599798
    105          1           0       10.721301   -3.509539   -0.347941
    106          1           0        9.502470   -3.820247    1.156424
    107          1           0        9.470474    0.177003    0.443480
    108          1           0       10.355241   -1.109575    1.512675
    109          1           0       11.822721   -1.885576   -0.044849
    110          1           0       10.955645   -0.779354   -1.390333
    111          1           0       11.757473    1.312886   -0.166311
    112          1           0       12.572467    0.142932    1.167631
    113          1           0       13.428434    0.410109   -1.844583
    114          1           0       14.734487   -1.229407    0.554200
    115          1           0       14.237595   -1.722449   -1.108125
    116          1           0       15.463625   -0.863486   -0.942947
    117          1           0       13.586361    2.523762   -0.401690
    118          1           0       14.245097    1.369742    0.924075
    119          1           0       16.370173    1.404698   -0.799333
    120          1           0       15.455220    2.168260   -1.969618
    121          1           0       15.277018    4.235268   -0.741105
    122          1           0       16.131796    3.572226    0.660410
    123          1           0       18.106710    2.960826   -1.233778
    124          1           0       16.430685    4.820861   -3.043692
    125          1           0       18.164408    4.171901   -3.203308
    126          1           0       16.666581    3.106389   -3.174466
    127          1           0       18.181487    5.181304    0.448376
    128          1           0       18.845352    5.468123   -1.353340
    129          1           0       17.095605    6.080704   -0.678511
    130          1           0       -4.685626   -7.881281   -0.217876
    131          1           0       -6.341501   -7.069098    0.330657
    132          1           0       -4.636869   -7.265620    1.302212
    133          8           0       -7.826346    6.950440   -0.461208
    134          1           0       -9.173345    6.401455   -1.732355
 ---------------------------------------------------------------------

 SCF Done:  E(RCAM-B3LYP) =  -3043.42158439     A.U. after   16 cycles

 Excitation energies and oscillator strengths:

 Excited State   1:      Singlet-A      2.1123 eV  586.97 nm  f=0.1083  <S**2>=0.000
     243 -> 246        0.32271
     244 -> 245        0.61435
 This state for optimization and/or second-order correction.
 Total Energy, E(TD-HF/TD-KS) =  -3043.34395939
 Copying the excited state density for this state as the 1-particle RhoCI density.

 The electronic state is 1-A.
 Alpha  occ. eigenvalues --  -46.80803 -19.23182 -19.20673 -19.17991 -19.17595
 Alpha  occ. eigenvalues --  -19.16576 -19.16419 -19.15750 -14.39002 -14.37090
 Alpha  occ. eigenvalues --  -14.36907 -14.36876 -10.35284 -10.34697 -10.31527
 Alpha  occ. eigenvalues --  -10.31022 -10.29850 -10.29415 -10.28146 -10.28141
 Alpha  occ. eigenvalues --  -10.27528 -10.27409 -10.27031 -10.26255 -10.26121
 Alpha  occ. eigenvalues --  -10.26050 -10.25934 -10.25874 -10.25426 -10.25398
 Alpha  occ. eigenvalues --  -10.25241 -10.25077 -10.24476 -10.24238 -10.24120
 Alpha  occ. eigenvalues --  -10.24064 -10.23955 -10.23923 -10.23884 -10.23670
 Alpha  occ. eigenvalues --  -10.23470 -10.23316 -10.23232 -10.23057 -10.22938
 Alpha  occ. eigenvalues --  -10.22832 -10.22762 -10.22643 -10.22401 -10.22389
 Alpha  occ. eigenvalues --  -10.22357 -10.22230 -10.22142 -10.21801 -10.21627
 Alpha  occ. eigenvalues --  -10.21576 -10.21495 -10.21409 -10.21342 -10.21339
 Alpha  occ. eigenvalues --  -10.21321 -10.21314 -10.20298 -10.20117 -10.19796
 Alpha  occ. eigenvalues --  -10.18993  -3.09572  -1.84495  -1.84028  -1.84017
 Alpha  occ. eigenvalues --   -1.15876  -1.10151  -1.07179  -1.04516  -1.03263
 Alpha  occ. eigenvalues --   -1.02758  -1.01853  -1.01502  -1.01229  -0.99659
 Alpha  occ. eigenvalues --   -0.96432  -0.88750  -0.87337  -0.86111  -0.85860
 Alpha  occ. eigenvalues --   -0.85131  -0.84958  -0.84333  -0.83907  -0.83636
 Alpha  occ. eigenvalues --   -0.83376  -0.82966  -0.81441  -0.80988  -0.79790
 Alpha  occ. eigenvalues --   -0.79642  -0.78288  -0.77772  -0.77502  -0.76450
 Alpha  occ. eigenvalues --   -0.75408  -0.74871  -0.74492  -0.73452  -0.72579
 Alpha  occ. eigenvalues --   -0.71849  -0.70851  -0.70176  -0.70073  -0.69711
 Alpha  occ. eigenvalues --   -0.69544  -0.68582  -0.67799  -0.67173  -0.66994
 Alpha  occ. eigenvalues --   -0.66828  -0.64804  -0.64676  -0.63119  -0.62693
 Alpha  occ. eigenvalues --   -0.61958  -0.60554  -0.60419  -0.59469  -0.59200
 Alpha  occ. eigenvalues --   -0.59063  -0.58771  -0.58364  -0.57243  -0.56641
 Alpha  occ. eigenvalues --   -0.56405  -0.56322  -0.55860  -0.55126  -0.54645
 Alpha  occ. eigenvalues --   -0.54200  -0.54111  -0.53727  -0.53268  -0.52639
 Alpha  occ. eigenvalues --   -0.52377  -0.51870  -0.51500  -0.51109  -0.50492
 Alpha  occ. eigenvalues --   -0.50436  -0.49727  -0.49500  -0.49344  -0.48875
 Alpha  occ. eigenvalues --   -0.48570  -0.48446  -0.48080  -0.47945  -0.47736
 Alpha  occ. eigenvalues --   -0.47535  -0.47459  -0.47189  -0.46930  -0.46530
 Alpha  occ. eigenvalues --   -0.46391  -0.46296  -0.46035  -0.45745  -0.45624
 Alpha  occ. eigenvalues --   -0.45513  -0.45318  -0.45134  -0.44837  -0.44688
 Alpha  occ. eigenvalues --   -0.44140  -0.44053  -0.43732  -0.43573  -0.43464
 Alpha  occ. eigenvalues --   -0.43346  -0.43100  -0.42958  -0.42808  -0.42714
 Alpha  occ. eigenvalues --   -0.42410  -0.42232  -0.42047  -0.41874  -0.41789
 Alpha  occ. eigenvalues --   -0.41540  -0.41304  -0.41124  -0.40992  -0.40801
 Alpha  occ. eigenvalues --   -0.40415  -0.40368  -0.40156  -0.40011  -0.39635
 Alpha  occ. eigenvalues --   -0.39513  -0.39434  -0.39203  -0.39083  -0.38944
 Alpha  occ. eigenvalues --   -0.38864  -0.38683  -0.38436  -0.38317  -0.38189
 Alpha  occ. eigenvalues --   -0.37942  -0.37766  -0.37539  -0.37248  -0.36940
 Alpha  occ. eigenvalues --   -0.36682  -0.36567  -0.36387  -0.36207  -0.36104
 Alpha  occ. eigenvalues --   -0.35871  -0.35603  -0.35377  -0.35078  -0.34940
 Alpha  occ. eigenvalues --   -0.34524  -0.34496  -0.33934  -0.33707  -0.33552
 Alpha  occ. eigenvalues --   -0.32861  -0.32702  -0.32115  -0.31794  -0.31644
 Alpha  occ. eigenvalues --   -0.31338  -0.31098  -0.30794  -0.29832  -0.29334
 Alpha  occ. eigenvalues --   -0.28954  -0.28853  -0.27895  -0.27540  -0.27359
 Alpha  occ. eigenvalues --   -0.27101  -0.26742  -0.23084  -0.22430
 Alpha virt. eigenvalues --   -0.08658  -0.07405  -0.01908  -0.01560   0.00046
 Alpha virt. eigenvalues --    0.01280   0.02247   0.02603   0.03710   0.04325
 Alpha virt. eigenvalues --    0.05039   0.05785   0.07500   0.08137   0.09331

 Mulliken charges:
               1
     1  Mg   0.814155
     2  C    0.072799
     3  C   -0.201880
     4  C   -0.232734
     5  C   -0.180195
     6  N   -0.642412
     7  C    0.327697
     8  C   -0.182665
     9  C   -0.119190
    10  C    0.328765
    11  C   -0.310868
    12  C   -0.179713
    13  C   -0.238780
    14  C    0.620155
    15  O   -0.481136
    16  O   -0.517190
    17  N   -0.713657
    18  C    0.344760
    19  C    0.019048
    20  C    0.029655
    21  C    0.345150
    22  C   -0.396572
    23  C    0.226962
    24  O   -0.410217
    25  N   -0.691370
    26  C    0.286826
    27  C    0.036799
    28  C    0.022393
    29  C    0.306461
    30  C    0.196827
    31  C   -0.254213
    32  C   -0.295929
    33  N   -0.696199
    34  C    0.244522
    35  C    0.050274
    36  C    0.089549
    37  C    0.271932
    38  C   -0.392609
    39  C    0.329260
    40  O   -0.497064
    41  C   -0.317851
    42  C    0.622309
    43  O   -0.492781
    44  O   -0.403513
    45  C   -0.080682
    46  C    0.007804
    47  C   -0.124283
    48  C    0.142389
    49  C   -0.348701
    50  C   -0.235044
    51  C   -0.183499
    52  C   -0.159416
    53  C   -0.030447
    54  C   -0.293579
    55  C   -0.159958
    56  C   -0.166527
    57  C   -0.160354
    58  C   -0.068913
    59  C   -0.308593
    60  C   -0.142360
    61  C   -0.186671
    62  C   -0.181410
    63  C   -0.056599
    64  C   -0.308849
    65  C   -0.294689
    66  H    0.080413
    67  H    0.130220
    68  H    0.097118
    69  H    0.137312
    70  H    0.111312
    71  H    0.110592
    72  H    0.112338
    73  H    0.121078
    74  H    0.095879
    75  H    0.130703
    76  H    0.145034
    77  H    0.118172
    78  H    0.121044
    79  H    0.160234
    80  H    0.128906
    81  H    0.073500
    82  H    0.122291
    83  H    0.100537
    84  H    0.106749
    85  H    0.126365
    86  H    0.091757
    87  H    0.107913
    88  H    0.147139
    89  H    0.141180
    90  H    0.169807
    91  H    0.125281
    92  H    0.119534
    93  H    0.079579
    94  H    0.146950
    95  H    0.116437
    96  H    0.100358
    97  H    0.071094
    98  H    0.099769
    99  H    0.101727
   100  H    0.087374
   101  H    0.101726
   102  H    0.064070
   103  H    0.103696
   104  H    0.090246
   105  H    0.081291
   106  H    0.090210
   107  H    0.060899
   108  H    0.088572
   109  H    0.082222
   110  H    0.081275
   111  H    0.074375
   112  H    0.081172
   113  H    0.093153
   114  H    0.053784
   115  H    0.110173
   116  H    0.113236
   117  H    0.099713
   118  H    0.086301
   119  H    0.107465
   120  H    0.091946
   121  H    0.079927
   122  H    0.065479
   123  H    0.048533
   124  H    0.107511
   125  H    0.100144
   126  H    0.112302
   127  H    0.095778
   128  H    0.114118
   129  H    0.074167
   130  H    0.125433
   131  H    0.153199
   132  H    0.099843
   133  O   -0.458876
   134  H    0.094036
 Sum of Mulliken charges =   0.00000

 Dipole moment (field-independent basis, Debye):
    X=              2.3681    Y=             -5.8918    Z=             -1.2805  Tot=              6.4777
 Quadrupole moment (field-independent basis, Debye-Ang):
   XX=           -380.4153   YY=           -448.4347   ZZ=           -389.9435
   XY=              4.3669   XZ=             16.9995   YZ=            -31.1004

 Normal termination of Gaussian 09 at Mon Oct  7 08:46:05 2019.
