 Gaussian 09, Revision D.01,
 Gaussian 09:  ES64L-G09RevD.01 24-Apr-2013

 ----------------------------------------------------------------------
 # td=(NStates=1) iop(3/107=0140000000,3/108=0140000000) iop(3/107=0140
 000000,3/108=0140000000) CAM-B3LYP/6-31G(d,p)
 ----------------------------------------------------------------------

 --
 TD
 --
 Symbolic Z-matrix:
 Charge =  0 Multiplicity = 1

                         Standard orientation:
 ---------------------------------------------------------------------
 Center     Atomic      Atomic             Coordinates (Angstroms)
 Number     Number       Type             X           Y           Z
 ---------------------------------------------------------------------
      1         12           0       -5.424336    1.236298    0.152845
      2          6           0       -4.923553   -2.142067   -0.279532
      3          6           0       -3.408989    1.213587    2.725063
      4          6           0       -6.109354    4.563704    0.470526
      5          6           0       -7.923743    1.224792   -2.430783
      6          7           0       -4.236295   -0.306905    1.043195
      7          6           0       -4.231356   -1.555286    0.708322
      8          6           0       -3.259453   -2.328660    1.525708
      9          6           0       -2.916456   -1.332581    2.666226
     10          6           0       -3.554050   -0.068466    2.187322
     11          6           0       -3.368537   -1.838166    4.008472
     12          6           0       -1.915664   -2.787742    0.672639
     13          6           0       -0.945840   -3.654330    1.382995
     14          6           0        0.296068   -3.919588    0.564215
     15          8           0        0.599750   -3.456375   -0.526458
     16          8           0        1.076353   -4.932753    1.151028
     17          7           0       -4.885409    2.680557    1.386819
     18          6           0       -3.995218    2.488021    2.449804
     19          6           0       -3.709330    3.711783    3.196708
     20          6           0       -4.555663    4.691886    2.505381
     21          6           0       -5.240153    3.987618    1.369934
     22          6           0       -2.864804    3.853476    4.363535
     23          6           0       -4.800333    6.143663    2.967033
     24          8           0       -4.117491    6.689554    3.843875
     25          7           0       -6.686275    2.703945   -0.782838
     26          6           0       -6.896565    3.941840   -0.449876
     27          6           0       -7.983091    4.556404   -1.219431
     28          6           0       -8.340549    3.702736   -2.155474
     29          6           0       -7.539641    2.443915   -1.848078
     30          6           0       -8.344698    5.971865   -1.030613
     31          6           0       -9.399365    3.776875   -3.196683
     32          6           0       -8.730794    3.985208   -4.525883
     33          7           0       -6.394538   -0.139977   -1.134755
     34          6           0       -7.252972   -0.015949   -2.102114
     35          6           0       -7.463093   -1.324444   -2.687119
     36          6           0       -6.569679   -2.123072   -2.021990
     37          6           0       -5.857703   -1.393621   -1.128201
     38          6           0       -8.416441   -1.696169   -3.758479
     39          6           0       -6.030404   -3.610299   -1.949686
     40          8           0       -6.400371   -4.566187   -2.516846
     41          6           0       -4.921767   -3.617404   -0.853555
     42          6           0       -5.362166   -4.669627    0.176314
     43          8           0       -5.827972   -4.442695    1.296505
     44          8           0       -4.944793   -5.877705   -0.293005
     45          6           0       -5.351102   -6.975891    0.528899
     46          6           0        2.353976   -5.250948    0.616170
     47          6           0        3.404178   -4.215021    1.016417
     48          6           0        4.070536   -3.337492    0.153923
     49          6           0        3.718200   -3.213197   -1.255597
     50          6           0        5.126232   -2.466853    0.638730
     51          6           0        6.463449   -2.717618   -0.023720
     52          6           0        7.647859   -1.928185    0.477670
     53          6           0        8.988643   -2.026065   -0.133340
     54          6           0        9.592324   -3.322863    0.150653
     55          6           0        9.922017   -0.784580    0.335931
     56          6           0       11.239333   -0.889116   -0.304766
     57          6           0       12.147311    0.231899    0.201069
     58          6           0       13.512860    0.449036   -0.542987
     59          6           0       14.351222   -0.769970   -0.361890
     60          6           0       14.063595    1.793583   -0.100345
     61          6           0       15.295497    2.267321   -0.962348
     62          6           0       15.803314    3.640028   -0.531359
     63          6           0       17.048909    4.082676   -1.317733
     64          6           0       16.920110    4.206796   -2.905616
     65          6           0       17.569687    5.428698   -0.772195
     66          1           0       -2.705592    1.097795    3.409763
     67          1           0       -6.382669    5.627614    0.676127
     68          1           0       -8.709038    1.252244   -3.209992
     69          1           0       -3.695010   -3.347060    1.817473
     70          1           0       -1.935272   -1.194402    2.712951
     71          1           0       -2.654893   -2.708186    4.358401
     72          1           0       -3.349054   -0.903602    4.814495
     73          1           0       -4.332038   -2.128252    3.937898
     74          1           0       -2.268564   -3.331426   -0.200079
     75          1           0       -1.517412   -1.713970    0.099348
     76          1           0       -0.611656   -3.243296    2.329677
     77          1           0       -1.393468   -4.660061    1.604987
     78          1           0       -1.764369    3.496649    4.275453
     79          1           0       -2.935471    4.969571    4.582734
     80          1           0       -3.357268    3.346989    5.248787
     81          1           0       -5.654715    6.624969    2.484351
     82          1           0       -9.988918    2.717724   -3.378633
     83          1           0       -9.949741    4.555159   -3.021330
     84          1           0       -9.426333    3.914883   -5.218247
     85          1           0       -8.291390    4.901091   -4.333225
     86          1           0       -8.081280    3.334560   -5.010077
     87          1           0       -8.317797   -0.927607   -4.726302
     88          1           0       -8.410139   -2.771959   -3.991990
     89          1           0       -9.487471   -1.415899   -3.325130
     90          1           0       -4.071585   -3.894426   -1.215821
     91          1           0        2.685935   -6.299142    1.056235
     92          1           0        2.407293   -5.261537   -0.527835
     93          1           0        3.590199   -4.078696    2.096423
     94          1           0        2.608439   -3.775620   -1.457077
     95          1           0        3.729668   -2.192538   -1.691402
     96          1           0        4.512918   -3.925350   -1.803409
     97          1           0        4.945540   -1.382064    0.422971
     98          1           0        5.193796   -2.359621    1.618635
     99          1           0        6.644809   -3.712166    0.124224
    100          1           0        6.294565   -2.521723   -0.984295
    101          1           0        7.309258   -0.872360    0.406987
    102          1           0        7.868904   -2.124153    1.703214
    103          1           0        8.894345   -1.992011   -1.280827
    104          1           0        8.987571   -4.174210   -0.420941
    105          1           0       10.639360   -3.466566   -0.315589
    106          1           0        9.574287   -3.560184    1.249696
    107          1           0        9.243706    0.274379    0.301206
    108          1           0       10.046706   -1.020152    1.511694
    109          1           0       11.736603   -1.852987   -0.199365
    110          1           0       11.208736   -0.786330   -1.286651
    111          1           0       11.578218    1.267343    0.053081
    112          1           0       12.484817    0.188950    1.187653
    113          1           0       13.360977    0.482388   -1.655579
    114          1           0       14.747061   -0.784716    0.652011
    115          1           0       13.911314   -1.591356   -0.689152
    116          1           0       15.322051   -0.604851   -0.817208
    117          1           0       13.260092    2.425753   -0.060485
    118          1           0       14.322994    1.632123    0.995718
    119          1           0       16.183205    1.613786   -0.827614
    120          1           0       15.031517    2.291156   -2.122494
    121          1           0       14.952262    4.352567   -0.684653
    122          1           0       16.196930    3.445188    0.605286
    123          1           0       17.833818    3.230068   -1.097629
    124          1           0       16.037840    4.691073   -3.317938
    125          1           0       17.871197    4.717488   -3.318917
    126          1           0       16.739880    3.139052   -3.295907
    127          1           0       17.902665    5.164505    0.373201
    128          1           0       18.575470    5.771826   -1.149688
    129          1           0       16.704907    6.204798   -0.519007
    130          1           0       -4.916761   -7.940020    0.125083
    131          1           0       -6.443049   -6.935508    0.671925
    132          1           0       -4.961443   -6.872587    1.570631
    133          8           0       -7.881945    6.794154   -0.307146
    134          1           0       -9.162806    6.239222   -1.790137
 ---------------------------------------------------------------------

 SCF Done:  E(RCAM-B3LYP) =  -3043.48041039     A.U. after   15 cycles

 Excitation energies and oscillator strengths:

 Excited State   1:      Singlet-A      2.0080 eV  617.46 nm  f=0.2339  <S**2>=0.000
     243 -> 246        0.24342
     244 -> 245        0.65651
 This state for optimization and/or second-order correction.
 Total Energy, E(TD-HF/TD-KS) =  -3043.40661927
 Copying the excited state density for this state as the 1-particle RhoCI density.

 The electronic state is 1-A.
 Alpha  occ. eigenvalues --  -46.82193 -19.23905 -19.21829 -19.18557 -19.18467
 Alpha  occ. eigenvalues --  -19.18179 -19.18171 -19.17432 -14.38418 -14.36927
 Alpha  occ. eigenvalues --  -14.36686 -14.35676 -10.36307 -10.36038 -10.32136
 Alpha  occ. eigenvalues --  -10.31367 -10.30910 -10.28603 -10.28216 -10.27176
 Alpha  occ. eigenvalues --  -10.27054 -10.26508 -10.26369 -10.25765 -10.25298
 Alpha  occ. eigenvalues --  -10.25292 -10.25201 -10.25104 -10.25085 -10.24764
 Alpha  occ. eigenvalues --  -10.24737 -10.24671 -10.24618 -10.24301 -10.24183
 Alpha  occ. eigenvalues --  -10.24177 -10.24162 -10.23824 -10.23267 -10.23246
 Alpha  occ. eigenvalues --  -10.23190 -10.23020 -10.22932 -10.22799 -10.22654
 Alpha  occ. eigenvalues --  -10.22547 -10.22397 -10.22195 -10.22090 -10.22017
 Alpha  occ. eigenvalues --  -10.21980 -10.21918 -10.21754 -10.21724 -10.21442
 Alpha  occ. eigenvalues --  -10.21361 -10.21306 -10.20989 -10.20512 -10.20375
 Alpha  occ. eigenvalues --  -10.20335 -10.19783 -10.19654 -10.19553 -10.19040
 Alpha  occ. eigenvalues --  -10.18272  -3.10608  -1.85560  -1.85068  -1.85014
 Alpha  occ. eigenvalues --   -1.14041  -1.12144  -1.10330  -1.09571  -1.05620
 Alpha  occ. eigenvalues --   -1.05283  -1.04527  -1.02331  -1.01329  -1.00710
 Alpha  occ. eigenvalues --   -0.98352  -0.88160  -0.87375  -0.86945  -0.85979
 Alpha  occ. eigenvalues --   -0.85637  -0.84792  -0.84372  -0.83891  -0.82795
 Alpha  occ. eigenvalues --   -0.82677  -0.82298  -0.81865  -0.81091  -0.80609
 Alpha  occ. eigenvalues --   -0.80352  -0.78434  -0.77718  -0.77509  -0.76245
 Alpha  occ. eigenvalues --   -0.75456  -0.74318  -0.73518  -0.73301  -0.71777
 Alpha  occ. eigenvalues --   -0.71502  -0.70810  -0.70016  -0.69598  -0.69333
 Alpha  occ. eigenvalues --   -0.68817  -0.68534  -0.67856  -0.66847  -0.66144
 Alpha  occ. eigenvalues --   -0.65576  -0.64574  -0.64015  -0.62818  -0.62179
 Alpha  occ. eigenvalues --   -0.61826  -0.60971  -0.60546  -0.60131  -0.58696
 Alpha  occ. eigenvalues --   -0.58547  -0.58489  -0.57382  -0.57157  -0.56633
 Alpha  occ. eigenvalues --   -0.56035  -0.55678  -0.55548  -0.55204  -0.54973
 Alpha  occ. eigenvalues --   -0.54770  -0.53971  -0.52952  -0.52628  -0.52615
 Alpha  occ. eigenvalues --   -0.52340  -0.52030  -0.51455  -0.51389  -0.51273
 Alpha  occ. eigenvalues --   -0.50776  -0.50685  -0.50120  -0.49903  -0.49411
 Alpha  occ. eigenvalues --   -0.49279  -0.48762  -0.48615  -0.48245  -0.47792
 Alpha  occ. eigenvalues --   -0.47495  -0.47301  -0.47196  -0.47024  -0.46905
 Alpha  occ. eigenvalues --   -0.46695  -0.46490  -0.46257  -0.46168  -0.46102
 Alpha  occ. eigenvalues --   -0.45861  -0.45708  -0.45530  -0.45488  -0.45178
 Alpha  occ. eigenvalues --   -0.44703  -0.44431  -0.44309  -0.44139  -0.43886
 Alpha  occ. eigenvalues --   -0.43470  -0.43301  -0.43169  -0.42947  -0.42853
 Alpha  occ. eigenvalues --   -0.42580  -0.42472  -0.42300  -0.42122  -0.41954
 Alpha  occ. eigenvalues --   -0.41804  -0.41673  -0.41581  -0.41371  -0.41277
 Alpha  occ. eigenvalues --   -0.40924  -0.40657  -0.40644  -0.40485  -0.40380
 Alpha  occ. eigenvalues --   -0.40369  -0.39976  -0.39893  -0.39698  -0.39556
 Alpha  occ. eigenvalues --   -0.39218  -0.38924  -0.38644  -0.38398  -0.38341
 Alpha  occ. eigenvalues --   -0.38285  -0.38046  -0.37397  -0.37214  -0.36953
 Alpha  occ. eigenvalues --   -0.36796  -0.36138  -0.36106  -0.35987  -0.35638
 Alpha  occ. eigenvalues --   -0.35058  -0.35018  -0.34925  -0.34258  -0.34205
 Alpha  occ. eigenvalues --   -0.34044  -0.34033  -0.33714  -0.33609  -0.33483
 Alpha  occ. eigenvalues --   -0.33109  -0.32764  -0.32296  -0.32018  -0.31928
 Alpha  occ. eigenvalues --   -0.31593  -0.31284  -0.30825  -0.30157  -0.29827
 Alpha  occ. eigenvalues --   -0.29615  -0.28579  -0.28001  -0.27769  -0.27295
 Alpha  occ. eigenvalues --   -0.27064  -0.25576  -0.22532  -0.21185
 Alpha virt. eigenvalues --   -0.08485  -0.05668  -0.01068  -0.00297   0.00515
 Alpha virt. eigenvalues --    0.02386   0.02672   0.03030   0.03216   0.04518
 Alpha virt. eigenvalues --    0.05049   0.05902   0.07410   0.08479   0.09172

 Mulliken charges:
               1
     1  Mg   0.835866
     2  C    0.054227
     3  C   -0.173789
     4  C   -0.203642
     5  C   -0.146835
     6  N   -0.654740
     7  C    0.361416
     8  C   -0.181083
     9  C   -0.130825
    10  C    0.304688
    11  C   -0.286537
    12  C   -0.177493
    13  C   -0.260734
    14  C    0.605902
    15  O   -0.449410
    16  O   -0.474770
    17  N   -0.737168
    18  C    0.304637
    19  C    0.098358
    20  C   -0.095722
    21  C    0.350313
    22  C   -0.415129
    23  C    0.259494
    24  O   -0.421757
    25  N   -0.656575
    26  C    0.327619
    27  C   -0.013991
    28  C    0.027692
    29  C    0.261903
    30  C    0.267593
    31  C   -0.235313
    32  C   -0.304829
    33  N   -0.709970
    34  C    0.294554
    35  C   -0.015875
    36  C    0.000421
    37  C    0.270788
    38  C   -0.379779
    39  C    0.382901
    40  O   -0.411106
    41  C   -0.279545
    42  C    0.616948
    43  O   -0.471988
    44  O   -0.432875
    45  C   -0.096269
    46  C    0.010003
    47  C   -0.156261
    48  C    0.172587
    49  C   -0.376308
    50  C   -0.228489
    51  C   -0.168825
    52  C   -0.150427
    53  C   -0.048894
    54  C   -0.293546
    55  C   -0.149828
    56  C   -0.167354
    57  C   -0.172332
    58  C   -0.074714
    59  C   -0.301402
    60  C   -0.160270
    61  C   -0.174794
    62  C   -0.154661
    63  C   -0.031119
    64  C   -0.313294
    65  C   -0.298542
    66  H    0.057431
    67  H    0.123164
    68  H    0.088356
    69  H    0.113319
    70  H    0.115897
    71  H    0.097218
    72  H    0.079114
    73  H    0.141316
    74  H    0.115966
    75  H    0.092198
    76  H    0.145135
    77  H    0.148155
    78  H    0.120130
    79  H    0.164271
    80  H    0.128097
    81  H    0.100416
    82  H    0.094096
    83  H    0.114230
    84  H    0.112987
    85  H    0.116003
    86  H    0.120392
    87  H    0.098300
    88  H    0.146380
    89  H    0.109090
    90  H    0.157057
    91  H    0.109237
    92  H    0.105355
    93  H    0.077090
    94  H    0.126465
    95  H    0.119555
    96  H    0.097819
    97  H    0.083520
    98  H    0.098346
    99  H    0.104125
   100  H    0.108011
   101  H    0.075975
   102  H    0.043802
   103  H    0.069809
   104  H    0.085168
   105  H    0.091069
   106  H    0.097919
   107  H    0.071608
   108  H    0.069705
   109  H    0.100776
   110  H    0.108746
   111  H    0.060675
   112  H    0.095526
   113  H    0.066265
   114  H    0.090070
   115  H    0.109747
   116  H    0.095630
   117  H    0.099777
   118  H    0.075059
   119  H    0.091929
   120  H    0.076449
   121  H    0.089418
   122  H    0.074511
   123  H    0.072544
   124  H    0.107572
   125  H    0.097107
   126  H    0.090218
   127  H    0.064486
   128  H    0.104445
   129  H    0.099184
   130  H    0.127596
   131  H    0.139067
   132  H    0.123779
   133  O   -0.399550
   134  H    0.036573
 Sum of Mulliken charges =   0.00000

 Dipole moment (field-independent basis, Debye):
    X=              0.7770    Y=             -4.6051    Z=             -1.5736  Tot=              4.9282
 Quadrupole moment (field-independent basis, Debye-Ang):
   XX=           -378.0021   YY=           -432.9824   ZZ=           -395.7444
   XY=              2.6777   XZ=             21.9260   YZ=            -34.9702

 Normal termination of Gaussian 09 at Mon Oct  7 21:02:34 2019.
