 Gaussian 09, Revision D.01,
 Gaussian 09:  ES64L-G09RevD.01 24-Apr-2013

 ----------------------------------------------------------------------
 # td=(NStates=1) iop(3/107=0140000000,3/108=0140000000) iop(3/107=0140
 000000,3/108=0140000000) CAM-B3LYP/6-31G(d,p)
 ----------------------------------------------------------------------

 --
 TD
 --
 Symbolic Z-matrix:
 Charge =  0 Multiplicity = 1

                         Standard orientation:
 ---------------------------------------------------------------------
 Center     Atomic      Atomic             Coordinates (Angstroms)
 Number     Number       Type             X           Y           Z
 ---------------------------------------------------------------------
      1         12           0       -5.716998    1.241035    0.179223
      2          6           0       -5.050971   -2.105300   -0.388799
      3          6           0       -3.503849    1.219608    2.760991
      4          6           0       -6.163929    4.622006    0.616716
      5          6           0       -7.889856    1.177208   -2.403629
      6          7           0       -4.334520   -0.310076    1.045384
      7          6           0       -4.244554   -1.611607    0.651672
      8          6           0       -3.167011   -2.342575    1.435325
      9          6           0       -2.997069   -1.383145    2.639508
     10          6           0       -3.668622   -0.142299    2.221328
     11          6           0       -3.532496   -1.953767    3.984117
     12          6           0       -1.919031   -2.601347    0.666460
     13          6           0       -0.986581   -3.517736    1.385480
     14          6           0        0.160032   -3.904832    0.507050
     15          8           0        0.285828   -3.420850   -0.558262
     16          8           0        1.080044   -4.738260    1.194440
     17          7           0       -4.904369    2.603382    1.412167
     18          6           0       -4.070043    2.323802    2.532823
     19          6           0       -3.747683    3.610873    3.195170
     20          6           0       -4.624692    4.536570    2.670166
     21          6           0       -5.293381    3.945982    1.446707
     22          6           0       -2.934406    3.658030    4.384736
     23          6           0       -4.743816    5.973688    3.025972
     24          8           0       -4.023520    6.537916    3.832807
     25          7           0       -6.876301    2.590008   -0.723681
     26          6           0       -6.986022    4.004655   -0.262222
     27          6           0       -7.969772    4.628818   -1.212451
     28          6           0       -8.473019    3.723551   -2.065977
     29          6           0       -7.745168    2.425509   -1.731007
     30          6           0       -8.351686    6.056649   -1.157955
     31          6           0       -9.446174    3.917466   -3.116866
     32          6           0       -8.731178    3.925168   -4.590899
     33          7           0       -6.400805   -0.097148   -1.068788
     34          6           0       -7.333620    0.008938   -2.079401
     35          6           0       -7.498032   -1.327680   -2.774862
     36          6           0       -6.734882   -2.146732   -2.092087
     37          6           0       -5.954505   -1.334985   -1.080892
     38          6           0       -8.523147   -1.562076   -3.925875
     39          6           0       -6.136456   -3.492041   -2.115677
     40          8           0       -6.500071   -4.503349   -2.686608
     41          6           0       -5.078379   -3.557276   -0.885981
     42          6           0       -5.354508   -4.662027    0.121146
     43          8           0       -5.842737   -4.640285    1.246559
     44          8           0       -5.093752   -5.868899   -0.480317
     45          6           0       -5.359289   -7.003937    0.397061
     46          6           0        2.323699   -5.001342    0.464460
     47          6           0        3.315159   -4.036449    0.992185
     48          6           0        4.059402   -3.217834    0.235852
     49          6           0        3.767254   -3.069303   -1.262541
     50          6           0        5.256626   -2.403883    0.701826
     51          6           0        6.696703   -2.686499    0.216133
     52          6           0        7.687403   -1.659197    0.722403
     53          6           0        9.080646   -1.948903    0.233222
     54          6           0        9.541991   -3.313475    0.561063
     55          6           0       10.031931   -0.856604    0.590465
     56          6           0       11.383599   -0.851262   -0.202850
     57          6           0       12.256359    0.367648    0.042053
     58          6           0       13.593584    0.499560   -0.718693
     59          6           0       14.424066   -0.756003   -0.609590
     60          6           0       14.231100    1.801489   -0.246726
     61          6           0       15.481042    2.158726   -1.084219
     62          6           0       16.218288    3.481987   -0.583603
     63          6           0       17.464597    3.818457   -1.331851
     64          6           0       17.239737    3.983627   -2.860129
     65          6           0       18.121316    5.051120   -0.849024
     66          1           0       -2.789734    1.040340    3.598202
     67          1           0       -6.407704    5.803042    0.573593
     68          1           0       -8.794025    1.263628   -3.203719
     69          1           0       -3.858384   -3.457499    1.505391
     70          1           0       -1.980082   -1.154258    2.756347
     71          1           0       -3.193962   -2.870648    4.131652
     72          1           0       -3.180652   -1.290590    4.777688
     73          1           0       -4.638589   -2.024268    4.110419
     74          1           0       -2.166157   -3.078531   -0.277692
     75          1           0       -1.472662   -1.650064    0.495603
     76          1           0       -0.523399   -3.074596    2.296559
     77          1           0       -1.602833   -4.515289    1.697369
     78          1           0       -1.916152    3.454267    3.994602
     79          1           0       -2.936168    4.810753    4.617870
     80          1           0       -3.226285    2.959709    5.331133
     81          1           0       -5.398069    6.518779    2.311976
     82          1           0      -10.220811    3.119458   -3.225016
     83          1           0      -10.103697    4.861953   -2.989814
     84          1           0       -9.705828    3.961297   -5.241967
     85          1           0       -8.295268    4.812189   -4.566462
     86          1           0       -8.393679    2.888763   -4.779451
     87          1           0       -8.189559   -1.158240   -4.880271
     88          1           0       -8.458839   -2.588653   -4.212700
     89          1           0       -9.462341   -1.240043   -3.752963
     90          1           0       -4.092736   -3.824906   -1.327996
     91          1           0        2.801528   -6.101715    0.721499
     92          1           0        2.077995   -4.977705   -0.490053
     93          1           0        3.771947   -3.995307    1.931918
     94          1           0        2.759644   -3.330670   -1.587432
     95          1           0        3.834348   -1.985082   -1.449696
     96          1           0        4.373693   -3.525551   -1.975449
     97          1           0        5.204465   -1.319280    0.716188
     98          1           0        5.156680   -2.547645    1.829643
     99          1           0        6.894145   -3.785311    0.524571
    100          1           0        6.556731   -2.809087   -0.900575
    101          1           0        7.459477   -0.590643    0.487771
    102          1           0        7.594450   -1.725641    1.857143
    103          1           0        8.795808   -2.113746   -0.887382
    104          1           0        8.874439   -4.077380    0.142891
    105          1           0       10.613350   -3.182478    0.311730
    106          1           0        9.501688   -3.331285    1.708254
    107          1           0        9.621029    0.259309    0.082450
    108          1           0       10.328321   -0.782152    1.644559
    109          1           0       11.693587   -1.925205   -0.009195
    110          1           0       11.155703   -0.841558   -1.279878
    111          1           0       11.736793    1.429401   -0.155274
    112          1           0       12.525639    0.613354    0.993750
    113          1           0       13.221408    0.580367   -1.805291
    114          1           0       14.623112   -1.074810    0.537147
    115          1           0       13.951378   -1.654231   -1.119711
    116          1           0       15.380826   -0.584400   -0.881131
    117          1           0       13.496555    2.553682   -0.227714
    118          1           0       14.649920    1.720160    0.700667
    119          1           0       16.272812    1.301070   -1.003225
    120          1           0       15.372301    2.347908   -2.247384
    121          1           0       15.354044    4.312711   -0.544826
    122          1           0       16.555733    3.308118    0.422309
    123          1           0       18.035478    2.829882   -1.310772
    124          1           0       16.550352    4.842041   -2.989834
    125          1           0       18.283917    3.993277   -3.337370
    126          1           0       16.526224    3.146453   -3.406836
    127          1           0       18.136363    5.074025    0.224431
    128          1           0       19.037038    5.333101   -1.335096
    129          1           0       17.532310    5.938244   -1.134906
    130          1           0       -4.944466   -7.870254   -0.224684
    131          1           0       -6.322614   -7.096135    0.795546
    132          1           0       -4.408831   -7.032333    1.259997
    133          8           0       -7.778066    6.801570   -0.298926
    134          1           0       -9.157846    6.545491   -1.742591
 ---------------------------------------------------------------------

 SCF Done:  E(RCAM-B3LYP) =  -3043.46891323     A.U. after   16 cycles

 Excitation energies and oscillator strengths:

 Excited State   1:      Singlet-A      1.9426 eV  638.22 nm  f=0.1986  <S**2>=0.000
     243 -> 246        0.22574
     244 -> 245        0.66042
 This state for optimization and/or second-order correction.
 Total Energy, E(TD-HF/TD-KS) =  -3043.39752244
 Copying the excited state density for this state as the 1-particle RhoCI density.

 The electronic state is 1-A.
 Alpha  occ. eigenvalues --  -46.80276 -19.22721 -19.21617 -19.18566 -19.17993
 Alpha  occ. eigenvalues --  -19.17912 -19.17513 -19.16802 -14.38818 -14.37042
 Alpha  occ. eigenvalues --  -14.36754 -14.36244 -10.35814 -10.35246 -10.32450
 Alpha  occ. eigenvalues --  -10.31441 -10.29689 -10.28915 -10.28167 -10.27714
 Alpha  occ. eigenvalues --  -10.27048 -10.26465 -10.26283 -10.26231 -10.26188
 Alpha  occ. eigenvalues --  -10.26159 -10.25966 -10.25506 -10.25317 -10.25027
 Alpha  occ. eigenvalues --  -10.24750 -10.24523 -10.24482 -10.24448 -10.24141
 Alpha  occ. eigenvalues --  -10.24012 -10.23570 -10.23408 -10.23081 -10.22858
 Alpha  occ. eigenvalues --  -10.22842 -10.22703 -10.22575 -10.22566 -10.22558
 Alpha  occ. eigenvalues --  -10.22449 -10.22441 -10.22333 -10.22183 -10.22081
 Alpha  occ. eigenvalues --  -10.21827 -10.21656 -10.21638 -10.21603 -10.21577
 Alpha  occ. eigenvalues --  -10.21574 -10.21499 -10.21478 -10.21207 -10.20879
 Alpha  occ. eigenvalues --  -10.20752 -10.20601 -10.20388 -10.20191 -10.19672
 Alpha  occ. eigenvalues --  -10.19637  -3.09125  -1.84039  -1.83617  -1.83537
 Alpha  occ. eigenvalues --   -1.13226  -1.13045  -1.07579  -1.06142  -1.05749
 Alpha  occ. eigenvalues --   -1.04734  -1.04112  -1.01251  -1.00081  -0.97402
 Alpha  occ. eigenvalues --   -0.96458  -0.88382  -0.86911  -0.86783  -0.85555
 Alpha  occ. eigenvalues --   -0.85454  -0.85084  -0.84889  -0.84190  -0.84074
 Alpha  occ. eigenvalues --   -0.83348  -0.82417  -0.82093  -0.80598  -0.79791
 Alpha  occ. eigenvalues --   -0.78838  -0.78338  -0.77699  -0.76966  -0.76353
 Alpha  occ. eigenvalues --   -0.75530  -0.74848  -0.74222  -0.72714  -0.71984
 Alpha  occ. eigenvalues --   -0.71774  -0.71475  -0.70635  -0.70256  -0.70025
 Alpha  occ. eigenvalues --   -0.69726  -0.68919  -0.67745  -0.66831  -0.66469
 Alpha  occ. eigenvalues --   -0.65389  -0.64972  -0.64227  -0.62554  -0.62241
 Alpha  occ. eigenvalues --   -0.61712  -0.60468  -0.60193  -0.59004  -0.58708
 Alpha  occ. eigenvalues --   -0.58372  -0.57871  -0.57495  -0.57189  -0.57129
 Alpha  occ. eigenvalues --   -0.56069  -0.55877  -0.55279  -0.54900  -0.54748
 Alpha  occ. eigenvalues --   -0.53917  -0.53323  -0.53001  -0.52452  -0.52305
 Alpha  occ. eigenvalues --   -0.51850  -0.51424  -0.51305  -0.50971  -0.50851
 Alpha  occ. eigenvalues --   -0.50712  -0.50254  -0.50160  -0.49413  -0.49166
 Alpha  occ. eigenvalues --   -0.48997  -0.48866  -0.48730  -0.48465  -0.48208
 Alpha  occ. eigenvalues --   -0.47922  -0.47500  -0.47316  -0.47162  -0.46848
 Alpha  occ. eigenvalues --   -0.46642  -0.46617  -0.46473  -0.46338  -0.46169
 Alpha  occ. eigenvalues --   -0.46074  -0.45661  -0.45356  -0.45022  -0.44965
 Alpha  occ. eigenvalues --   -0.44439  -0.44263  -0.44086  -0.43978  -0.43872
 Alpha  occ. eigenvalues --   -0.43491  -0.43326  -0.43220  -0.43056  -0.42932
 Alpha  occ. eigenvalues --   -0.42495  -0.42365  -0.42047  -0.41626  -0.41311
 Alpha  occ. eigenvalues --   -0.41264  -0.41053  -0.40974  -0.40880  -0.40756
 Alpha  occ. eigenvalues --   -0.40713  -0.40631  -0.40317  -0.40220  -0.40131
 Alpha  occ. eigenvalues --   -0.40055  -0.39772  -0.39437  -0.39278  -0.38924
 Alpha  occ. eigenvalues --   -0.38696  -0.38581  -0.38536  -0.38296  -0.38150
 Alpha  occ. eigenvalues --   -0.38063  -0.38026  -0.37821  -0.37565  -0.37270
 Alpha  occ. eigenvalues --   -0.36761  -0.36708  -0.36498  -0.36333  -0.35992
 Alpha  occ. eigenvalues --   -0.35642  -0.35494  -0.35026  -0.34320  -0.34093
 Alpha  occ. eigenvalues --   -0.33682  -0.33640  -0.33428  -0.33003  -0.32919
 Alpha  occ. eigenvalues --   -0.32838  -0.32715  -0.32476  -0.31924  -0.31872
 Alpha  occ. eigenvalues --   -0.31710  -0.31283  -0.31137  -0.30510  -0.30407
 Alpha  occ. eigenvalues --   -0.29343  -0.28507  -0.28256  -0.28082  -0.27527
 Alpha  occ. eigenvalues --   -0.27362  -0.26615  -0.23548  -0.19749
 Alpha virt. eigenvalues --   -0.07210  -0.06422  -0.02557  -0.01352  -0.00052
 Alpha virt. eigenvalues --    0.02195   0.03023   0.03908   0.04176   0.04381
 Alpha virt. eigenvalues --    0.04993   0.05926   0.07643   0.08173   0.09047

 Mulliken charges:
               1
     1  Mg   0.830599
     2  C    0.085007
     3  C   -0.196182
     4  C   -0.206577
     5  C   -0.198055
     6  N   -0.586001
     7  C    0.289347
     8  C   -0.147587
     9  C   -0.176828
    10  C    0.299479
    11  C   -0.304584
    12  C   -0.144921
    13  C   -0.268355
    14  C    0.609565
    15  O   -0.424183
    16  O   -0.497419
    17  N   -0.722032
    18  C    0.351905
    19  C    0.065067
    20  C   -0.064775
    21  C    0.324559
    22  C   -0.393151
    23  C    0.252691
    24  O   -0.418407
    25  N   -0.698567
    26  C    0.267659
    27  C   -0.045846
    28  C    0.107598
    29  C    0.302434
    30  C    0.239264
    31  C   -0.324381
    32  C   -0.296824
    33  N   -0.750465
    34  C    0.292161
    35  C    0.020562
    36  C    0.021087
    37  C    0.319968
    38  C   -0.381297
    39  C    0.366595
    40  O   -0.430345
    41  C   -0.322610
    42  C    0.616350
    43  O   -0.477441
    44  O   -0.437526
    45  C   -0.069051
    46  C    0.013989
    47  C   -0.092641
    48  C    0.110100
    49  C   -0.390674
    50  C   -0.238610
    51  C   -0.180240
    52  C   -0.152917
    53  C   -0.045678
    54  C   -0.291835
    55  C   -0.175396
    56  C   -0.185230
    57  C   -0.168513
    58  C   -0.044870
    59  C   -0.297790
    60  C   -0.172713
    61  C   -0.185598
    62  C   -0.163697
    63  C   -0.039690
    64  C   -0.302148
    65  C   -0.306923
    66  H    0.078633
    67  H    0.176912
    68  H    0.073999
    69  H    0.088398
    70  H    0.116037
    71  H    0.129175
    72  H    0.105118
    73  H    0.125652
    74  H    0.118856
    75  H    0.121939
    76  H    0.138130
    77  H    0.117187
    78  H    0.122887
    79  H    0.152738
    80  H    0.114445
    81  H    0.082781
    82  H    0.116756
    83  H    0.102311
    84  H    0.093279
    85  H    0.138203
    86  H    0.129642
    87  H    0.127583
    88  H    0.145983
    89  H    0.139374
    90  H    0.157340
    91  H    0.102805
    92  H    0.129799
    93  H    0.077050
    94  H    0.127839
    95  H    0.106970
    96  H    0.119442
    97  H    0.107826
    98  H    0.074007
    99  H    0.092222
   100  H    0.094399
   101  H    0.094448
   102  H    0.081017
   103  H    0.074817
   104  H    0.112730
   105  H    0.094648
   106  H    0.082030
   107  H    0.053882
   108  H    0.102258
   109  H    0.089735
   110  H    0.098089
   111  H    0.061481
   112  H    0.098015
   113  H    0.075012
   114  H    0.065624
   115  H    0.103710
   116  H    0.112339
   117  H    0.097262
   118  H    0.104154
   119  H    0.077659
   120  H    0.078228
   121  H    0.063797
   122  H    0.091428
   123  H    0.080036
   124  H    0.101991
   125  H    0.097753
   126  H    0.072154
   127  H    0.101161
   128  H    0.104893
   129  H    0.101505
   130  H    0.124947
   131  H    0.156228
   132  H    0.079993
   133  O   -0.441360
   134  H    0.095205
 Sum of Mulliken charges =   0.00000

 Dipole moment (field-independent basis, Debye):
    X=              1.4682    Y=             -4.2654    Z=             -1.9620  Tot=              4.9192
 Quadrupole moment (field-independent basis, Debye-Ang):
   XX=           -356.4752   YY=           -435.9036   ZZ=           -396.2056
   XY=              4.3815   XZ=             32.8704   YZ=            -33.7310

 Normal termination of Gaussian 09 at Wed Oct  9 02:35:12 2019.
