 Gaussian 09, Revision D.01,
 Gaussian 09:  ES64L-G09RevD.01 24-Apr-2013

 ----------------------------------------------------------------------
 # td=(NStates=1) iop(3/107=0140000000,3/108=0140000000) iop(3/107=0140
 000000,3/108=0140000000) CAM-B3LYP/6-31G(d,p)
 ----------------------------------------------------------------------

 --
 TD
 --
 Symbolic Z-matrix:
 Charge =  0 Multiplicity = 1

                         Standard orientation:
 ---------------------------------------------------------------------
 Center     Atomic      Atomic             Coordinates (Angstroms)
 Number     Number       Type             X           Y           Z
 ---------------------------------------------------------------------
      1         12           0       -5.616190    1.199762    0.197435
      2          6           0       -4.955488   -2.113575   -0.315184
      3          6           0       -3.387285    1.183146    2.760716
      4          6           0       -6.152467    4.467938    0.630959
      5          6           0       -8.117064    1.102139   -2.373161
      6          7           0       -4.279491   -0.227190    1.044637
      7          6           0       -4.289515   -1.523816    0.672564
      8          6           0       -3.193578   -2.317948    1.448936
      9          6           0       -2.870118   -1.289644    2.659336
     10          6           0       -3.584951   -0.012051    2.158094
     11          6           0       -3.398370   -1.707687    4.028734
     12          6           0       -1.970788   -2.568199    0.458892
     13          6           0       -0.860292   -3.329181    1.350072
     14          6           0        0.338249   -3.712578    0.430116
     15          8           0        0.599853   -3.364033   -0.653827
     16          8           0        1.127128   -4.597472    1.095731
     17          7           0       -4.893671    2.635438    1.485235
     18          6           0       -3.940542    2.474790    2.464464
     19          6           0       -3.699769    3.677792    3.075960
     20          6           0       -4.492943    4.615735    2.483082
     21          6           0       -5.315906    3.952795    1.486788
     22          6           0       -2.783767    3.847690    4.254466
     23          6           0       -4.653067    6.010611    2.810613
     24          8           0       -4.003050    6.515886    3.697928
     25          7           0       -6.870337    2.551847   -0.726834
     26          6           0       -6.952541    3.880889   -0.394560
     27          6           0       -7.943642    4.563380   -1.266800
     28          6           0       -8.554488    3.620803   -2.057147
     29          6           0       -7.868517    2.366160   -1.773155
     30          6           0       -8.344248    5.989845   -1.224004
     31          6           0       -9.563944    3.805715   -3.135367
     32          6           0       -8.651848    3.929036   -4.406858
     33          7           0       -6.476828   -0.187693   -1.055221
     34          6           0       -7.564364   -0.134478   -2.043708
     35          6           0       -7.638828   -1.457628   -2.617676
     36          6           0       -6.793555   -2.294866   -2.026630
     37          6           0       -6.019772   -1.442085   -1.015752
     38          6           0       -8.549050   -1.709446   -3.721635
     39          6           0       -6.249738   -3.552900   -1.890785
     40          8           0       -6.461513   -4.687315   -2.522037
     41          6           0       -5.108056   -3.558434   -0.805234
     42          6           0       -5.295342   -4.600669    0.300955
     43          8           0       -5.836904   -4.361105    1.353853
     44          8           0       -5.113262   -5.872706   -0.269892
     45          6           0       -5.413057   -6.921904    0.700489
     46          6           0        2.309326   -5.079875    0.480071
     47          6           0        3.505286   -4.183603    0.893734
     48          6           0        4.025348   -3.255158    0.106984
     49          6           0        3.667219   -2.832585   -1.301502
     50          6           0        5.208346   -2.342982    0.626752
     51          6           0        6.585489   -2.736347    0.099415
     52          6           0        7.653858   -1.790737    0.560892
     53          6           0        9.066450   -2.102027   -0.085638
     54          6           0        9.535074   -3.442953    0.252547
     55          6           0       10.011295   -1.023306    0.458441
     56          6           0       11.394002   -0.928944   -0.328587
     57          6           0       12.307194    0.223953    0.237860
     58          6           0       13.609644    0.387686   -0.591747
     59          6           0       14.642366   -0.783249   -0.326375
     60          6           0       14.192249    1.746482   -0.294680
     61          6           0       15.511815    2.167537   -1.047393
     62          6           0       15.999779    3.531702   -0.624401
     63          6           0       17.234641    3.994712   -1.332223
     64          6           0       17.114922    3.979582   -2.799880
     65          6           0       17.825224    5.271224   -0.723339
     66          1           0       -2.718771    1.442407    3.649032
     67          1           0       -6.629312    5.581107    0.578408
     68          1           0       -8.734222    1.085292   -3.236806
     69          1           0       -3.543993   -3.396606    1.840195
     70          1           0       -1.886630   -1.166071    2.706231
     71          1           0       -2.770492   -2.470118    4.548447
     72          1           0       -3.198581   -0.765357    4.629523
     73          1           0       -4.472202   -2.025583    4.059899
     74          1           0       -2.627838   -3.336964   -0.173964
     75          1           0       -1.529845   -1.599870    0.077739
     76          1           0       -0.328105   -2.474210    2.097717
     77          1           0       -1.262938   -4.275521    1.928206
     78          1           0       -1.712794    3.590025    4.207024
     79          1           0       -2.869707    4.896358    4.708138
     80          1           0       -3.097743    3.077577    5.153777
     81          1           0       -5.264465    6.904613    2.439404
     82          1           0      -10.140036    2.917184   -3.214190
     83          1           0      -10.118050    4.826146   -2.988615
     84          1           0       -9.441970    3.801852   -5.162161
     85          1           0       -8.283699    4.998070   -4.313337
     86          1           0       -8.066640    3.112857   -4.397884
     87          1           0       -8.136569   -1.260945   -4.563483
     88          1           0       -8.696675   -2.861850   -3.748029
     89          1           0       -9.600322   -1.246237   -3.693215
     90          1           0       -4.322823   -3.942469   -1.380707
     91          1           0        2.423131   -6.095638    0.909127
     92          1           0        2.225460   -4.991489   -0.644755
     93          1           0        3.780390   -4.146903    1.939432
     94          1           0        2.601112   -3.102622   -1.686588
     95          1           0        4.186674   -1.845929   -1.729275
     96          1           0        4.231642   -3.479411   -2.065941
     97          1           0        4.957509   -1.320800    0.203203
     98          1           0        5.402230   -2.363233    1.660623
     99          1           0        6.689110   -3.671401    0.405778
    100          1           0        6.608685   -2.697924   -0.951913
    101          1           0        7.256973   -0.879038    0.525742
    102          1           0        7.767375   -1.937871    1.548899
    103          1           0        9.150481   -1.853754   -1.162550
    104          1           0        8.904012   -4.255409   -0.170081
    105          1           0       10.584200   -3.778154   -0.027441
    106          1           0        9.590168   -3.639589    1.399429
    107          1           0        9.654060   -0.117537    0.456745
    108          1           0       10.228846   -1.310368    1.520747
    109          1           0       11.922673   -1.914919   -0.290018
    110          1           0       11.237841   -0.587018   -1.372503
    111          1           0       11.710157    1.206352    0.420314
    112          1           0       12.574319    0.228679    1.275446
    113          1           0       13.339771    0.522146   -1.771013
    114          1           0       14.918873   -0.530211    0.597533
    115          1           0       14.116047   -1.854995   -0.314964
    116          1           0       15.553344   -0.676290   -0.942235
    117          1           0       13.376748    2.431114   -0.610597
    118          1           0       14.449426    1.729571    0.812085
    119          1           0       16.203080    1.215312   -0.928954
    120          1           0       15.313809    2.117200   -2.052053
    121          1           0       15.282416    4.243273   -0.887018
    122          1           0       16.123980    3.483303    0.404179
    123          1           0       18.035916    3.279576   -0.981111
    124          1           0       16.239645    4.609264   -3.077004
    125          1           0       17.942550    4.484437   -3.195457
    126          1           0       17.142297    2.788025   -3.164004
    127          1           0       17.957070    5.234955    0.379698
    128          1           0       18.802819    5.686380   -1.164396
    129          1           0       17.247223    6.359597   -0.692885
    130          1           0       -5.162538   -7.897025    0.242044
    131          1           0       -6.644302   -6.959457    1.001231
    132          1           0       -4.888268   -6.838721    1.530974
    133          8           0       -7.912622    6.832942   -0.547506
    134          1           0       -9.108247    5.926389   -2.150829
 ---------------------------------------------------------------------

 SCF Done:  E(RCAM-B3LYP) =  -3043.45420885     A.U. after   15 cycles

 Excitation energies and oscillator strengths:

 Excited State   1:      Singlet-A      2.1058 eV  588.77 nm  f=0.1970  <S**2>=0.000
     243 -> 245       -0.15476
     243 -> 246       -0.25862
     244 -> 245        0.62717
 This state for optimization and/or second-order correction.
 Total Energy, E(TD-HF/TD-KS) =  -3043.37682120
 Copying the excited state density for this state as the 1-particle RhoCI density.

 The electronic state is 1-A.
 Alpha  occ. eigenvalues --  -46.81835 -19.22848 -19.20867 -19.19343 -19.18388
 Alpha  occ. eigenvalues --  -19.17430 -19.16029 -19.15761 -14.38801 -14.37834
 Alpha  occ. eigenvalues --  -14.37353 -14.36526 -10.35622 -10.34622 -10.31766
 Alpha  occ. eigenvalues --  -10.31156 -10.29906 -10.27649 -10.27493 -10.27458
 Alpha  occ. eigenvalues --  -10.27281 -10.27129 -10.27058 -10.26967 -10.26938
 Alpha  occ. eigenvalues --  -10.26901 -10.26556 -10.25858 -10.25710 -10.25678
 Alpha  occ. eigenvalues --  -10.25492 -10.25124 -10.24927 -10.24860 -10.24604
 Alpha  occ. eigenvalues --  -10.24480 -10.24208 -10.23771 -10.23654 -10.23292
 Alpha  occ. eigenvalues --  -10.23228 -10.23166 -10.23070 -10.23038 -10.22878
 Alpha  occ. eigenvalues --  -10.22774 -10.22581 -10.22483 -10.22442 -10.22363
 Alpha  occ. eigenvalues --  -10.21704 -10.21538 -10.21407 -10.21362 -10.21068
 Alpha  occ. eigenvalues --  -10.21054 -10.20919 -10.20916 -10.20696 -10.20679
 Alpha  occ. eigenvalues --  -10.20414 -10.20315 -10.19368 -10.19119 -10.18618
 Alpha  occ. eigenvalues --  -10.18400  -3.10316  -1.85268  -1.84818  -1.84683
 Alpha  occ. eigenvalues --   -1.14279  -1.12333  -1.11518  -1.07191  -1.05850
 Alpha  occ. eigenvalues --   -1.05159  -1.01445  -1.01040  -1.00102  -0.98755
 Alpha  occ. eigenvalues --   -0.97661  -0.88482  -0.86965  -0.86132  -0.85672
 Alpha  occ. eigenvalues --   -0.85603  -0.85113  -0.84383  -0.84048  -0.83937
 Alpha  occ. eigenvalues --   -0.83292  -0.83272  -0.81529  -0.80594  -0.79517
 Alpha  occ. eigenvalues --   -0.79296  -0.78534  -0.77798  -0.77180  -0.76286
 Alpha  occ. eigenvalues --   -0.75354  -0.75054  -0.73211  -0.73075  -0.72169
 Alpha  occ. eigenvalues --   -0.70952  -0.70849  -0.70515  -0.70305  -0.69811
 Alpha  occ. eigenvalues --   -0.69732  -0.69015  -0.67644  -0.67252  -0.66456
 Alpha  occ. eigenvalues --   -0.65538  -0.64919  -0.64692  -0.63180  -0.62728
 Alpha  occ. eigenvalues --   -0.61455  -0.61065  -0.60643  -0.59620  -0.58975
 Alpha  occ. eigenvalues --   -0.58306  -0.58107  -0.57729  -0.57566  -0.56770
 Alpha  occ. eigenvalues --   -0.56743  -0.55802  -0.55372  -0.55003  -0.54692
 Alpha  occ. eigenvalues --   -0.54283  -0.54037  -0.53361  -0.52690  -0.52474
 Alpha  occ. eigenvalues --   -0.52240  -0.52032  -0.51408  -0.51164  -0.50991
 Alpha  occ. eigenvalues --   -0.50687  -0.50442  -0.50046  -0.49431  -0.49319
 Alpha  occ. eigenvalues --   -0.49229  -0.48917  -0.48609  -0.48308  -0.48064
 Alpha  occ. eigenvalues --   -0.47987  -0.47642  -0.47333  -0.47316  -0.47119
 Alpha  occ. eigenvalues --   -0.46828  -0.46779  -0.46405  -0.46126  -0.45989
 Alpha  occ. eigenvalues --   -0.45560  -0.45421  -0.45217  -0.45026  -0.44572
 Alpha  occ. eigenvalues --   -0.44508  -0.44125  -0.43981  -0.43828  -0.43653
 Alpha  occ. eigenvalues --   -0.43340  -0.43020  -0.42943  -0.42701  -0.42463
 Alpha  occ. eigenvalues --   -0.42312  -0.42099  -0.42002  -0.41916  -0.41653
 Alpha  occ. eigenvalues --   -0.41566  -0.41448  -0.41125  -0.41010  -0.40856
 Alpha  occ. eigenvalues --   -0.40714  -0.40177  -0.40064  -0.39936  -0.39905
 Alpha  occ. eigenvalues --   -0.39729  -0.39510  -0.39415  -0.39380  -0.39064
 Alpha  occ. eigenvalues --   -0.38858  -0.38723  -0.38381  -0.38305  -0.38190
 Alpha  occ. eigenvalues --   -0.37871  -0.37840  -0.37717  -0.37548  -0.37407
 Alpha  occ. eigenvalues --   -0.37122  -0.36734  -0.36634  -0.36171  -0.35853
 Alpha  occ. eigenvalues --   -0.35468  -0.35371  -0.35006  -0.34784  -0.34722
 Alpha  occ. eigenvalues --   -0.34154  -0.33612  -0.33563  -0.33251  -0.33220
 Alpha  occ. eigenvalues --   -0.33010  -0.32462  -0.32130  -0.32039  -0.31630
 Alpha  occ. eigenvalues --   -0.31486  -0.31442  -0.30726  -0.30401  -0.30045
 Alpha  occ. eigenvalues --   -0.29316  -0.28481  -0.28291  -0.28134  -0.27058
 Alpha  occ. eigenvalues --   -0.26861  -0.26500  -0.23485  -0.22568
 Alpha virt. eigenvalues --   -0.09183  -0.06862  -0.02052  -0.00519   0.00406
 Alpha virt. eigenvalues --    0.01680   0.03496   0.03885   0.04113   0.04564
 Alpha virt. eigenvalues --    0.05070   0.06161   0.07429   0.08087   0.08950

 Mulliken charges:
               1
     1  Mg   0.809722
     2  C    0.097696
     3  C   -0.181048
     4  C   -0.174652
     5  C   -0.168652
     6  N   -0.651474
     7  C    0.334274
     8  C   -0.193315
     9  C   -0.115773
    10  C    0.359410
    11  C   -0.311333
    12  C   -0.143614
    13  C   -0.262313
    14  C    0.595725
    15  O   -0.433454
    16  O   -0.457846
    17  N   -0.740410
    18  C    0.310071
    19  C    0.097652
    20  C   -0.026587
    21  C    0.341371
    22  C   -0.411963
    23  C    0.203733
    24  O   -0.410998
    25  N   -0.674573
    26  C    0.297217
    27  C   -0.056420
    28  C    0.053099
    29  C    0.250274
    30  C    0.294501
    31  C   -0.279722
    32  C   -0.286446
    33  N   -0.724713
    34  C    0.257167
    35  C    0.009630
    36  C    0.174213
    37  C    0.266193
    38  C   -0.391243
    39  C    0.267151
    40  O   -0.510937
    41  C   -0.292121
    42  C    0.610535
    43  O   -0.447992
    44  O   -0.446053
    45  C   -0.077788
    46  C   -0.000478
    47  C   -0.166298
    48  C    0.187387
    49  C   -0.404106
    50  C   -0.248985
    51  C   -0.170373
    52  C   -0.165256
    53  C   -0.055633
    54  C   -0.312718
    55  C   -0.161176
    56  C   -0.185082
    57  C   -0.177372
    58  C   -0.052821
    59  C   -0.308626
    60  C   -0.173101
    61  C   -0.189378
    62  C   -0.140819
    63  C   -0.044396
    64  C   -0.292976
    65  C   -0.320503
    66  H    0.077617
    67  H    0.139165
    68  H    0.084736
    69  H    0.102385
    70  H    0.100781
    71  H    0.107376
    72  H    0.102615
    73  H    0.128134
    74  H    0.110719
    75  H    0.129727
    76  H    0.117744
    77  H    0.131325
    78  H    0.132340
    79  H    0.164541
    80  H    0.095715
    81  H    0.097040
    82  H    0.120005
    83  H    0.119553
    84  H    0.108878
    85  H    0.120398
    86  H    0.126583
    87  H    0.147417
    88  H    0.143333
    89  H    0.116597
    90  H    0.164652
    91  H    0.110519
    92  H    0.116649
    93  H    0.083247
    94  H    0.153413
    95  H    0.104088
    96  H    0.109967
    97  H    0.086051
    98  H    0.092565
    99  H    0.105564
   100  H    0.090337
   101  H    0.093269
   102  H    0.094393
   103  H    0.082546
   104  H    0.104851
   105  H    0.099151
   106  H    0.087181
   107  H    0.094822
   108  H    0.076286
   109  H    0.092457
   110  H    0.095997
   111  H    0.069889
   112  H    0.090446
   113  H    0.047911
   114  H    0.118013
   115  H    0.087979
   116  H    0.106272
   117  H    0.091666
   118  H    0.071480
   119  H    0.062473
   120  H    0.104030
   121  H    0.096200
   122  H    0.093822
   123  H    0.086063
   124  H    0.099757
   125  H    0.109960
   126  H    0.084835
   127  H    0.103875
   128  H    0.094415
   129  H    0.058544
   130  H    0.125843
   131  H    0.101313
   132  H    0.137169
   133  O   -0.395510
   134  H    0.015346
 Sum of Mulliken charges =   0.00000

 Dipole moment (field-independent basis, Debye):
    X=              0.5772    Y=             -2.1723    Z=             -0.5249  Tot=              2.3081
 Quadrupole moment (field-independent basis, Debye-Ang):
   XX=           -373.7575   YY=           -438.2251   ZZ=           -394.4366
   XY=             -4.4365   XZ=             26.2374   YZ=            -36.0117

 Normal termination of Gaussian 09 at Fri Oct  4 10:41:25 2019.
