 Gaussian 09, Revision D.01,
 Gaussian 09:  ES64L-G09RevD.01 24-Apr-2013

 ----------------------------------------------------------------------
 # td=(NStates=1) iop(3/107=0140000000,3/108=0140000000) iop(3/107=0140
 000000,3/108=0140000000) CAM-B3LYP/6-31G(d,p)
 ----------------------------------------------------------------------

 --
 TD
 --
 Symbolic Z-matrix:
 Charge =  0 Multiplicity = 1

                         Standard orientation:
 ---------------------------------------------------------------------
 Center     Atomic      Atomic             Coordinates (Angstroms)
 Number     Number       Type             X           Y           Z
 ---------------------------------------------------------------------
      1         12           0       -5.657898    1.178551    0.209898
      2          6           0       -5.082243   -2.176970   -0.470069
      3          6           0       -3.494666    1.123180    2.784363
      4          6           0       -6.315929    4.496036    0.767369
      5          6           0       -7.966714    1.155127   -2.400744
      6          7           0       -4.500683   -0.321177    1.096324
      7          6           0       -4.346740   -1.633802    0.598318
      8          6           0       -3.258323   -2.312206    1.450984
      9          6           0       -3.113360   -1.341795    2.733116
     10          6           0       -3.796658   -0.131532    2.196565
     11          6           0       -4.004588   -1.854558    3.975852
     12          6           0       -1.914597   -2.609869    0.665055
     13          6           0       -0.896309   -3.437222    1.478603
     14          6           0        0.291198   -3.769485    0.576053
     15          8           0        0.483014   -3.268690   -0.411826
     16          8           0        1.072611   -4.670714    1.260347
     17          7           0       -4.985592    2.615391    1.451354
     18          6           0       -4.062492    2.447749    2.519883
     19          6           0       -3.761275    3.569701    3.207596
     20          6           0       -4.391969    4.599717    2.510262
     21          6           0       -5.299899    3.957735    1.572002
     22          6           0       -2.744718    3.736406    4.338314
     23          6           0       -4.586501    6.005011    2.935992
     24          8           0       -4.006481    6.586729    3.835235
     25          7           0       -6.885326    2.633853   -0.777970
     26          6           0       -6.925576    3.896507   -0.371329
     27          6           0       -7.945778    4.619041   -1.180285
     28          6           0       -8.429627    3.678202   -2.023953
     29          6           0       -7.678083    2.455223   -1.826051
     30          6           0       -8.308932    5.931208   -1.121522
     31          6           0       -9.385117    3.733479   -3.163839
     32          6           0       -8.706261    4.055719   -4.639862
     33          7           0       -6.440779   -0.125759   -1.068035
     34          6           0       -7.346218    0.007178   -2.129493
     35          6           0       -7.697962   -1.244906   -2.736555
     36          6           0       -6.695307   -2.118090   -2.148871
     37          6           0       -6.046141   -1.349958   -1.174868
     38          6           0       -8.556175   -1.634443   -3.747687
     39          6           0       -6.338524   -3.520687   -2.113568
     40          8           0       -6.497428   -4.544139   -2.773885
     41          6           0       -5.132365   -3.578556   -0.937129
     42          6           0       -5.468007   -4.649436    0.072718
     43          8           0       -5.897097   -4.393080    1.146786
     44          8           0       -5.087526   -5.874549   -0.397382
     45          6           0       -5.497582   -6.963732    0.551636
     46          6           0        2.320571   -5.020400    0.592834
     47          6           0        3.445873   -4.067378    0.947724
     48          6           0        4.144956   -3.255791    0.203570
     49          6           0        3.819854   -3.118044   -1.278659
     50          6           0        5.296141   -2.419125    0.653388
     51          6           0        6.694473   -2.723237    0.039084
     52          6           0        7.730447   -1.860111    0.598701
     53          6           0        9.081425   -2.011522    0.031170
     54          6           0        9.812627   -3.434930    0.201786
     55          6           0        9.950579   -0.850166    0.511804
     56          6           0       11.378697   -0.810641   -0.273275
     57          6           0       12.289269    0.299978    0.188781
     58          6           0       13.627642    0.442088   -0.381220
     59          6           0       14.592417   -0.741011   -0.138796
     60          6           0       14.321429    1.810156   -0.127115
     61          6           0       15.565657    2.088215   -0.956911
     62          6           0       16.085829    3.583606   -0.730333
     63          6           0       17.473845    3.851120   -1.463811
     64          6           0       17.217902    3.921417   -2.916684
     65          6           0       17.992837    5.163697   -0.941225
     66          1           0       -3.057213    1.286969    3.712041
     67          1           0       -6.592025    5.468524    0.734946
     68          1           0       -8.683957    1.161838   -3.288817
     69          1           0       -3.596336   -3.323317    1.798225
     70          1           0       -1.974431   -1.337243    2.915343
     71          1           0       -3.524633   -2.656313    4.331264
     72          1           0       -3.925946   -1.007405    4.665056
     73          1           0       -5.098073   -1.896897    3.926482
     74          1           0       -2.209487   -3.160385   -0.250367
     75          1           0       -1.485607   -1.653491    0.210694
     76          1           0       -0.564394   -2.721243    2.375238
     77          1           0       -1.283764   -4.287089    1.715479
     78          1           0       -1.796510    3.626904    3.820201
     79          1           0       -2.908765    4.594137    4.936531
     80          1           0       -2.759151    2.831360    5.022473
     81          1           0       -5.434312    6.572197    2.517757
     82          1           0      -10.191493    3.104369   -3.028325
     83          1           0      -10.037365    4.682353   -2.906392
     84          1           0       -9.426445    4.219468   -5.442370
     85          1           0       -8.051286    4.965163   -4.440469
     86          1           0       -7.827623    3.388382   -4.802991
     87          1           0       -8.145510   -1.276075   -4.913002
     88          1           0       -8.462793   -2.607875   -3.989197
     89          1           0       -9.712321   -1.461649   -3.655510
     90          1           0       -4.279798   -4.008270   -1.312571
     91          1           0        2.668838   -6.121396    0.942055
     92          1           0        2.373878   -4.982385   -0.398904
     93          1           0        3.486042   -4.228719    2.112470
     94          1           0        2.695710   -3.201206   -1.463331
     95          1           0        3.953776   -2.165534   -1.795707
     96          1           0        4.131635   -3.801794   -2.233139
     97          1           0        4.974887   -1.373371    0.561632
     98          1           0        5.534054   -2.449950    1.781151
     99          1           0        6.738289   -3.874626    0.074686
    100          1           0        6.597553   -2.513724   -0.839758
    101          1           0        7.505655   -0.838669    0.646516
    102          1           0        7.923835   -2.083108    1.622097
    103          1           0        9.089310   -1.997461   -1.048844
    104          1           0        9.098666   -4.452622    0.130915
    105          1           0       10.733175   -3.468957   -0.482697
    106          1           0       10.190059   -3.443342    1.437053
    107          1           0        9.675979    0.086511    0.150318
    108          1           0       10.200883   -0.763534    1.622403
    109          1           0       11.986822   -1.589084   -0.214177
    110          1           0       11.083532   -0.844503   -1.352059
    111          1           0       11.707545    1.282492    0.075140
    112          1           0       12.547588    0.268815    1.241097
    113          1           0       13.630654    0.407161   -1.655357
    114          1           0       15.036867   -0.766400    0.903025
    115          1           0       14.070166   -1.773255   -0.527918
    116          1           0       15.466841   -0.717732   -0.756314
    117          1           0       13.518205    2.579636   -0.064147
    118          1           0       14.394994    1.780097    0.979702
    119          1           0       16.449204    1.282664   -0.850170
    120          1           0       15.350751    2.105961   -2.156285
    121          1           0       15.304256    4.496503   -0.917879
    122          1           0       16.320519    3.603819    0.219697
    123          1           0       18.116486    2.965934   -1.144241
    124          1           0       16.388653    4.545883   -3.123677
    125          1           0       18.177511    4.123346   -3.444005
    126          1           0       16.937342    2.974927   -3.227618
    127          1           0       18.221472    4.934161    0.113855
    128          1           0       19.060059    5.377037   -1.390155
    129          1           0       17.396296    6.100311   -1.155578
    130          1           0       -5.142104   -7.799840    0.183945
    131          1           0       -6.635142   -6.836193    0.607398
    132          1           0       -4.994003   -6.604055    1.514231
    133          8           0       -7.795241    6.827428   -0.417572
    134          1           0       -9.165073    6.281777   -1.751268
 ---------------------------------------------------------------------

 SCF Done:  E(RCAM-B3LYP) =  -3043.39823354     A.U. after   16 cycles

 Excitation energies and oscillator strengths:

 Excited State   1:      Singlet-A      1.9557 eV  633.96 nm  f=0.1618  <S**2>=0.000
     243 -> 245       -0.10260
     243 -> 246       -0.23617
     244 -> 245        0.64088
     244 -> 246       -0.11286
 This state for optimization and/or second-order correction.
 Total Energy, E(TD-HF/TD-KS) =  -3043.32636280
 Copying the excited state density for this state as the 1-particle RhoCI density.

 The electronic state is 1-A.
 Alpha  occ. eigenvalues --  -46.81584 -19.22434 -19.21997 -19.18662 -19.17719
 Alpha  occ. eigenvalues --  -19.16919 -19.16477 -19.15920 -14.38844 -14.37321
 Alpha  occ. eigenvalues --  -14.36988 -14.36387 -10.34726 -10.34115 -10.32182
 Alpha  occ. eigenvalues --  -10.29673 -10.29043 -10.27915 -10.27586 -10.27453
 Alpha  occ. eigenvalues --  -10.27438 -10.26353 -10.26299 -10.26284 -10.26253
 Alpha  occ. eigenvalues --  -10.26018 -10.26008 -10.25864 -10.25080 -10.25059
 Alpha  occ. eigenvalues --  -10.24265 -10.24228 -10.24159 -10.24086 -10.24077
 Alpha  occ. eigenvalues --  -10.24042 -10.24019 -10.23886 -10.23655 -10.23614
 Alpha  occ. eigenvalues --  -10.23448 -10.23383 -10.23288 -10.23111 -10.23057
 Alpha  occ. eigenvalues --  -10.22610 -10.22533 -10.22426 -10.22224 -10.22157
 Alpha  occ. eigenvalues --  -10.22133 -10.21901 -10.21765 -10.21738 -10.21554
 Alpha  occ. eigenvalues --  -10.21422 -10.21377 -10.21317 -10.21249 -10.20800
 Alpha  occ. eigenvalues --  -10.20704 -10.20663 -10.19869 -10.19592 -10.19479
 Alpha  occ. eigenvalues --  -10.18438  -3.10211  -1.85150  -1.84669  -1.84641
 Alpha  occ. eigenvalues --   -1.16215  -1.12872  -1.07662  -1.06546  -1.06109
 Alpha  occ. eigenvalues --   -1.05073  -1.04473  -1.02478  -1.01275  -0.99830
 Alpha  occ. eigenvalues --   -0.98608  -0.88269  -0.86908  -0.86314  -0.85549
 Alpha  occ. eigenvalues --   -0.85393  -0.84914  -0.84713  -0.84371  -0.83870
 Alpha  occ. eigenvalues --   -0.83520  -0.82610  -0.81360  -0.80612  -0.79738
 Alpha  occ. eigenvalues --   -0.79054  -0.78226  -0.77627  -0.77222  -0.76377
 Alpha  occ. eigenvalues --   -0.75276  -0.74684  -0.73939  -0.73210  -0.72550
 Alpha  occ. eigenvalues --   -0.71493  -0.70876  -0.70419  -0.70156  -0.70041
 Alpha  occ. eigenvalues --   -0.69354  -0.69281  -0.68069  -0.67535  -0.67019
 Alpha  occ. eigenvalues --   -0.66127  -0.65180  -0.64283  -0.63508  -0.61859
 Alpha  occ. eigenvalues --   -0.61239  -0.61189  -0.60918  -0.59645  -0.58894
 Alpha  occ. eigenvalues --   -0.58315  -0.57802  -0.57778  -0.57398  -0.56782
 Alpha  occ. eigenvalues --   -0.56629  -0.56412  -0.55895  -0.55124  -0.54598
 Alpha  occ. eigenvalues --   -0.54268  -0.53459  -0.53074  -0.52725  -0.52539
 Alpha  occ. eigenvalues --   -0.52140  -0.51608  -0.51416  -0.51273  -0.50652
 Alpha  occ. eigenvalues --   -0.50551  -0.50059  -0.49703  -0.49572  -0.49424
 Alpha  occ. eigenvalues --   -0.49180  -0.48723  -0.48121  -0.48024  -0.47819
 Alpha  occ. eigenvalues --   -0.47750  -0.47692  -0.47402  -0.47129  -0.46924
 Alpha  occ. eigenvalues --   -0.46774  -0.46470  -0.46371  -0.46249  -0.45913
 Alpha  occ. eigenvalues --   -0.45714  -0.45388  -0.45256  -0.45153  -0.45075
 Alpha  occ. eigenvalues --   -0.44673  -0.44597  -0.44181  -0.44109  -0.43898
 Alpha  occ. eigenvalues --   -0.43736  -0.43511  -0.43373  -0.43265  -0.42797
 Alpha  occ. eigenvalues --   -0.42603  -0.42390  -0.41890  -0.41863  -0.41564
 Alpha  occ. eigenvalues --   -0.41371  -0.41280  -0.41206  -0.41133  -0.40904
 Alpha  occ. eigenvalues --   -0.40766  -0.40630  -0.40508  -0.40463  -0.40322
 Alpha  occ. eigenvalues --   -0.39836  -0.39753  -0.39654  -0.39406  -0.39257
 Alpha  occ. eigenvalues --   -0.39066  -0.39002  -0.38755  -0.38682  -0.38484
 Alpha  occ. eigenvalues --   -0.38173  -0.37852  -0.37635  -0.37073  -0.37032
 Alpha  occ. eigenvalues --   -0.36736  -0.36699  -0.36401  -0.36066  -0.36024
 Alpha  occ. eigenvalues --   -0.35679  -0.35367  -0.35105  -0.34900  -0.34549
 Alpha  occ. eigenvalues --   -0.34514  -0.33653  -0.33596  -0.33381  -0.33127
 Alpha  occ. eigenvalues --   -0.32568  -0.32478  -0.32115  -0.32035  -0.31615
 Alpha  occ. eigenvalues --   -0.31512  -0.30868  -0.30596  -0.30193  -0.29417
 Alpha  occ. eigenvalues --   -0.29135  -0.28591  -0.27980  -0.27922  -0.27321
 Alpha  occ. eigenvalues --   -0.27149  -0.27068  -0.23154  -0.21624
 Alpha virt. eigenvalues --   -0.09009  -0.07019  -0.01943  -0.00629   0.00967
 Alpha virt. eigenvalues --    0.03426   0.03535   0.03893   0.04404   0.04658
 Alpha virt. eigenvalues --    0.05206   0.05642   0.07018   0.08461   0.09891

 Mulliken charges:
               1
     1  Mg   0.821857
     2  C    0.090562
     3  C   -0.156244
     4  C   -0.148265
     5  C   -0.183115
     6  N   -0.633585
     7  C    0.293986
     8  C   -0.161394
     9  C   -0.152567
    10  C    0.347161
    11  C   -0.313557
    12  C   -0.194704
    13  C   -0.248298
    14  C    0.594322
    15  O   -0.379250
    16  O   -0.478576
    17  N   -0.683240
    18  C    0.280643
    19  C    0.037853
    20  C   -0.042519
    21  C    0.295489
    22  C   -0.366034
    23  C    0.238121
    24  O   -0.419644
    25  N   -0.652719
    26  C    0.294317
    27  C    0.050022
    28  C   -0.003619
    29  C    0.263989
    30  C    0.186426
    31  C   -0.254017
    32  C   -0.316438
    33  N   -0.734519
    34  C    0.272600
    35  C    0.137840
    36  C   -0.025629
    37  C    0.365292
    38  C   -0.420942
    39  C    0.349815
    40  O   -0.455074
    41  C   -0.328745
    42  C    0.610557
    43  O   -0.458771
    44  O   -0.479809
    45  C   -0.076172
    46  C   -0.004357
    47  C   -0.143150
    48  C    0.167067
    49  C   -0.417429
    50  C   -0.253479
    51  C   -0.142128
    52  C   -0.167473
    53  C   -0.057214
    54  C   -0.289897
    55  C   -0.185444
    56  C   -0.191137
    57  C   -0.171083
    58  C   -0.036977
    59  C   -0.307936
    60  C   -0.165247
    61  C   -0.176068
    62  C   -0.159947
    63  C   -0.066589
    64  C   -0.288917
    65  C   -0.293580
    66  H    0.061301
    67  H    0.112691
    68  H    0.104965
    69  H    0.108286
    70  H    0.101252
    71  H    0.121823
    72  H    0.108967
    73  H    0.138577
    74  H    0.111161
    75  H    0.113788
    76  H    0.121596
    77  H    0.134666
    78  H    0.145183
    79  H    0.159909
    80  H    0.108206
    81  H    0.091344
    82  H    0.125673
    83  H    0.084000
    84  H    0.127944
    85  H    0.115867
    86  H    0.118872
    87  H    0.101962
    88  H    0.167450
    89  H    0.123680
    90  H    0.148884
    91  H    0.103879
    92  H    0.126770
    93  H    0.079309
    94  H    0.139400
    95  H    0.117198
    96  H    0.096120
    97  H    0.102301
    98  H    0.085286
    99  H    0.090262
   100  H    0.110424
   101  H    0.100830
   102  H    0.095361
   103  H    0.085942
   104  H    0.085676
   105  H    0.109965
   106  H    0.055893
   107  H    0.111105
   108  H    0.088182
   109  H    0.102079
   110  H    0.083804
   111  H    0.073000
   112  H    0.091771
   113  H    0.030296
   114  H    0.090057
   115  H    0.080499
   116  H    0.112577
   117  H    0.092726
   118  H    0.082542
   119  H    0.085095
   120  H    0.080261
   121  H    0.068822
   122  H    0.103283
   123  H    0.077480
   124  H    0.104571
   125  H    0.089259
   126  H    0.104048
   127  H    0.098678
   128  H    0.076235
   129  H    0.102757
   130  H    0.135322
   131  H    0.136930
   132  H    0.129681
   133  O   -0.451183
   134  H    0.065038
 Sum of Mulliken charges =   0.00000

 Dipole moment (field-independent basis, Debye):
    X=              0.8734    Y=             -5.5745    Z=             -1.4937  Tot=              5.8368
 Quadrupole moment (field-independent basis, Debye-Ang):
   XX=           -367.4046   YY=           -447.4342   ZZ=           -392.2115
   XY=             20.2705   XZ=             25.2018   YZ=            -31.3292

 Normal termination of Gaussian 09 at Mon Oct  7 15:03:45 2019.
