 Gaussian 09, Revision D.01,
 Gaussian 09:  ES64L-G09RevD.01 24-Apr-2013

 ----------------------------------------------------------------------
 # td=(NStates=1) iop(3/107=0140000000,3/108=0140000000) iop(3/107=0140
 000000,3/108=0140000000) CAM-B3LYP/6-31G(d,p)
 ----------------------------------------------------------------------

 --
 TD
 --
 Symbolic Z-matrix:
 Charge =  0 Multiplicity = 1

                         Standard orientation:
 ---------------------------------------------------------------------
 Center     Atomic      Atomic             Coordinates (Angstroms)
 Number     Number       Type             X           Y           Z
 ---------------------------------------------------------------------
      1         12           0       -5.538025    1.242762    0.204799
      2          6           0       -4.975277   -2.098457   -0.403608
      3          6           0       -3.456095    1.152512    2.916017
      4          6           0       -6.164274    4.582522    0.590892
      5          6           0       -8.003514    1.116517   -2.300612
      6          7           0       -4.456923   -0.202687    1.148181
      7          6           0       -4.204362   -1.645177    0.745751
      8          6           0       -3.250338   -2.339285    1.586635
      9          6           0       -2.984343   -1.340122    2.599154
     10          6           0       -3.730569   -0.045159    2.288023
     11          6           0       -3.290144   -1.818562    4.072069
     12          6           0       -1.995596   -2.741920    0.743429
     13          6           0       -0.935638   -3.600427    1.413315
     14          6           0        0.179737   -3.864483    0.573211
     15          8           0        0.435609   -3.497845   -0.493196
     16          8           0        1.162221   -4.645747    1.247556
     17          7           0       -4.905709    2.697355    1.496122
     18          6           0       -3.998347    2.431783    2.515333
     19          6           0       -3.791205    3.674841    3.182616
     20          6           0       -4.559110    4.615989    2.563570
     21          6           0       -5.254813    4.008411    1.478410
     22          6           0       -2.802972    3.956487    4.353896
     23          6           0       -4.666609    5.961770    2.838554
     24          8           0       -4.169486    6.682822    3.740014
     25          7           0       -6.830234    2.558233   -0.622572
     26          6           0       -6.854560    3.952579   -0.399952
     27          6           0       -7.778261    4.560721   -1.345059
     28          6           0       -8.475355    3.561849   -2.130927
     29          6           0       -7.721862    2.360877   -1.735100
     30          6           0       -8.145153    5.976867   -1.314125
     31          6           0       -9.390347    3.858984   -3.237804
     32          6           0       -8.665270    4.084270   -4.578986
     33          7           0       -6.311778   -0.110219   -1.116444
     34          6           0       -7.319835   -0.068212   -2.046098
     35          6           0       -7.505896   -1.409210   -2.663677
     36          6           0       -6.706181   -2.182128   -1.981382
     37          6           0       -5.967175   -1.402554   -1.091993
     38          6           0       -8.431746   -1.787890   -3.839199
     39          6           0       -6.212489   -3.540351   -2.015450
     40          8           0       -6.524708   -4.491127   -2.671596
     41          6           0       -5.076940   -3.588975   -0.924605
     42          6           0       -5.349719   -4.606623    0.160327
     43          8           0       -5.741391   -4.371055    1.306366
     44          8           0       -5.017333   -5.800000   -0.266944
     45          6           0       -5.475068   -6.911576    0.554239
     46          6           0        2.331569   -5.086422    0.612463
     47          6           0        3.402134   -4.182003    0.943836
     48          6           0        3.993735   -3.288770    0.057027
     49          6           0        3.707001   -3.147401   -1.430637
     50          6           0        5.099874   -2.322983    0.532652
     51          6           0        6.539377   -2.677398   -0.037189
     52          6           0        7.704796   -1.863441    0.565578
     53          6           0        8.993706   -2.044061   -0.185917
     54          6           0        9.483384   -3.500740    0.226663
     55          6           0        9.928693   -0.882928    0.314643
     56          6           0       11.322138   -1.005780   -0.312838
     57          6           0       12.101658    0.320164    0.097453
     58          6           0       13.574026    0.457735   -0.560598
     59          6           0       14.537010   -0.779711   -0.131226
     60          6           0       14.157582    1.819548   -0.237066
     61          6           0       15.428579    2.224745   -1.001896
     62          6           0       15.984504    3.579179   -0.658206
     63          6           0       17.356468    3.950076   -1.285604
     64          6           0       17.192554    4.053190   -2.868171
     65          6           0       17.834638    5.214952   -0.640109
     66          1           0       -2.656031    1.115772    3.705930
     67          1           0       -6.287057    5.796022    0.574778
     68          1           0       -8.769988    1.086452   -2.999569
     69          1           0       -3.759682   -3.368465    1.825179
     70          1           0       -1.828783   -0.993518    2.635424
     71          1           0       -2.743997   -2.752095    4.347932
     72          1           0       -3.231315   -1.131782    4.808194
     73          1           0       -4.505328   -2.072731    4.094982
     74          1           0       -2.285709   -3.154258   -0.153680
     75          1           0       -1.667972   -1.729411    0.392964
     76          1           0       -0.498156   -3.148827    2.377737
     77          1           0       -1.347795   -4.595486    1.587822
     78          1           0       -1.634486    3.759114    4.027856
     79          1           0       -2.879978    5.024217    4.712532
     80          1           0       -2.854590    3.104515    5.138881
     81          1           0       -5.326189    6.526184    2.088593
     82          1           0      -10.079408    3.012539   -3.160224
     83          1           0      -10.094852    4.761994   -2.758910
     84          1           0       -9.438427    4.057151   -5.379300
     85          1           0       -8.112146    4.961641   -4.692059
     86          1           0       -8.135730    3.096336   -4.741649
     87          1           0       -8.304761   -1.232972   -4.744056
     88          1           0       -8.463927   -2.902021   -3.996684
     89          1           0       -9.601974   -1.532403   -3.634856
     90          1           0       -4.105398   -3.848858   -1.460274
     91          1           0        2.539781   -6.149241    0.839286
     92          1           0        2.265754   -5.242456   -0.429268
     93          1           0        3.691539   -4.021091    2.017050
     94          1           0        2.674693   -3.428758   -1.596585
     95          1           0        3.789067   -2.082491   -1.728151
     96          1           0        4.467832   -3.826566   -2.053589
     97          1           0        4.943172   -1.315132    0.299313
     98          1           0        5.254444   -2.338387    1.594304
     99          1           0        6.637838   -3.586243    0.240877
    100          1           0        6.602002   -2.510830   -1.248926
    101          1           0        7.341404   -0.865633    0.355242
    102          1           0        7.927818   -1.875223    1.597541
    103          1           0        8.692871   -2.103266   -1.236490
    104          1           0        8.904777   -4.329193   -0.167966
    105          1           0       10.421682   -3.841529   -0.116862
    106          1           0        9.420595   -3.527997    1.332677
    107          1           0        9.546887    0.191966   -0.045255
    108          1           0       10.037155   -0.821358    1.437270
    109          1           0       11.734784   -1.963875    0.100691
    110          1           0       11.385588   -1.026863   -1.465428
    111          1           0       11.440267    1.115862    0.179048
    112          1           0       12.285896    0.291219    1.230376
    113          1           0       13.358965    0.225395   -1.580448
    114          1           0       14.812413   -0.551297    0.908980
    115          1           0       13.899550   -1.692630   -0.378907
    116          1           0       15.483729   -0.842747   -0.695850
    117          1           0       13.342683    2.625544   -0.462510
    118          1           0       14.591905    1.872145    0.798944
    119          1           0       16.110498    1.548350   -0.952735
    120          1           0       15.264425    1.957991   -2.255350
    121          1           0       15.233030    4.475926   -0.964740
    122          1           0       15.976459    3.750835    0.572847
    123          1           0       18.016370    2.976931   -1.158836
    124          1           0       16.310123    4.716084   -2.833167
    125          1           0       18.010526    4.525650   -3.362163
    126          1           0       16.918183    3.130733   -3.197348
    127          1           0       18.371937    5.055404    0.319811
    128          1           0       18.742472    5.443321   -1.112328
    129          1           0       17.107936    5.823420   -0.647859
    130          1           0       -5.056995   -7.704873   -0.031363
    131          1           0       -6.445362   -6.736022    0.910286
    132          1           0       -4.918339   -7.028001    1.546873
    133          8           0       -7.890605    6.852353   -0.440134
    134          1           0       -8.852917    6.275789   -2.334309
 ---------------------------------------------------------------------

 SCF Done:  E(RCAM-B3LYP) =  -3043.49155372     A.U. after   16 cycles

 Excitation energies and oscillator strengths:

 Excited State   1:      Singlet-A      1.9510 eV  635.48 nm  f=0.1842  <S**2>=0.000
     243 -> 246       -0.25314
     244 -> 245        0.65205
 This state for optimization and/or second-order correction.
 Total Energy, E(TD-HF/TD-KS) =  -3043.41985503
 Copying the excited state density for this state as the 1-particle RhoCI density.

 The electronic state is 1-A.
 Alpha  occ. eigenvalues --  -46.80780 -19.24323 -19.19880 -19.18520 -19.18228
 Alpha  occ. eigenvalues --  -19.17994 -19.17640 -19.15432 -14.39797 -14.37412
 Alpha  occ. eigenvalues --  -14.37185 -14.36787 -10.36122 -10.34984 -10.32306
 Alpha  occ. eigenvalues --  -10.31715 -10.29427 -10.28469 -10.28416 -10.27909
 Alpha  occ. eigenvalues --  -10.27213 -10.27121 -10.26719 -10.26425 -10.26127
 Alpha  occ. eigenvalues --  -10.26069 -10.26054 -10.26046 -10.25845 -10.25717
 Alpha  occ. eigenvalues --  -10.25636 -10.25464 -10.25356 -10.25230 -10.25181
 Alpha  occ. eigenvalues --  -10.24629 -10.24303 -10.24197 -10.24100 -10.24033
 Alpha  occ. eigenvalues --  -10.24021 -10.23768 -10.23700 -10.23346 -10.23309
 Alpha  occ. eigenvalues --  -10.23211 -10.22741 -10.22377 -10.22112 -10.22088
 Alpha  occ. eigenvalues --  -10.21906 -10.21788 -10.21608 -10.21547 -10.21515
 Alpha  occ. eigenvalues --  -10.21436 -10.21087 -10.20994 -10.20693 -10.20648
 Alpha  occ. eigenvalues --  -10.20628 -10.20529 -10.19897 -10.19364 -10.18896
 Alpha  occ. eigenvalues --  -10.18175  -3.09545  -1.84470  -1.84020  -1.83968
 Alpha  occ. eigenvalues --   -1.15701  -1.14489  -1.09428  -1.05447  -1.05180
 Alpha  occ. eigenvalues --   -1.04439  -1.03112  -1.01940  -1.00069  -0.98620
 Alpha  occ. eigenvalues --   -0.97078  -0.89129  -0.87935  -0.86007  -0.85352
 Alpha  occ. eigenvalues --   -0.84900  -0.84521  -0.84325  -0.84075  -0.83281
 Alpha  occ. eigenvalues --   -0.83000  -0.82893  -0.82320  -0.81146  -0.79800
 Alpha  occ. eigenvalues --   -0.79361  -0.78575  -0.78164  -0.77603  -0.76192
 Alpha  occ. eigenvalues --   -0.75194  -0.74826  -0.74299  -0.73829  -0.72244
 Alpha  occ. eigenvalues --   -0.72144  -0.70857  -0.70709  -0.70189  -0.69574
 Alpha  occ. eigenvalues --   -0.69307  -0.68951  -0.67768  -0.67355  -0.66892
 Alpha  occ. eigenvalues --   -0.66087  -0.64539  -0.64422  -0.62905  -0.62462
 Alpha  occ. eigenvalues --   -0.61817  -0.61509  -0.60106  -0.59600  -0.59514
 Alpha  occ. eigenvalues --   -0.59340  -0.58517  -0.58037  -0.57551  -0.57244
 Alpha  occ. eigenvalues --   -0.56529  -0.56253  -0.55893  -0.55183  -0.54708
 Alpha  occ. eigenvalues --   -0.54359  -0.53944  -0.53494  -0.52828  -0.52443
 Alpha  occ. eigenvalues --   -0.52298  -0.51713  -0.51391  -0.51187  -0.50883
 Alpha  occ. eigenvalues --   -0.50367  -0.50179  -0.50011  -0.49275  -0.48910
 Alpha  occ. eigenvalues --   -0.48798  -0.48745  -0.48561  -0.48086  -0.47888
 Alpha  occ. eigenvalues --   -0.47542  -0.47449  -0.47239  -0.47147  -0.46757
 Alpha  occ. eigenvalues --   -0.46572  -0.46316  -0.46225  -0.45793  -0.45547
 Alpha  occ. eigenvalues --   -0.45420  -0.45268  -0.45093  -0.44849  -0.44766
 Alpha  occ. eigenvalues --   -0.44555  -0.44459  -0.44110  -0.43935  -0.43735
 Alpha  occ. eigenvalues --   -0.43720  -0.43581  -0.43376  -0.43183  -0.43034
 Alpha  occ. eigenvalues --   -0.42783  -0.42484  -0.42333  -0.42147  -0.41883
 Alpha  occ. eigenvalues --   -0.41826  -0.41508  -0.41248  -0.41105  -0.41005
 Alpha  occ. eigenvalues --   -0.40774  -0.40728  -0.40504  -0.40155  -0.40097
 Alpha  occ. eigenvalues --   -0.39893  -0.39761  -0.39723  -0.39591  -0.39410
 Alpha  occ. eigenvalues --   -0.39090  -0.39023  -0.38592  -0.38548  -0.38361
 Alpha  occ. eigenvalues --   -0.38349  -0.38045  -0.37899  -0.37762  -0.37471
 Alpha  occ. eigenvalues --   -0.36924  -0.36657  -0.36380  -0.36135  -0.36023
 Alpha  occ. eigenvalues --   -0.35958  -0.35795  -0.35397  -0.35049  -0.34960
 Alpha  occ. eigenvalues --   -0.34692  -0.34222  -0.34154  -0.33653  -0.33094
 Alpha  occ. eigenvalues --   -0.32531  -0.32458  -0.32300  -0.31928  -0.31429
 Alpha  occ. eigenvalues --   -0.31401  -0.31014  -0.30980  -0.30446  -0.29970
 Alpha  occ. eigenvalues --   -0.29789  -0.29002  -0.28108  -0.27571  -0.27473
 Alpha  occ. eigenvalues --   -0.26118  -0.26050  -0.23409  -0.21880
 Alpha virt. eigenvalues --   -0.09154  -0.07145  -0.02561  -0.00885   0.00141
 Alpha virt. eigenvalues --    0.01958   0.02628   0.03347   0.03801   0.04336
 Alpha virt. eigenvalues --    0.04994   0.05764   0.07212   0.08053   0.08821

 Mulliken charges:
               1
     1  Mg   0.819077
     2  C    0.010896
     3  C   -0.190298
     4  C   -0.182748
     5  C   -0.167566
     6  N   -0.645198
     7  C    0.261433
     8  C   -0.128997
     9  C   -0.166001
    10  C    0.399438
    11  C   -0.306328
    12  C   -0.180965
    13  C   -0.261707
    14  C    0.597394
    15  O   -0.414078
    16  O   -0.505577
    17  N   -0.742083
    18  C    0.308651
    19  C    0.051689
    20  C    0.039012
    21  C    0.334990
    22  C   -0.381195
    23  C    0.195346
    24  O   -0.459884
    25  N   -0.692777
    26  C    0.345119
    27  C   -0.027534
    28  C    0.052301
    29  C    0.272085
    30  C    0.226191
    31  C   -0.247528
    32  C   -0.301947
    33  N   -0.707454
    34  C    0.251840
    35  C    0.045174
    36  C    0.055615
    37  C    0.330938
    38  C   -0.391765
    39  C    0.362572
    40  O   -0.434323
    41  C   -0.327325
    42  C    0.616179
    43  O   -0.490018
    44  O   -0.419656
    45  C   -0.093411
    46  C    0.013631
    47  C   -0.129262
    48  C    0.124060
    49  C   -0.371937
    50  C   -0.239936
    51  C   -0.166390
    52  C   -0.168872
    53  C   -0.055215
    54  C   -0.325834
    55  C   -0.177048
    56  C   -0.175533
    57  C   -0.185084
    58  C   -0.063183
    59  C   -0.322280
    60  C   -0.163064
    61  C   -0.151727
    62  C   -0.150086
    63  C   -0.082309
    64  C   -0.296648
    65  C   -0.286337
    66  H    0.095295
    67  H    0.158577
    68  H    0.077948
    69  H    0.142875
    70  H    0.099730
    71  H    0.111297
    72  H    0.126375
    73  H    0.095678
    74  H    0.120197
    75  H    0.116887
    76  H    0.150790
    77  H    0.151122
    78  H    0.097741
    79  H    0.167693
    80  H    0.109986
    81  H    0.059217
    82  H    0.118161
    83  H    0.102110
    84  H    0.115079
    85  H    0.139124
    86  H    0.113256
    87  H    0.140469
    88  H    0.151744
    89  H    0.102726
    90  H    0.159807
    91  H    0.100715
    92  H    0.110947
    93  H    0.077679
    94  H    0.143235
    95  H    0.112015
    96  H    0.104498
    97  H    0.101865
    98  H    0.093064
    99  H    0.111849
   100  H    0.064943
   101  H    0.084590
   102  H    0.089315
   103  H    0.084805
   104  H    0.105729
   105  H    0.101665
   106  H    0.095392
   107  H    0.077995
   108  H    0.096258
   109  H    0.102240
   110  H    0.083758
   111  H    0.098471
   112  H    0.067762
   113  H    0.090425
   114  H    0.105166
   115  H    0.102234
   116  H    0.103751
   117  H    0.084456
   118  H    0.089578
   119  H    0.110368
   120  H    0.032955
   121  H    0.063279
   122  H    0.061941
   123  H    0.061318
   124  H    0.093431
   125  H    0.103379
   126  H    0.114346
   127  H    0.098631
   128  H    0.101697
   129  H    0.109151
   130  H    0.140743
   131  H    0.155357
   132  H    0.114833
   133  O   -0.435769
   134  H    0.029528
 Sum of Mulliken charges =   0.00000

 Dipole moment (field-independent basis, Debye):
    X=              1.0537    Y=             -7.9966    Z=             -2.7527  Tot=              8.5225
 Quadrupole moment (field-independent basis, Debye-Ang):
   XX=           -380.4353   YY=           -445.7908   ZZ=           -394.8902
   XY=             32.0453   XZ=             37.0513   YZ=            -38.2496

 Normal termination of Gaussian 09 at Thu Oct  3 13:58:38 2019.
