 Gaussian 09, Revision D.01,
 Gaussian 09:  ES64L-G09RevD.01 24-Apr-2013

 ----------------------------------------------------------------------
 # td=(NStates=1) iop(3/107=0140000000,3/108=0140000000) iop(3/107=0140
 000000,3/108=0140000000) CAM-B3LYP/6-31G(d,p)
 ----------------------------------------------------------------------

 --
 TD
 --
 Symbolic Z-matrix:
 Charge =  0 Multiplicity = 1

                         Standard orientation:
 ---------------------------------------------------------------------
 Center     Atomic      Atomic             Coordinates (Angstroms)
 Number     Number       Type             X           Y           Z
 ---------------------------------------------------------------------
      1         12           0       -5.649619    1.229170    0.182287
      2          6           0       -5.024154   -2.121225   -0.469000
      3          6           0       -3.435210    1.101308    2.763001
      4          6           0       -6.214183    4.561025    0.675547
      5          6           0       -8.120843    1.151413   -2.272490
      6          7           0       -4.369575   -0.367001    1.064574
      7          6           0       -4.269844   -1.685294    0.590146
      8          6           0       -3.161057   -2.448626    1.450661
      9          6           0       -2.840766   -1.384011    2.560241
     10          6           0       -3.549509   -0.098937    2.012047
     11          6           0       -3.485675   -1.753594    3.934618
     12          6           0       -2.018155   -2.766284    0.560245
     13          6           0       -0.994216   -3.622967    1.307485
     14          6           0        0.220124   -3.884855    0.476859
     15          8           0        0.490638   -3.548246   -0.638965
     16          8           0        1.031843   -4.714713    1.226211
     17          7           0       -4.956678    2.548917    1.590925
     18          6           0       -4.024198    2.321929    2.548876
     19          6           0       -3.752286    3.579703    3.324322
     20          6           0       -4.575200    4.499595    2.753636
     21          6           0       -5.340671    3.922157    1.596119
     22          6           0       -2.776234    3.705012    4.425295
     23          6           0       -4.718422    5.952460    3.105178
     24          8           0       -3.966951    6.571724    3.937448
     25          7           0       -6.849273    2.639638   -0.644513
     26          6           0       -6.904903    4.025686   -0.350411
     27          6           0       -7.761206    4.673810   -1.220508
     28          6           0       -8.384196    3.763071   -2.155447
     29          6           0       -7.719999    2.517086   -1.778355
     30          6           0       -8.243193    6.044904   -1.191779
     31          6           0       -9.267192    3.867529   -3.288953
     32          6           0       -8.568382    4.111217   -4.667467
     33          7           0       -6.451543   -0.201398   -1.072892
     34          6           0       -7.399765   -0.068228   -2.011903
     35          6           0       -7.581922   -1.300589   -2.691913
     36          6           0       -6.717700   -2.159389   -2.137576
     37          6           0       -6.073160   -1.412375   -1.168375
     38          6           0       -8.604538   -1.552025   -3.807055
     39          6           0       -6.263657   -3.580641   -2.019508
     40          8           0       -6.621287   -4.498130   -2.774113
     41          6           0       -5.097114   -3.562916   -0.881668
     42          6           0       -5.333492   -4.666084    0.149083
     43          8           0       -5.637964   -4.415753    1.283643
     44          8           0       -5.225116   -5.849017   -0.397351
     45          6           0       -5.303890   -6.956368    0.536571
     46          6           0        2.309556   -4.997031    0.650523
     47          6           0        3.351807   -3.972846    1.011241
     48          6           0        4.003850   -3.084199    0.269989
     49          6           0        3.685902   -2.910657   -1.238822
     50          6           0        5.133209   -2.250019    0.703667
     51          6           0        6.516065   -2.597556    0.124192
     52          6           0        7.665142   -1.719127    0.630366
     53          6           0        8.998138   -1.995042    0.003889
     54          6           0        9.447271   -3.544810    0.113604
     55          6           0        9.977287   -0.952990    0.546156
     56          6           0       11.346067   -0.869665   -0.207900
     57          6           0       12.356941    0.151181    0.288670
     58          6           0       13.622488    0.458673   -0.662311
     59          6           0       14.553700   -0.685740   -0.460335
     60          6           0       14.077232    1.817255   -0.330253
     61          6           0       15.510678    2.192383   -1.064473
     62          6           0       16.082132    3.501547   -0.606053
     63          6           0       17.348267    3.851873   -1.325974
     64          6           0       17.236839    3.959071   -2.817850
     65          6           0       17.899061    5.211544   -0.805630
     66          1           0       -2.732336    1.188674    3.502553
     67          1           0       -6.298122    5.553656    0.992235
     68          1           0       -8.679821    1.166416   -3.125040
     69          1           0       -3.667023   -3.355256    1.934909
     70          1           0       -1.838206   -1.193881    2.684055
     71          1           0       -3.112462   -2.740654    4.127814
     72          1           0       -3.189730   -1.029251    4.825205
     73          1           0       -4.566600   -1.874753    3.705883
     74          1           0       -2.077130   -3.302265   -0.351237
     75          1           0       -1.378295   -2.070108    0.393446
     76          1           0       -0.557947   -3.207807    2.197058
     77          1           0       -1.547897   -4.575139    1.712005
     78          1           0       -1.730526    3.312372    3.874829
     79          1           0       -2.504715    4.742332    4.865118
     80          1           0       -3.254002    3.167251    5.221877
     81          1           0       -5.424974    6.553889    2.201404
     82          1           0       -9.615471    2.873032   -3.417172
     83          1           0       -9.843091    4.762370   -3.062733
     84          1           0       -9.276632    4.691135   -5.417816
     85          1           0       -8.081085    5.091782   -4.695285
     86          1           0       -8.034799    3.275804   -5.022973
     87          1           0       -8.390500   -1.122151   -4.882969
     88          1           0       -8.700841   -2.551904   -3.866167
     89          1           0       -9.485179   -0.949858   -3.593652
     90          1           0       -4.130978   -3.907394   -1.462013
     91          1           0        2.859329   -5.902222    1.196453
     92          1           0        2.282405   -5.143526   -0.388750
     93          1           0        3.546679   -3.964563    2.047847
     94          1           0        2.669283   -3.510596   -1.444067
     95          1           0        3.825058   -1.847153   -1.346657
     96          1           0        4.236321   -3.535451   -1.767533
     97          1           0        4.896391   -1.254472    0.470717
     98          1           0        5.115014   -2.290409    1.820983
     99          1           0        6.871556   -3.607568    0.370823
    100          1           0        6.499151   -2.427367   -0.911729
    101          1           0        7.516884   -0.810955    0.660755
    102          1           0        7.732574   -1.981172    1.585612
    103          1           0        8.980613   -1.808862   -1.030065
    104          1           0        8.943255   -4.202802   -0.461171
    105          1           0       10.571425   -3.574605   -0.128070
    106          1           0        9.327661   -3.848705    1.218064
    107          1           0        9.170804    0.076093    0.389260
    108          1           0       10.137607   -1.032596    1.605304
    109          1           0       11.638790   -1.989991    0.032559
    110          1           0       11.300124   -0.664698   -1.381955
    111          1           0       11.668359    1.081568    0.250999
    112          1           0       12.838229   -0.273082    1.184076
    113          1           0       13.295522    0.359973   -1.751496
    114          1           0       15.241487   -0.565677    0.526518
    115          1           0       13.922093   -1.650498   -0.481487
    116          1           0       15.331742   -0.982697   -1.172698
    117          1           0       13.297618    2.604912   -0.598405
    118          1           0       14.425437    1.805964    0.650486
    119          1           0       16.209019    1.315041   -0.881999
    120          1           0       15.253741    2.425831   -2.076298
    121          1           0       15.283587    4.351007   -0.773731
    122          1           0       16.021282    3.556126    0.650572
    123          1           0       17.986617    3.156160   -1.064928
    124          1           0       16.275752    4.603458   -3.201647
    125          1           0       18.311470    4.182261   -3.215888
    126          1           0       16.900617    3.146741   -3.346190
    127          1           0       18.196740    5.087867    0.306962
    128          1           0       18.826325    5.305459   -1.440333
    129          1           0       17.306067    6.080465   -1.226990
    130          1           0       -5.234167   -7.875867   -0.104447
    131          1           0       -6.206266   -7.103352    1.019183
    132          1           0       -4.551707   -6.810623    1.303730
    133          8           0       -7.847114    6.901699   -0.399273
    134          1           0       -9.110566    6.326598   -1.971942
 ---------------------------------------------------------------------

 SCF Done:  E(RCAM-B3LYP) =  -3043.41708194     A.U. after   15 cycles

 Excitation energies and oscillator strengths:

 Excited State   1:      Singlet-A      2.0620 eV  601.28 nm  f=0.1607  <S**2>=0.000
     243 -> 246        0.26774
     244 -> 245        0.64441
 This state for optimization and/or second-order correction.
 Total Energy, E(TD-HF/TD-KS) =  -3043.34130434
 Copying the excited state density for this state as the 1-particle RhoCI density.

 The electronic state is 1-A.
 Alpha  occ. eigenvalues --  -46.82136 -19.24197 -19.22133 -19.18677 -19.17898
 Alpha  occ. eigenvalues --  -19.17767 -19.17597 -19.16497 -14.38861 -14.36935
 Alpha  occ. eigenvalues --  -14.36651 -14.36565 -10.35667 -10.35582 -10.32555
 Alpha  occ. eigenvalues --  -10.32343 -10.30477 -10.28065 -10.27751 -10.27734
 Alpha  occ. eigenvalues --  -10.27669 -10.27265 -10.26940 -10.26833 -10.26151
 Alpha  occ. eigenvalues --  -10.25891 -10.25889 -10.25288 -10.25263 -10.25207
 Alpha  occ. eigenvalues --  -10.25204 -10.24806 -10.24334 -10.24228 -10.24206
 Alpha  occ. eigenvalues --  -10.24115 -10.24060 -10.23953 -10.23592 -10.23241
 Alpha  occ. eigenvalues --  -10.22830 -10.22807 -10.22782 -10.22726 -10.22543
 Alpha  occ. eigenvalues --  -10.22405 -10.21907 -10.21862 -10.21854 -10.21810
 Alpha  occ. eigenvalues --  -10.21593 -10.21573 -10.21492 -10.21431 -10.21275
 Alpha  occ. eigenvalues --  -10.21225 -10.21089 -10.20980 -10.20910 -10.20681
 Alpha  occ. eigenvalues --  -10.20671 -10.20610 -10.20259 -10.20028 -10.19763
 Alpha  occ. eigenvalues --  -10.17348  -3.10557  -1.85506  -1.85014  -1.84966
 Alpha  occ. eigenvalues --   -1.15922  -1.13881  -1.06487  -1.06016  -1.05985
 Alpha  occ. eigenvalues --   -1.05374  -1.03832  -1.03474  -1.00656  -0.98347
 Alpha  occ. eigenvalues --   -0.97085  -0.88564  -0.87422  -0.86546  -0.86025
 Alpha  occ. eigenvalues --   -0.85521  -0.84810  -0.84777  -0.83992  -0.83950
 Alpha  occ. eigenvalues --   -0.83448  -0.82958  -0.82132  -0.80474  -0.80029
 Alpha  occ. eigenvalues --   -0.79232  -0.78361  -0.78263  -0.77568  -0.76625
 Alpha  occ. eigenvalues --   -0.75158  -0.74981  -0.74126  -0.73536  -0.72667
 Alpha  occ. eigenvalues --   -0.71939  -0.70774  -0.70455  -0.70353  -0.70225
 Alpha  occ. eigenvalues --   -0.69463  -0.69125  -0.67463  -0.66952  -0.66521
 Alpha  occ. eigenvalues --   -0.65597  -0.64653  -0.64379  -0.63173  -0.62872
 Alpha  occ. eigenvalues --   -0.62148  -0.61596  -0.60761  -0.60088  -0.59443
 Alpha  occ. eigenvalues --   -0.58603  -0.58016  -0.57806  -0.57646  -0.57191
 Alpha  occ. eigenvalues --   -0.56547  -0.55917  -0.55733  -0.55291  -0.54611
 Alpha  occ. eigenvalues --   -0.54248  -0.53891  -0.53393  -0.53003  -0.52766
 Alpha  occ. eigenvalues --   -0.52276  -0.52052  -0.51948  -0.51469  -0.51305
 Alpha  occ. eigenvalues --   -0.51145  -0.50781  -0.50079  -0.49901  -0.49732
 Alpha  occ. eigenvalues --   -0.49154  -0.48814  -0.48553  -0.48439  -0.48341
 Alpha  occ. eigenvalues --   -0.48181  -0.47924  -0.47514  -0.47292  -0.46788
 Alpha  occ. eigenvalues --   -0.46719  -0.46677  -0.46307  -0.46252  -0.45983
 Alpha  occ. eigenvalues --   -0.45761  -0.45509  -0.45397  -0.45174  -0.45002
 Alpha  occ. eigenvalues --   -0.44795  -0.44582  -0.44246  -0.43901  -0.43770
 Alpha  occ. eigenvalues --   -0.43724  -0.43453  -0.43233  -0.43194  -0.42869
 Alpha  occ. eigenvalues --   -0.42547  -0.42380  -0.42252  -0.41899  -0.41702
 Alpha  occ. eigenvalues --   -0.41589  -0.41478  -0.41072  -0.40975  -0.40867
 Alpha  occ. eigenvalues --   -0.40704  -0.40652  -0.40445  -0.40137  -0.40057
 Alpha  occ. eigenvalues --   -0.39960  -0.39759  -0.39659  -0.39528  -0.39429
 Alpha  occ. eigenvalues --   -0.39050  -0.39037  -0.38931  -0.38715  -0.38331
 Alpha  occ. eigenvalues --   -0.38231  -0.38119  -0.37549  -0.37350  -0.37154
 Alpha  occ. eigenvalues --   -0.37006  -0.36852  -0.36471  -0.36197  -0.35713
 Alpha  occ. eigenvalues --   -0.35170  -0.34979  -0.34866  -0.34845  -0.34585
 Alpha  occ. eigenvalues --   -0.34477  -0.34370  -0.34054  -0.33930  -0.33356
 Alpha  occ. eigenvalues --   -0.33040  -0.32294  -0.32259  -0.32078  -0.31777
 Alpha  occ. eigenvalues --   -0.31412  -0.31349  -0.30984  -0.30222  -0.29889
 Alpha  occ. eigenvalues --   -0.29278  -0.28442  -0.28017  -0.27647  -0.27343
 Alpha  occ. eigenvalues --   -0.27157  -0.26897  -0.23360  -0.21500
 Alpha virt. eigenvalues --   -0.08336  -0.06854  -0.01990  -0.01219   0.00599
 Alpha virt. eigenvalues --    0.02657   0.03191   0.03324   0.04326   0.05028
 Alpha virt. eigenvalues --    0.05080   0.05516   0.07255   0.08394   0.09377

 Mulliken charges:
               1
     1  Mg   0.835081
     2  C    0.063478
     3  C   -0.164364
     4  C   -0.153832
     5  C   -0.144544
     6  N   -0.598135
     7  C    0.268789
     8  C   -0.166813
     9  C   -0.142335
    10  C    0.352472
    11  C   -0.304819
    12  C   -0.144640
    13  C   -0.290676
    14  C    0.608383
    15  O   -0.450708
    16  O   -0.468427
    17  N   -0.734701
    18  C    0.324759
    19  C    0.064224
    20  C   -0.027957
    21  C    0.287433
    22  C   -0.371762
    23  C    0.234086
    24  O   -0.429906
    25  N   -0.695063
    26  C    0.355271
    27  C   -0.021462
    28  C    0.071016
    29  C    0.208257
    30  C    0.227598
    31  C   -0.242728
    32  C   -0.310146
    33  N   -0.697234
    34  C    0.260514
    35  C   -0.031055
    36  C    0.064934
    37  C    0.296923
    38  C   -0.363459
    39  C    0.371025
    40  O   -0.454578
    41  C   -0.329501
    42  C    0.616753
    43  O   -0.473609
    44  O   -0.416186
    45  C   -0.100306
    46  C    0.009988
    47  C   -0.152948
    48  C    0.130165
    49  C   -0.362759
    50  C   -0.239344
    51  C   -0.178458
    52  C   -0.143866
    53  C   -0.053890
    54  C   -0.330999
    55  C   -0.159203
    56  C   -0.173439
    57  C   -0.168759
    58  C   -0.036512
    59  C   -0.318871
    60  C   -0.165927
    61  C   -0.185780
    62  C   -0.153847
    63  C   -0.028271
    64  C   -0.312979
    65  C   -0.301099
    66  H    0.062294
    67  H    0.104617
    68  H    0.079835
    69  H    0.126506
    70  H    0.103637
    71  H    0.115502
    72  H    0.105804
    73  H    0.131485
    74  H    0.126563
    75  H    0.127984
    76  H    0.142707
    77  H    0.123383
    78  H    0.105184
    79  H    0.161185
    80  H    0.142287
    81  H    0.069096
    82  H    0.121826
    83  H    0.114767
    84  H    0.094068
    85  H    0.116970
    86  H    0.125856
    87  H    0.111391
    88  H    0.149613
    89  H    0.120645
    90  H    0.151201
    91  H    0.106239
    92  H    0.116217
    93  H    0.070714
    94  H    0.117872
    95  H    0.105091
    96  H    0.133035
    97  H    0.104281
    98  H    0.083690
    99  H    0.097846
   100  H    0.099970
   101  H    0.080408
   102  H    0.096922
   103  H    0.092759
   104  H    0.122394
   105  H    0.091789
   106  H    0.087631
   107  H    0.030495
   108  H    0.099796
   109  H    0.078203
   110  H    0.075701
   111  H    0.088786
   112  H    0.099174
   113  H    0.071823
   114  H    0.074610
   115  H    0.096167
   116  H    0.106747
   117  H    0.087892
   118  H    0.100386
   119  H    0.088208
   120  H    0.099880
   121  H    0.066973
   122  H    0.045626
   123  H    0.100597
   124  H    0.075671
   125  H    0.093931
   126  H    0.117149
   127  H    0.096226
   128  H    0.083638
   129  H    0.105032
   130  H    0.130513
   131  H    0.148031
   132  H    0.130209
   133  O   -0.432250
   134  H    0.044272
 Sum of Mulliken charges =   0.00000

 Dipole moment (field-independent basis, Debye):
    X=              2.7579    Y=             -6.2979    Z=             -0.9041  Tot=              6.9345
 Quadrupole moment (field-independent basis, Debye-Ang):
   XX=           -385.4651   YY=           -442.3316   ZZ=           -392.8688
   XY=              9.8362   XZ=             15.2120   YZ=            -39.2119

 Normal termination of Gaussian 09 at Fri Oct  4 06:47:12 2019.
