 Gaussian 09, Revision D.01,
 Gaussian 09:  ES64L-G09RevD.01 24-Apr-2013

 ----------------------------------------------------------------------
 # td=(NStates=1) iop(3/107=0140000000,3/108=0140000000) iop(3/107=0140
 000000,3/108=0140000000) CAM-B3LYP/6-31G(d,p)
 ----------------------------------------------------------------------

 --
 TD
 --
 Symbolic Z-matrix:
 Charge =  0 Multiplicity = 1

                         Standard orientation:
 ---------------------------------------------------------------------
 Center     Atomic      Atomic             Coordinates (Angstroms)
 Number     Number       Type             X           Y           Z
 ---------------------------------------------------------------------
      1         12           0       -5.574678    1.300292    0.148306
      2          6           0       -5.026705   -2.250401   -0.367568
      3          6           0       -3.471773    1.132671    2.772337
      4          6           0       -6.158225    4.612999    0.587009
      5          6           0       -7.995174    1.193586   -2.358503
      6          7           0       -4.362500   -0.281999    1.046500
      7          6           0       -4.219463   -1.616136    0.649837
      8          6           0       -3.177832   -2.285881    1.477252
      9          6           0       -2.977179   -1.316825    2.663445
     10          6           0       -3.630496    0.010687    2.113767
     11          6           0       -3.630457   -1.819719    3.984091
     12          6           0       -1.926430   -2.638757    0.713482
     13          6           0       -1.009456   -3.595024    1.478188
     14          6           0        0.292655   -3.899229    0.639960
     15          8           0        0.448915   -3.575020   -0.545171
     16          8           0        1.080055   -4.694949    1.340560
     17          7           0       -4.945777    2.683400    1.413732
     18          6           0       -4.069496    2.473745    2.386013
     19          6           0       -3.687283    3.641477    3.095520
     20          6           0       -4.463985    4.612101    2.474866
     21          6           0       -5.246165    4.024913    1.375848
     22          6           0       -2.776553    3.822571    4.289987
     23          6           0       -4.506727    6.062215    2.757770
     24          8           0       -3.962833    6.688603    3.697363
     25          7           0       -6.875643    2.606803   -0.687184
     26          6           0       -7.020842    3.933086   -0.299357
     27          6           0       -8.098952    4.588401   -1.124032
     28          6           0       -8.482422    3.651763   -1.985378
     29          6           0       -7.746876    2.435078   -1.704251
     30          6           0       -8.430910    5.950799   -1.019970
     31          6           0       -9.372773    3.922601   -3.114532
     32          6           0       -8.736739    3.988857   -4.487684
     33          7           0       -6.303276   -0.174570   -1.152224
     34          6           0       -7.285815   -0.064187   -2.115634
     35          6           0       -7.524792   -1.343098   -2.669705
     36          6           0       -6.715700   -2.242018   -2.008618
     37          6           0       -5.925285   -1.453664   -1.137256
     38          6           0       -8.469838   -1.718471   -3.877805
     39          6           0       -6.224040   -3.636651   -1.969993
     40          8           0       -6.547488   -4.525687   -2.615354
     41          6           0       -4.996949   -3.645848   -0.855431
     42          6           0       -5.306601   -4.646420    0.179291
     43          8           0       -5.587051   -4.466289    1.347180
     44          8           0       -5.104817   -5.912388   -0.351298
     45          6           0       -5.348096   -7.010465    0.524796
     46          6           0        2.323196   -5.041059    0.696401
     47          6           0        3.433466   -4.059512    0.986579
     48          6           0        4.107926   -3.257199    0.119411
     49          6           0        3.795330   -3.204899   -1.356259
     50          6           0        5.162526   -2.446277    0.574114
     51          6           0        6.460796   -2.538701   -0.172016
     52          6           0        7.632262   -1.821239    0.529815
     53          6           0        8.965630   -1.872738   -0.135163
     54          6           0        9.511456   -3.301052    0.074473
     55          6           0        9.980991   -0.845764    0.356757
     56          6           0       11.393120   -0.850972   -0.166042
     57          6           0       12.202694    0.274979    0.348668
     58          6           0       13.585393    0.450978   -0.424502
     59          6           0       14.383292   -0.856348   -0.144186
     60          6           0       14.378922    1.695826    0.022388
     61          6           0       15.481360    2.088989   -0.890914
     62          6           0       16.010163    3.580499   -0.754723
     63          6           0       17.239495    3.900689   -1.461969
     64          6           0       17.010365    4.197816   -2.993946
     65          6           0       17.897435    5.122635   -0.807082
     66          1           0       -3.037930    1.169305    3.641856
     67          1           0       -6.474020    5.580402    0.811087
     68          1           0       -8.731770    1.087161   -3.095548
     69          1           0       -3.830815   -3.057047    1.974966
     70          1           0       -2.022617   -1.010166    2.797977
     71          1           0       -3.355730   -2.774295    4.215494
     72          1           0       -3.399786   -1.093590    4.767778
     73          1           0       -4.722618   -1.948993    3.900491
     74          1           0       -2.116716   -2.978548   -0.354533
     75          1           0       -1.593931   -1.635684    0.424999
     76          1           0       -0.563143   -3.304283    2.451748
     77          1           0       -1.509129   -4.741407    1.520729
     78          1           0       -1.742246    3.674685    4.010349
     79          1           0       -2.864817    4.753068    4.467958
     80          1           0       -3.005555    3.023240    5.187536
     81          1           0       -5.213061    6.498111    2.156036
     82          1           0      -10.150443    3.016789   -3.230898
     83          1           0      -10.112544    4.714271   -2.692744
     84          1           0       -9.696816    3.957825   -5.429345
     85          1           0       -7.951169    4.737863   -4.653933
     86          1           0       -8.111018    3.147308   -4.525492
     87          1           0       -8.379327   -1.045563   -4.712860
     88          1           0       -8.200946   -2.728081   -3.953228
     89          1           0       -9.511754   -1.332757   -3.450567
     90          1           0       -4.173676   -3.865706   -1.453243
     91          1           0        2.597759   -5.922434    0.759212
     92          1           0        2.243114   -4.898914   -0.374515
     93          1           0        3.661120   -3.702010    1.921465
     94          1           0        2.754268   -3.281768   -1.564485
     95          1           0        4.174983   -2.314160   -1.916714
     96          1           0        4.578777   -3.922253   -1.831156
     97          1           0        4.838571   -1.312318    0.467610
     98          1           0        5.474968   -2.754521    1.685916
     99          1           0        6.808463   -3.616340   -0.350013
    100          1           0        6.513226   -2.216034   -1.309423
    101          1           0        7.411721   -0.572129    0.605678
    102          1           0        7.788934   -2.180757    1.554989
    103          1           0        8.888428   -1.824053   -1.383789
    104          1           0        9.083337   -4.156870   -0.181712
    105          1           0       10.355746   -3.497442   -0.673757
    106          1           0        9.704672   -3.615528    1.147659
    107          1           0        9.545954    0.216016    0.000850
    108          1           0       10.030699   -0.840705    1.740768
    109          1           0       12.022150   -1.634212    0.146641
    110          1           0       11.376818   -0.770791   -1.290679
    111          1           0       11.723511    1.111029    0.335984
    112          1           0       12.564516    0.054586    1.366570
    113          1           0       13.340417    0.596268   -1.482736
    114          1           0       14.484113   -0.897827    1.012114
    115          1           0       13.825351   -1.747481   -0.401353
    116          1           0       15.412114   -0.795547   -0.660990
    117          1           0       13.805990    2.594748    0.088951
    118          1           0       14.697490    1.547668    0.983043
    119          1           0       16.451859    1.371284   -0.615242
    120          1           0       15.248100    1.930698   -1.997625
    121          1           0       15.023454    4.133226   -1.025107
    122          1           0       16.322833    3.780361    0.290747
    123          1           0       17.779936    3.132733   -1.454243
    124          1           0       16.262297    5.061442   -2.956959
    125          1           0       17.899611    4.503815   -3.456540
    126          1           0       16.393281    3.373150   -3.491211
    127          1           0       18.346647    4.763086    0.164803
    128          1           0       18.555090    5.499382   -1.565796
    129          1           0       17.193690    6.056332   -0.538528
    130          1           0       -5.051691   -7.755961   -0.059858
    131          1           0       -6.359175   -7.091985    0.534148
    132          1           0       -4.673261   -7.006180    1.404898
    133          8           0       -7.917366    6.794591   -0.315087
    134          1           0       -9.127782    6.300209   -1.814507
 ---------------------------------------------------------------------

 SCF Done:  E(RCAM-B3LYP) =  -3043.41348101     A.U. after   15 cycles

 Excitation energies and oscillator strengths:

 Excited State   1:      Singlet-A      1.9876 eV  623.79 nm  f=0.2196  <S**2>=0.000
     243 -> 246       -0.23591
     244 -> 245        0.65117
 This state for optimization and/or second-order correction.
 Total Energy, E(TD-HF/TD-KS) =  -3043.34043816
 Copying the excited state density for this state as the 1-particle RhoCI density.

 The electronic state is 1-A.
 Alpha  occ. eigenvalues --  -46.81483 -19.23702 -19.21488 -19.18708 -19.17601
 Alpha  occ. eigenvalues --  -19.17424 -19.17153 -19.16709 -14.38174 -14.37860
 Alpha  occ. eigenvalues --  -14.36952 -14.36181 -10.35386 -10.35030 -10.32210
 Alpha  occ. eigenvalues --  -10.30157 -10.29128 -10.27768 -10.26896 -10.26785
 Alpha  occ. eigenvalues --  -10.26726 -10.26258 -10.26026 -10.26007 -10.25968
 Alpha  occ. eigenvalues --  -10.25698 -10.25348 -10.25269 -10.25046 -10.24969
 Alpha  occ. eigenvalues --  -10.24860 -10.24485 -10.24458 -10.24293 -10.24271
 Alpha  occ. eigenvalues --  -10.24086 -10.23865 -10.23740 -10.23706 -10.23367
 Alpha  occ. eigenvalues --  -10.23013 -10.22935 -10.22884 -10.22844 -10.22763
 Alpha  occ. eigenvalues --  -10.22743 -10.22603 -10.22567 -10.22402 -10.21990
 Alpha  occ. eigenvalues --  -10.21721 -10.21692 -10.21531 -10.21306 -10.21181
 Alpha  occ. eigenvalues --  -10.21145 -10.21121 -10.21050 -10.20815 -10.20340
 Alpha  occ. eigenvalues --  -10.20304 -10.20265 -10.19841 -10.19527 -10.19241
 Alpha  occ. eigenvalues --  -10.18748  -3.10084  -1.85029  -1.84553  -1.84491
 Alpha  occ. eigenvalues --   -1.14530  -1.12831  -1.12162  -1.07513  -1.04752
 Alpha  occ. eigenvalues --   -1.04200  -1.04164  -1.01199  -1.00513  -0.99972
 Alpha  occ. eigenvalues --   -0.99033  -0.88588  -0.87357  -0.86816  -0.85969
 Alpha  occ. eigenvalues --   -0.85537  -0.85156  -0.85104  -0.83905  -0.83474
 Alpha  occ. eigenvalues --   -0.83424  -0.82788  -0.81793  -0.81208  -0.80405
 Alpha  occ. eigenvalues --   -0.79703  -0.79051  -0.78068  -0.77248  -0.76615
 Alpha  occ. eigenvalues --   -0.75271  -0.75087  -0.74119  -0.73564  -0.72572
 Alpha  occ. eigenvalues --   -0.71934  -0.70922  -0.70423  -0.70391  -0.70088
 Alpha  occ. eigenvalues --   -0.69963  -0.69421  -0.67890  -0.67646  -0.66897
 Alpha  occ. eigenvalues --   -0.66756  -0.65140  -0.64577  -0.62717  -0.62435
 Alpha  occ. eigenvalues --   -0.62022  -0.61216  -0.60806  -0.60140  -0.59231
 Alpha  occ. eigenvalues --   -0.58980  -0.58841  -0.57887  -0.57510  -0.56951
 Alpha  occ. eigenvalues --   -0.56493  -0.55828  -0.55382  -0.55215  -0.55126
 Alpha  occ. eigenvalues --   -0.54673  -0.53822  -0.53005  -0.52760  -0.52273
 Alpha  occ. eigenvalues --   -0.52237  -0.51919  -0.51546  -0.51513  -0.50821
 Alpha  occ. eigenvalues --   -0.50461  -0.50209  -0.49930  -0.49720  -0.49474
 Alpha  occ. eigenvalues --   -0.49271  -0.48881  -0.48776  -0.48438  -0.48147
 Alpha  occ. eigenvalues --   -0.47953  -0.47422  -0.47284  -0.47034  -0.46843
 Alpha  occ. eigenvalues --   -0.46764  -0.46688  -0.46424  -0.46304  -0.46266
 Alpha  occ. eigenvalues --   -0.46196  -0.45854  -0.45787  -0.45724  -0.45554
 Alpha  occ. eigenvalues --   -0.44970  -0.44566  -0.44361  -0.44303  -0.44218
 Alpha  occ. eigenvalues --   -0.43935  -0.43723  -0.43540  -0.43496  -0.43135
 Alpha  occ. eigenvalues --   -0.42906  -0.42843  -0.42588  -0.42555  -0.42446
 Alpha  occ. eigenvalues --   -0.42289  -0.42137  -0.41780  -0.41666  -0.41507
 Alpha  occ. eigenvalues --   -0.40985  -0.40600  -0.40300  -0.40096  -0.40041
 Alpha  occ. eigenvalues --   -0.39909  -0.39755  -0.39532  -0.39165  -0.39155
 Alpha  occ. eigenvalues --   -0.39057  -0.38751  -0.38600  -0.38406  -0.38255
 Alpha  occ. eigenvalues --   -0.38034  -0.37954  -0.37773  -0.37104  -0.36877
 Alpha  occ. eigenvalues --   -0.36626  -0.36428  -0.36247  -0.35954  -0.35281
 Alpha  occ. eigenvalues --   -0.35189  -0.35160  -0.35112  -0.34689  -0.34504
 Alpha  occ. eigenvalues --   -0.34372  -0.33896  -0.33811  -0.33630  -0.32991
 Alpha  occ. eigenvalues --   -0.32912  -0.32845  -0.32223  -0.31841  -0.31527
 Alpha  occ. eigenvalues --   -0.31319  -0.31123  -0.31071  -0.30267  -0.29918
 Alpha  occ. eigenvalues --   -0.29570  -0.28526  -0.28284  -0.28135  -0.27919
 Alpha  occ. eigenvalues --   -0.27351  -0.26301  -0.23112  -0.21513
 Alpha virt. eigenvalues --   -0.08885  -0.06531  -0.01313  -0.00726   0.01174
 Alpha virt. eigenvalues --    0.02935   0.03244   0.03363   0.03765   0.04480
 Alpha virt. eigenvalues --    0.05353   0.06408   0.07494   0.08624   0.08632

 Mulliken charges:
               1
     1  Mg   0.831313
     2  C    0.081169
     3  C   -0.138207
     4  C   -0.156852
     5  C   -0.158132
     6  N   -0.632594
     7  C    0.271247
     8  C   -0.178554
     9  C   -0.132926
    10  C    0.364339
    11  C   -0.321631
    12  C   -0.161901
    13  C   -0.248255
    14  C    0.596305
    15  O   -0.483554
    16  O   -0.443159
    17  N   -0.733013
    18  C    0.283596
    19  C    0.047591
    20  C   -0.074097
    21  C    0.328890
    22  C   -0.345775
    23  C    0.261450
    24  O   -0.442263
    25  N   -0.686263
    26  C    0.243815
    27  C    0.047790
    28  C    0.029594
    29  C    0.302727
    30  C    0.225600
    31  C   -0.248922
    32  C   -0.283386
    33  N   -0.721866
    34  C    0.286112
    35  C   -0.050692
    36  C    0.025072
    37  C    0.292558
    38  C   -0.346967
    39  C    0.344942
    40  O   -0.383277
    41  C   -0.341555
    42  C    0.633750
    43  O   -0.469142
    44  O   -0.477805
    45  C   -0.070872
    46  C    0.014168
    47  C   -0.158376
    48  C    0.169681
    49  C   -0.390505
    50  C   -0.220227
    51  C   -0.179779
    52  C   -0.132749
    53  C   -0.043202
    54  C   -0.314282
    55  C   -0.126358
    56  C   -0.158463
    57  C   -0.164317
    58  C   -0.073233
    59  C   -0.315079
    60  C   -0.152473
    61  C   -0.181427
    62  C   -0.156926
    63  C   -0.023201
    64  C   -0.324979
    65  C   -0.313250
    66  H    0.054270
    67  H    0.136345
    68  H    0.082503
    69  H    0.137554
    70  H    0.100693
    71  H    0.125236
    72  H    0.106150
    73  H    0.123764
    74  H    0.119015
    75  H    0.119517
    76  H    0.138151
    77  H    0.122613
    78  H    0.128887
    79  H    0.152792
    80  H    0.103237
    81  H    0.084000
    82  H    0.091103
    83  H    0.104935
    84  H    0.075057
    85  H    0.119551
    86  H    0.123089
    87  H    0.134753
    88  H    0.150411
    89  H    0.112021
    90  H    0.172213
    91  H    0.120009
    92  H    0.132030
    93  H    0.069990
    94  H    0.155520
    95  H    0.108740
    96  H    0.109828
    97  H    0.100852
    98  H    0.084843
    99  H    0.092245
   100  H    0.083616
   101  H    0.045611
   102  H    0.096282
   103  H    0.055179
   104  H    0.112482
   105  H    0.084827
   106  H    0.089908
   107  H    0.074233
   108  H    0.026905
   109  H    0.108472
   110  H    0.084068
   111  H    0.086437
   112  H    0.081691
   113  H    0.076602
   114  H    0.088019
   115  H    0.113500
   116  H    0.097734
   117  H    0.085722
   118  H    0.098530
   119  H    0.050292
   120  H    0.084301
   121  H    0.076009
   122  H    0.082535
   123  H    0.099526
   124  H    0.091995
   125  H    0.107348
   126  H    0.093314
   127  H    0.100032
   128  H    0.100855
   129  H    0.088434
   130  H    0.129890
   131  H    0.133464
   132  H    0.122415
   133  O   -0.420767
   134  H    0.057402
 Sum of Mulliken charges =   0.00000

 Dipole moment (field-independent basis, Debye):
    X=              2.1796    Y=             -5.6242    Z=             -2.0921  Tot=              6.3843
 Quadrupole moment (field-independent basis, Debye-Ang):
   XX=           -374.4516   YY=           -438.5700   ZZ=           -397.6350
   XY=             10.7025   XZ=             21.9693   YZ=            -34.0452

 Normal termination of Gaussian 09 at Mon Oct  7 17:07:26 2019.
