 Gaussian 09, Revision D.01,
 Gaussian 09:  ES64L-G09RevD.01 24-Apr-2013

 ----------------------------------------------------------------------
 # td=(NStates=1) iop(3/107=0140000000,3/108=0140000000) iop(3/107=0140
 000000,3/108=0140000000) CAM-B3LYP/6-31G(d,p)
 ----------------------------------------------------------------------

 --
 TD
 --
 Symbolic Z-matrix:
 Charge =  0 Multiplicity = 1

                         Standard orientation:
 ---------------------------------------------------------------------
 Center     Atomic      Atomic             Coordinates (Angstroms)
 Number     Number       Type             X           Y           Z
 ---------------------------------------------------------------------
      1         12           0       -5.622317    1.286447    0.121900
      2          6           0       -4.975142   -2.073909   -0.260206
      3          6           0       -3.414280    1.270082    2.809928
      4          6           0       -6.302327    4.487621    0.584047
      5          6           0       -8.009136    1.068586   -2.290495
      6          7           0       -4.422215   -0.240840    1.120770
      7          6           0       -4.166286   -1.423870    0.635627
      8          6           0       -3.139174   -2.210626    1.523336
      9          6           0       -2.810795   -1.180147    2.667070
     10          6           0       -3.533556    0.019139    2.127877
     11          6           0       -3.359850   -1.613284    4.002464
     12          6           0       -1.904866   -2.730012    0.725415
     13          6           0       -0.892267   -3.577189    1.501909
     14          6           0        0.224691   -3.922474    0.703511
     15          8           0        0.431791   -3.488354   -0.427974
     16          8           0        1.109462   -4.620525    1.402195
     17          7           0       -5.054409    2.645497    1.463792
     18          6           0       -4.091215    2.507790    2.475491
     19          6           0       -3.841931    3.802761    3.099094
     20          6           0       -4.539229    4.721166    2.441083
     21          6           0       -5.289115    3.923063    1.405424
     22          6           0       -2.854624    4.033075    4.245309
     23          6           0       -4.650736    6.115260    2.694865
     24          8           0       -3.992335    6.736452    3.555369
     25          7           0       -6.877388    2.587477   -0.765142
     26          6           0       -7.046873    3.960147   -0.423338
     27          6           0       -8.005579    4.584861   -1.245744
     28          6           0       -8.603161    3.472702   -2.007339
     29          6           0       -7.845742    2.333253   -1.710464
     30          6           0       -8.481297    5.890209   -1.234545
     31          6           0       -9.634448    3.563229   -3.030947
     32          6           0       -9.068154    3.518362   -4.492423
     33          7           0       -6.331358   -0.092205   -1.097275
     34          6           0       -7.260182   -0.055393   -2.025558
     35          6           0       -7.446184   -1.410927   -2.640110
     36          6           0       -6.500749   -2.276863   -2.078044
     37          6           0       -5.902066   -1.460490   -1.117503
     38          6           0       -8.492376   -1.826366   -3.654361
     39          6           0       -5.991782   -3.577179   -1.973661
     40          8           0       -6.351931   -4.505191   -2.680957
     41          6           0       -4.958943   -3.535499   -0.825949
     42          6           0       -5.277135   -4.679093    0.204653
     43          8           0       -5.577579   -4.458159    1.284675
     44          8           0       -5.005672   -5.872236   -0.383612
     45          6           0       -5.257172   -6.989112    0.450506
     46          6           0        2.305366   -5.017663    0.645846
     47          6           0        3.294809   -3.992949    1.078508
     48          6           0        3.966451   -3.135199    0.234274
     49          6           0        3.692804   -3.136694   -1.230510
     50          6           0        5.109325   -2.238660    0.694400
     51          6           0        6.502594   -2.585025    0.202402
     52          6           0        7.634973   -1.835485    0.714394
     53          6           0        8.924826   -2.037960   -0.069104
     54          6           0        9.686984   -3.352364    0.227919
     55          6           0        9.917005   -0.827244    0.393582
     56          6           0       11.320617   -0.835024   -0.331620
     57          6           0       12.214473    0.357621    0.126452
     58          6           0       13.612179    0.310106   -0.680021
     59          6           0       14.555463   -0.910606   -0.340940
     60          6           0       14.322915    1.641707   -0.163496
     61          6           0       15.495403    2.125569   -0.984368
     62          6           0       16.058906    3.502252   -0.700485
     63          6           0       17.363864    3.938809   -1.378796
     64          6           0       17.232295    3.989778   -2.881382
     65          6           0       17.801309    5.366194   -0.929989
     66          1           0       -2.829273    1.392153    3.521574
     67          1           0       -6.388985    5.457330    0.475053
     68          1           0       -8.715929    0.887830   -3.151707
     69          1           0       -3.602740   -2.995234    2.156527
     70          1           0       -1.703209   -1.278686    2.640198
     71          1           0       -2.964664   -2.658832    4.351236
     72          1           0       -3.133222   -0.880108    4.884019
     73          1           0       -4.491635   -1.860261    3.981851
     74          1           0       -2.312083   -3.250374   -0.140914
     75          1           0       -1.409536   -1.804464    0.322594
     76          1           0       -0.443224   -3.304128    2.415051
     77          1           0       -1.263477   -4.655870    1.830846
     78          1           0       -1.695615    4.260159    3.863160
     79          1           0       -3.120815    4.920078    4.726935
     80          1           0       -2.695960    3.094952    4.905328
     81          1           0       -5.615613    6.633726    2.222832
     82          1           0      -10.312061    2.715642   -3.150962
     83          1           0      -10.489623    4.287323   -3.013726
     84          1           0       -9.805595    3.672159   -5.285755
     85          1           0       -8.350681    4.294603   -4.681415
     86          1           0       -8.605700    2.546723   -4.636342
     87          1           0       -8.598205   -1.353458   -4.848386
     88          1           0       -8.377405   -3.018905   -3.985683
     89          1           0       -9.528380   -1.501335   -3.360742
     90          1           0       -3.886432   -3.896577   -1.383336
     91          1           0        2.410508   -6.097760    0.881122
     92          1           0        2.209682   -4.886755   -0.418444
     93          1           0        3.602895   -3.928185    2.242930
     94          1           0        2.525265   -3.182037   -1.421314
     95          1           0        4.098026   -2.251406   -1.729261
     96          1           0        4.198472   -3.840985   -1.933411
     97          1           0        4.531945   -1.129168    0.430028
     98          1           0        5.191888   -2.325247    1.799169
     99          1           0        6.573986   -3.718901    0.184188
    100          1           0        6.403741   -2.550030   -0.867660
    101          1           0        7.570769   -0.574851    0.755670
    102          1           0        7.903807   -2.219233    1.731052
    103          1           0        8.914795   -1.801522   -1.181812
    104          1           0        8.976663   -4.244035    0.131196
    105          1           0       10.559015   -3.386608   -0.365003
    106          1           0        9.883361   -3.493933    1.280360
    107          1           0        9.605072    0.136871   -0.060619
    108          1           0       10.082720   -0.750546    1.576293
    109          1           0       11.822448   -1.895092   -0.193244
    110          1           0       11.141376   -1.007869   -1.418967
    111          1           0       11.641998    1.331937   -0.067594
    112          1           0       12.288616    0.208439    1.121975
    113          1           0       13.289931    0.635035   -1.757582
    114          1           0       14.795035   -0.956088    0.739311
    115          1           0       13.815544   -1.837035   -0.682458
    116          1           0       15.496036   -1.007286   -0.956588
    117          1           0       13.621007    2.468693   -0.167142
    118          1           0       14.658329    1.600107    0.887742
    119          1           0       16.079008    1.243489   -0.902702
    120          1           0       15.492636    2.055989   -2.037334
    121          1           0       15.070431    4.108658   -1.109458
    122          1           0       16.157295    3.779220    0.427436
    123          1           0       18.228985    3.500640   -0.962294
    124          1           0       16.591865    4.887618   -3.210181
    125          1           0       18.349327    4.274163   -3.383120
    126          1           0       16.879064    3.044517   -3.375785
    127          1           0       17.806456    5.341985    0.269967
    128          1           0       18.966286    5.682782   -1.124731
    129          1           0       17.188352    6.269837   -1.043289
    130          1           0       -4.983275   -7.883848   -0.210842
    131          1           0       -6.400046   -7.176854    0.623035
    132          1           0       -4.766308   -6.939155    1.356478
    133          8           0       -7.943609    6.805652   -0.594430
    134          1           0       -9.373865    5.955810   -1.759237
 ---------------------------------------------------------------------

 SCF Done:  E(RCAM-B3LYP) =  -3043.44342581     A.U. after   16 cycles

 Excitation energies and oscillator strengths:

 Excited State   1:      Singlet-A      1.9698 eV  629.42 nm  f=0.1445  <S**2>=0.000
     243 -> 246        0.31159
     244 -> 245        0.61959
 This state for optimization and/or second-order correction.
 Total Energy, E(TD-HF/TD-KS) =  -3043.37103607
 Copying the excited state density for this state as the 1-particle RhoCI density.

 The electronic state is 1-A.
 Alpha  occ. eigenvalues --  -46.81202 -19.23168 -19.22295 -19.18955 -19.17162
 Alpha  occ. eigenvalues --  -19.16859 -19.16363 -19.16144 -14.39645 -14.37570
 Alpha  occ. eigenvalues --  -14.36800 -14.36270 -10.35719 -10.34125 -10.31326
 Alpha  occ. eigenvalues --  -10.30428 -10.28555 -10.28098 -10.28096 -10.27679
 Alpha  occ. eigenvalues --  -10.27539 -10.27146 -10.26921 -10.26748 -10.26731
 Alpha  occ. eigenvalues --  -10.26412 -10.26297 -10.25971 -10.25831 -10.25498
 Alpha  occ. eigenvalues --  -10.24998 -10.24478 -10.24205 -10.24192 -10.24179
 Alpha  occ. eigenvalues --  -10.24161 -10.24133 -10.23943 -10.23901 -10.23781
 Alpha  occ. eigenvalues --  -10.23622 -10.23562 -10.23384 -10.23290 -10.23059
 Alpha  occ. eigenvalues --  -10.22869 -10.22777 -10.22734 -10.22591 -10.22552
 Alpha  occ. eigenvalues --  -10.22535 -10.22462 -10.22451 -10.22271 -10.22104
 Alpha  occ. eigenvalues --  -10.22081 -10.22015 -10.21656 -10.21619 -10.21565
 Alpha  occ. eigenvalues --  -10.21434 -10.21377 -10.21326 -10.20531 -10.20119
 Alpha  occ. eigenvalues --  -10.19041  -3.10015  -1.84926  -1.84487  -1.84449
 Alpha  occ. eigenvalues --   -1.16325  -1.13984  -1.08775  -1.07129  -1.04954
 Alpha  occ. eigenvalues --   -1.04797  -1.04023  -1.02119  -1.01084  -1.00491
 Alpha  occ. eigenvalues --   -0.98209  -0.89722  -0.86628  -0.85988  -0.85686
 Alpha  occ. eigenvalues --   -0.84865  -0.84668  -0.84484  -0.84115  -0.83994
 Alpha  occ. eigenvalues --   -0.82978  -0.82611  -0.82339  -0.80391  -0.79945
 Alpha  occ. eigenvalues --   -0.79277  -0.78475  -0.77908  -0.77509  -0.76572
 Alpha  occ. eigenvalues --   -0.74977  -0.74699  -0.73969  -0.73360  -0.72014
 Alpha  occ. eigenvalues --   -0.71241  -0.70466  -0.70043  -0.69458  -0.69331
 Alpha  occ. eigenvalues --   -0.68920  -0.68623  -0.68005  -0.67282  -0.66829
 Alpha  occ. eigenvalues --   -0.66615  -0.65213  -0.64350  -0.62572  -0.62295
 Alpha  occ. eigenvalues --   -0.62024  -0.61071  -0.60176  -0.59763  -0.59234
 Alpha  occ. eigenvalues --   -0.59212  -0.59003  -0.58626  -0.57993  -0.57457
 Alpha  occ. eigenvalues --   -0.56493  -0.56351  -0.55367  -0.55245  -0.54702
 Alpha  occ. eigenvalues --   -0.54216  -0.53804  -0.53469  -0.53178  -0.52723
 Alpha  occ. eigenvalues --   -0.52187  -0.52135  -0.51821  -0.51196  -0.50077
 Alpha  occ. eigenvalues --   -0.49931  -0.49747  -0.49580  -0.49297  -0.49193
 Alpha  occ. eigenvalues --   -0.48745  -0.48558  -0.48370  -0.48025  -0.47889
 Alpha  occ. eigenvalues --   -0.47373  -0.46960  -0.46903  -0.46738  -0.46608
 Alpha  occ. eigenvalues --   -0.46415  -0.46316  -0.46288  -0.46102  -0.45983
 Alpha  occ. eigenvalues --   -0.45790  -0.45471  -0.45140  -0.44961  -0.44418
 Alpha  occ. eigenvalues --   -0.44325  -0.44197  -0.43954  -0.43798  -0.43696
 Alpha  occ. eigenvalues --   -0.43647  -0.43244  -0.43167  -0.42956  -0.42879
 Alpha  occ. eigenvalues --   -0.42671  -0.42307  -0.42275  -0.41911  -0.41494
 Alpha  occ. eigenvalues --   -0.41440  -0.41202  -0.40929  -0.40813  -0.40637
 Alpha  occ. eigenvalues --   -0.40472  -0.40348  -0.40262  -0.40208  -0.39823
 Alpha  occ. eigenvalues --   -0.39748  -0.39690  -0.39467  -0.39311  -0.39058
 Alpha  occ. eigenvalues --   -0.39018  -0.38702  -0.38591  -0.38261  -0.38133
 Alpha  occ. eigenvalues --   -0.38049  -0.37892  -0.37662  -0.37365  -0.37300
 Alpha  occ. eigenvalues --   -0.36976  -0.36738  -0.36016  -0.35938  -0.35521
 Alpha  occ. eigenvalues --   -0.35321  -0.35225  -0.35133  -0.35055  -0.34621
 Alpha  occ. eigenvalues --   -0.34467  -0.34392  -0.33873  -0.33720  -0.33160
 Alpha  occ. eigenvalues --   -0.33123  -0.32783  -0.32712  -0.32273  -0.31847
 Alpha  occ. eigenvalues --   -0.31428  -0.31372  -0.30492  -0.30232  -0.29543
 Alpha  occ. eigenvalues --   -0.29346  -0.28422  -0.28292  -0.27680  -0.27517
 Alpha  occ. eigenvalues --   -0.27173  -0.26455  -0.23000  -0.21583
 Alpha virt. eigenvalues --   -0.08662  -0.07511  -0.02462  -0.01132   0.00144
 Alpha virt. eigenvalues --    0.02697   0.02986   0.03218   0.04199   0.04662
 Alpha virt. eigenvalues --    0.04832   0.05738   0.07327   0.08505   0.09670

 Mulliken charges:
               1
     1  Mg   0.842233
     2  C    0.089694
     3  C   -0.103834
     4  C   -0.135898
     5  C   -0.180476
     6  N   -0.588315
     7  C    0.284807
     8  C   -0.174467
     9  C   -0.123174
    10  C    0.310723
    11  C   -0.315255
    12  C   -0.172126
    13  C   -0.278254
    14  C    0.629662
    15  O   -0.496711
    16  O   -0.467474
    17  N   -0.684696
    18  C    0.249667
    19  C    0.048889
    20  C    0.040778
    21  C    0.305929
    22  C   -0.359860
    23  C    0.203978
    24  O   -0.434911
    25  N   -0.714175
    26  C    0.267464
    27  C    0.008513
    28  C    0.052163
    29  C    0.332642
    30  C    0.244517
    31  C   -0.298808
    32  C   -0.320219
    33  N   -0.721056
    34  C    0.353447
    35  C   -0.000545
    36  C    0.143047
    37  C    0.193926
    38  C   -0.395563
    39  C    0.348596
    40  O   -0.460282
    41  C   -0.352488
    42  C    0.624413
    43  O   -0.404308
    44  O   -0.434045
    45  C   -0.096788
    46  C   -0.022945
    47  C   -0.107601
    48  C    0.126708
    49  C   -0.406873
    50  C   -0.203214
    51  C   -0.176195
    52  C   -0.145911
    53  C   -0.057076
    54  C   -0.307232
    55  C   -0.180329
    56  C   -0.209541
    57  C   -0.163287
    58  C   -0.058757
    59  C   -0.305750
    60  C   -0.178153
    61  C   -0.176583
    62  C   -0.151193
    63  C   -0.028271
    64  C   -0.289503
    65  C   -0.320993
    66  H    0.033436
    67  H    0.095679
    68  H    0.088679
    69  H    0.125461
    70  H    0.111346
    71  H    0.097205
    72  H    0.106301
    73  H    0.122725
    74  H    0.118221
    75  H    0.123072
    76  H    0.154431
    77  H    0.124181
    78  H    0.107333
    79  H    0.162820
    80  H    0.102984
    81  H    0.085944
    82  H    0.119425
    83  H    0.116836
    84  H    0.108309
    85  H    0.120225
    86  H    0.112886
    87  H    0.089978
    88  H    0.140621
    89  H    0.132249
    90  H    0.146985
    91  H    0.120584
    92  H    0.144561
    93  H    0.067928
    94  H    0.151464
    95  H    0.106118
    96  H    0.114753
    97  H    0.072570
    98  H    0.089815
    99  H    0.101876
   100  H    0.100618
   101  H    0.078336
   102  H    0.093446
   103  H    0.082984
   104  H    0.084062
   105  H    0.115336
   106  H    0.107012
   107  H    0.092835
   108  H    0.071737
   109  H    0.069371
   110  H    0.083587
   111  H    0.090527
   112  H    0.110079
   113  H    0.088605
   114  H    0.117953
   115  H    0.080939
   116  H    0.114607
   117  H    0.076044
   118  H    0.086811
   119  H    0.080040
   120  H    0.086642
   121  H    0.065563
   122  H    0.073284
   123  H    0.112069
   124  H    0.105296
   125  H    0.065560
   126  H    0.100464
   127  H    0.068107
   128  H    0.082019
   129  H    0.109962
   130  H    0.124754
   131  H    0.114571
   132  H    0.136069
   133  O   -0.455411
   134  H    0.070464
 Sum of Mulliken charges =   0.00000

 Dipole moment (field-independent basis, Debye):
    X=              2.1395    Y=             -7.4196    Z=             -0.5403  Tot=              7.7408
 Quadrupole moment (field-independent basis, Debye-Ang):
   XX=           -374.5574   YY=           -445.4215   ZZ=           -395.6887
   XY=             13.6798   XZ=             23.2047   YZ=            -33.6696

 Normal termination of Gaussian 09 at Fri Oct  4 15:08:39 2019.
