 Gaussian 09, Revision D.01,
 Gaussian 09:  ES64L-G09RevD.01 24-Apr-2013

 ----------------------------------------------------------------------
 # td=(NStates=1) iop(3/107=0140000000,3/108=0140000000) iop(3/107=0140
 000000,3/108=0140000000) CAM-B3LYP/6-31G(d,p)
 ----------------------------------------------------------------------

 --
 TD
 --
 Symbolic Z-matrix:
 Charge =  0 Multiplicity = 1

                         Standard orientation:
 ---------------------------------------------------------------------
 Center     Atomic      Atomic             Coordinates (Angstroms)
 Number     Number       Type             X           Y           Z
 ---------------------------------------------------------------------
      1         12           0       -5.607272    1.225067    0.233040
      2          6           0       -5.009798   -2.098157   -0.330477
      3          6           0       -3.417210    1.159398    2.758559
      4          6           0       -6.234570    4.618052    0.640682
      5          6           0       -7.983898    1.217854   -2.431391
      6          7           0       -4.425789   -0.358638    1.159994
      7          6           0       -4.231107   -1.607602    0.733637
      8          6           0       -3.184955   -2.350698    1.518817
      9          6           0       -2.912163   -1.457763    2.709660
     10          6           0       -3.563130   -0.103411    2.202851
     11          6           0       -3.503732   -1.978773    4.087152
     12          6           0       -2.045792   -2.689369    0.675538
     13          6           0       -1.076590   -3.556057    1.442339
     14          6           0        0.223037   -3.905454    0.643169
     15          8           0        0.395935   -3.532757   -0.443286
     16          8           0        1.078400   -4.783165    1.302779
     17          7           0       -4.895655    2.675047    1.459600
     18          6           0       -3.966109    2.339800    2.464742
     19          6           0       -3.729352    3.629025    3.203535
     20          6           0       -4.500960    4.587095    2.556274
     21          6           0       -5.308861    3.977631    1.563155
     22          6           0       -2.762848    3.754225    4.338264
     23          6           0       -4.650990    5.987641    2.833940
     24          8           0       -4.073851    6.589969    3.797952
     25          7           0       -6.762963    2.647938   -0.807230
     26          6           0       -6.933075    3.990044   -0.389061
     27          6           0       -7.845317    4.678499   -1.223659
     28          6           0       -8.408490    3.709258   -2.039227
     29          6           0       -7.732393    2.492257   -1.710991
     30          6           0       -8.449194    5.990508   -1.108425
     31          6           0       -9.457813    3.721684   -3.157079
     32          6           0       -8.828378    4.043184   -4.658774
     33          7           0       -6.369487   -0.034525   -1.063705
     34          6           0       -7.368071   -0.013462   -2.085121
     35          6           0       -7.530820   -1.298911   -2.757596
     36          6           0       -6.688220   -2.156834   -2.067591
     37          6           0       -5.958349   -1.410584   -1.068173
     38          6           0       -8.431630   -1.657011   -3.844350
     39          6           0       -6.217862   -3.589118   -2.015378
     40          8           0       -6.639061   -4.555792   -2.513647
     41          6           0       -5.001559   -3.487375   -0.870834
     42          6           0       -5.263251   -4.635623    0.053393
     43          8           0       -5.681578   -4.491395    1.214719
     44          8           0       -5.008496   -5.836286   -0.453699
     45          6           0       -5.284684   -6.989144    0.455692
     46          6           0        2.326004   -5.123582    0.596168
     47          6           0        3.338096   -4.048418    0.882599
     48          6           0        3.969518   -3.275444    0.107632
     49          6           0        3.665857   -3.082180   -1.436247
     50          6           0        5.092055   -2.400166    0.744466
     51          6           0        6.483395   -2.635000    0.039160
     52          6           0        7.528994   -1.767309    0.533934
     53          6           0        8.936788   -1.909147   -0.175712
     54          6           0        9.540134   -3.245334    0.114072
     55          6           0        9.970217   -0.778688    0.353663
     56          6           0       11.328597   -0.736416   -0.280458
     57          6           0       12.179347    0.316515    0.178957
     58          6           0       13.545736    0.513147   -0.505080
     59          6           0       14.417702   -0.688384   -0.333990
     60          6           0       14.209383    1.775612   -0.216654
     61          6           0       15.384166    2.216182   -1.147132
     62          6           0       16.157669    3.487690   -0.584295
     63          6           0       17.499455    3.777577   -1.300061
     64          6           0       17.244158    3.993395   -2.768552
     65          6           0       18.267544    4.880114   -0.704624
     66          1           0       -2.789188    1.253017    3.698653
     67          1           0       -6.259795    5.718719    0.873159
     68          1           0       -8.841266    1.292520   -3.197975
     69          1           0       -3.895677   -3.011478    1.846706
     70          1           0       -1.909802   -1.347044    2.717262
     71          1           0       -2.842737   -2.875927    4.206868
     72          1           0       -3.258970   -1.228939    4.825539
     73          1           0       -4.537810   -2.271892    4.116748
     74          1           0       -2.363566   -3.205632   -0.229593
     75          1           0       -1.801374   -1.767235    0.339687
     76          1           0       -0.694875   -3.019251    2.509537
     77          1           0       -1.512390   -4.517986    1.695791
     78          1           0       -1.544714    3.715373    4.143702
     79          1           0       -2.829288    5.013556    4.749005
     80          1           0       -3.057614    3.112584    5.265262
     81          1           0       -5.341811    6.510154    2.186322
     82          1           0      -10.005165    2.750143   -3.157589
     83          1           0      -10.105043    4.485866   -2.900143
     84          1           0       -9.741697    4.152394   -5.337180
     85          1           0       -8.393817    4.987638   -4.707568
     86          1           0       -8.148028    3.273012   -4.975264
     87          1           0       -8.236601   -1.261193   -4.966638
     88          1           0       -8.311493   -2.866668   -4.050505
     89          1           0       -9.455450   -1.454877   -3.528843
     90          1           0       -4.091520   -3.652190   -1.312439
     91          1           0        2.594005   -6.107102    1.069426
     92          1           0        2.083956   -5.180591   -0.455153
     93          1           0        3.616678   -4.020436    1.910772
     94          1           0        2.832109   -3.471313   -1.825907
     95          1           0        3.914561   -1.945463   -1.948143
     96          1           0        4.093927   -3.772675   -2.277046
     97          1           0        4.929822   -1.413924    0.505486
     98          1           0        5.358993   -2.602097    1.771836
     99          1           0        6.875455   -3.593055    0.394127
    100          1           0        6.243889   -2.658580   -1.091045
    101          1           0        7.229246   -0.788933    0.450931
    102          1           0        7.631297   -1.913968    1.645493
    103          1           0        8.801667   -1.694076   -1.142302
    104          1           0        8.756337   -3.913492   -0.061915
    105          1           0       10.420176   -3.409720   -0.179241
    106          1           0        9.608745   -3.360855    1.295390
    107          1           0        9.485148    0.109472   -0.004113
    108          1           0       10.074687   -0.969288    1.304378
    109          1           0       12.020969   -1.637666   -0.118785
    110          1           0       11.227246   -0.682500   -1.300801
    111          1           0       11.611966    1.443042    0.081869
    112          1           0       12.566058    0.334696    1.260568
    113          1           0       13.362079    0.697521   -1.558474
    114          1           0       14.763790   -0.932271    0.595991
    115          1           0       13.938749   -1.873026   -0.537628
    116          1           0       15.263148   -0.626984   -0.907993
    117          1           0       13.527658    2.597929   -0.081690
    118          1           0       14.530083    1.722131    0.932137
    119          1           0       16.241727    1.304694   -1.205817
    120          1           0       14.983444    2.559766   -2.015187
    121          1           0       15.479218    4.363852   -0.732554
    122          1           0       16.362686    3.329323    0.514754
    123          1           0       18.338955    2.896114   -1.083399
    124          1           0       16.607582    4.864239   -3.252620
    125          1           0       18.199780    4.382825   -3.404429
    126          1           0       16.927289    3.112138   -3.240762
    127          1           0       18.680999    4.702765    0.246935
    128          1           0       19.194663    4.929274   -1.145338
    129          1           0       17.601393    5.981195   -0.725146
    130          1           0       -4.881874   -7.879015   -0.080818
    131          1           0       -6.278651   -6.991657    0.664131
    132          1           0       -4.712584   -6.797012    1.396455
    133          8           0       -7.988469    6.939677   -0.413068
    134          1           0       -9.295993    6.182669   -1.772689
 ---------------------------------------------------------------------

 SCF Done:  E(RCAM-B3LYP) =  -3043.41216809     A.U. after   16 cycles

 Excitation energies and oscillator strengths:

 Excited State   1:      Singlet-A      1.9927 eV  622.20 nm  f=0.1722  <S**2>=0.000
     243 -> 246        0.27879
     244 -> 245        0.63600
 This state for optimization and/or second-order correction.
 Total Energy, E(TD-HF/TD-KS) =  -3043.33893830
 Copying the excited state density for this state as the 1-particle RhoCI density.

 The electronic state is 1-A.
 Alpha  occ. eigenvalues --  -46.81211 -19.23054 -19.21247 -19.19491 -19.17811
 Alpha  occ. eigenvalues --  -19.16651 -19.16385 -19.15960 -14.39163 -14.36952
 Alpha  occ. eigenvalues --  -14.36856 -14.36422 -10.34972 -10.34880 -10.33149
 Alpha  occ. eigenvalues --  -10.30197 -10.29199 -10.27938 -10.27900 -10.27583
 Alpha  occ. eigenvalues --  -10.27547 -10.27218 -10.26546 -10.26149 -10.26113
 Alpha  occ. eigenvalues --  -10.26018 -10.25993 -10.25834 -10.25791 -10.25297
 Alpha  occ. eigenvalues --  -10.24939 -10.24559 -10.24548 -10.24458 -10.24343
 Alpha  occ. eigenvalues --  -10.24107 -10.24063 -10.23959 -10.23930 -10.23714
 Alpha  occ. eigenvalues --  -10.23428 -10.23158 -10.23090 -10.22978 -10.22776
 Alpha  occ. eigenvalues --  -10.22746 -10.22693 -10.22611 -10.22188 -10.22144
 Alpha  occ. eigenvalues --  -10.22112 -10.21673 -10.21474 -10.21323 -10.21283
 Alpha  occ. eigenvalues --  -10.20950 -10.20885 -10.20723 -10.20473 -10.20463
 Alpha  occ. eigenvalues --  -10.20178 -10.20083 -10.19943 -10.19602 -10.18897
 Alpha  occ. eigenvalues --  -10.18397  -3.09796  -1.84731  -1.84273  -1.84203
 Alpha  occ. eigenvalues --   -1.13732  -1.13382  -1.11511  -1.05388  -1.03886
 Alpha  occ. eigenvalues --   -1.03095  -1.02649  -1.00995  -0.99772  -0.98006
 Alpha  occ. eigenvalues --   -0.97313  -0.88777  -0.87957  -0.86722  -0.86184
 Alpha  occ. eigenvalues --   -0.84893  -0.84746  -0.84264  -0.83997  -0.83795
 Alpha  occ. eigenvalues --   -0.82789  -0.81861  -0.81689  -0.81250  -0.79845
 Alpha  occ. eigenvalues --   -0.79082  -0.78652  -0.77527  -0.77069  -0.76593
 Alpha  occ. eigenvalues --   -0.75975  -0.74423  -0.74373  -0.73387  -0.72505
 Alpha  occ. eigenvalues --   -0.71638  -0.71500  -0.71171  -0.70529  -0.70064
 Alpha  occ. eigenvalues --   -0.69950  -0.68442  -0.68043  -0.67545  -0.67245
 Alpha  occ. eigenvalues --   -0.65620  -0.65417  -0.64398  -0.63260  -0.62598
 Alpha  occ. eigenvalues --   -0.62067  -0.60873  -0.60127  -0.59804  -0.58826
 Alpha  occ. eigenvalues --   -0.58645  -0.58526  -0.57796  -0.57299  -0.57054
 Alpha  occ. eigenvalues --   -0.56983  -0.55842  -0.55195  -0.54960  -0.54778
 Alpha  occ. eigenvalues --   -0.54195  -0.53931  -0.52938  -0.52560  -0.52374
 Alpha  occ. eigenvalues --   -0.51996  -0.51847  -0.51474  -0.51393  -0.51022
 Alpha  occ. eigenvalues --   -0.50512  -0.50436  -0.50251  -0.50078  -0.49914
 Alpha  occ. eigenvalues --   -0.48877  -0.48550  -0.48456  -0.48253  -0.48003
 Alpha  occ. eigenvalues --   -0.47479  -0.47401  -0.47196  -0.47004  -0.46894
 Alpha  occ. eigenvalues --   -0.46694  -0.46493  -0.46274  -0.46102  -0.45877
 Alpha  occ. eigenvalues --   -0.45531  -0.45281  -0.45241  -0.45004  -0.44878
 Alpha  occ. eigenvalues --   -0.44810  -0.44566  -0.44401  -0.44204  -0.43953
 Alpha  occ. eigenvalues --   -0.43846  -0.43496  -0.43428  -0.43152  -0.42765
 Alpha  occ. eigenvalues --   -0.42686  -0.42412  -0.42074  -0.41933  -0.41703
 Alpha  occ. eigenvalues --   -0.41570  -0.41370  -0.41097  -0.41062  -0.40963
 Alpha  occ. eigenvalues --   -0.40925  -0.40561  -0.40485  -0.40363  -0.40197
 Alpha  occ. eigenvalues --   -0.40056  -0.39883  -0.39767  -0.39543  -0.39289
 Alpha  occ. eigenvalues --   -0.39091  -0.38921  -0.38687  -0.38440  -0.38263
 Alpha  occ. eigenvalues --   -0.38113  -0.37865  -0.37664  -0.37094  -0.36913
 Alpha  occ. eigenvalues --   -0.36822  -0.36785  -0.36514  -0.36386  -0.36357
 Alpha  occ. eigenvalues --   -0.35417  -0.34946  -0.34782  -0.34713  -0.34621
 Alpha  occ. eigenvalues --   -0.34347  -0.33950  -0.33773  -0.33343  -0.32683
 Alpha  occ. eigenvalues --   -0.32256  -0.32126  -0.31848  -0.31753  -0.31649
 Alpha  occ. eigenvalues --   -0.31550  -0.30891  -0.30576  -0.30324  -0.29945
 Alpha  occ. eigenvalues --   -0.28789  -0.28488  -0.28387  -0.28155  -0.27704
 Alpha  occ. eigenvalues --   -0.27093  -0.26508  -0.22899  -0.21278
 Alpha virt. eigenvalues --   -0.08409  -0.06737  -0.02262  -0.00978   0.00606
 Alpha virt. eigenvalues --    0.03427   0.04038   0.04144   0.04239   0.04699
 Alpha virt. eigenvalues --    0.04882   0.05548   0.08200   0.08451   0.09515

 Mulliken charges:
               1
     1  Mg   0.819301
     2  C    0.084484
     3  C   -0.200502
     4  C   -0.158478
     5  C   -0.184238
     6  N   -0.607050
     7  C    0.281233
     8  C   -0.136250
     9  C   -0.134254
    10  C    0.305249
    11  C   -0.308971
    12  C   -0.146492
    13  C   -0.268743
    14  C    0.592269
    15  O   -0.417750
    16  O   -0.498217
    17  N   -0.738866
    18  C    0.336253
    19  C    0.070317
    20  C   -0.004681
    21  C    0.290399
    22  C   -0.414378
    23  C    0.233413
    24  O   -0.454554
    25  N   -0.650674
    26  C    0.260958
    27  C    0.012470
    28  C    0.013788
    29  C    0.301435
    30  C    0.232063
    31  C   -0.248500
    32  C   -0.320012
    33  N   -0.725535
    34  C    0.266458
    35  C    0.073911
    36  C    0.014615
    37  C    0.268068
    38  C   -0.408348
    39  C    0.376297
    40  O   -0.394467
    41  C   -0.361198
    42  C    0.618401
    43  O   -0.508861
    44  O   -0.451904
    45  C   -0.085133
    46  C   -0.003815
    47  C   -0.138007
    48  C    0.190478
    49  C   -0.366034
    50  C   -0.235751
    51  C   -0.188341
    52  C   -0.174902
    53  C   -0.070828
    54  C   -0.285554
    55  C   -0.153688
    56  C   -0.167273
    57  C   -0.149751
    58  C   -0.039577
    59  C   -0.301277
    60  C   -0.175236
    61  C   -0.172138
    62  C   -0.164088
    63  C   -0.029357
    64  C   -0.309857
    65  C   -0.280954
    66  H    0.087064
    67  H    0.137976
    68  H    0.089532
    69  H    0.144210
    70  H    0.105638
    71  H    0.110497
    72  H    0.119218
    73  H    0.138403
    74  H    0.117522
    75  H    0.127711
    76  H    0.107820
    77  H    0.145057
    78  H    0.112236
    79  H    0.135959
    80  H    0.117326
    81  H    0.088785
    82  H    0.111816
    83  H    0.114121
    84  H    0.104107
    85  H    0.131186
    86  H    0.125016
    87  H    0.121244
    88  H    0.128068
    89  H    0.139667
    90  H    0.157641
    91  H    0.120504
    92  H    0.121400
    93  H    0.084607
    94  H    0.138699
    95  H    0.089421
    96  H    0.091047
    97  H    0.111754
    98  H    0.100927
    99  H    0.096718
   100  H    0.089838
   101  H    0.087167
   102  H    0.077839
   103  H    0.087514
   104  H    0.103823
   105  H    0.108490
   106  H    0.064485
   107  H    0.087903
   108  H    0.094800
   109  H    0.079390
   110  H    0.098280
   111  H    0.033291
   112  H    0.076987
   113  H    0.080714
   114  H    0.115940
   115  H    0.051699
   116  H    0.110157
   117  H    0.096418
   118  H    0.052901
   119  H    0.069846
   120  H    0.115025
   121  H    0.090502
   122  H    0.086822
   123  H    0.058815
   124  H    0.092735
   125  H    0.071074
   126  H    0.119792
   127  H    0.101086
   128  H    0.108251
   129  H    0.056565
   130  H    0.131399
   131  H    0.155058
   132  H    0.132431
   133  O   -0.444610
   134  H    0.077300
 Sum of Mulliken charges =   0.00000

 Dipole moment (field-independent basis, Debye):
    X=              1.7089    Y=             -7.5553    Z=             -2.7927  Tot=              8.2342
 Quadrupole moment (field-independent basis, Debye-Ang):
   XX=           -369.8266   YY=           -442.2424   ZZ=           -392.0346
   XY=             21.6539   XZ=             27.0947   YZ=            -36.5929

 Normal termination of Gaussian 09 at Thu Oct  3 20:10:31 2019.
