 Gaussian 09, Revision D.01,
 Gaussian 09:  ES64L-G09RevD.01 24-Apr-2013

 ----------------------------------------------------------------------
 # td=(NStates=1) iop(3/107=0140000000,3/108=0140000000) iop(3/107=0140
 000000,3/108=0140000000) CAM-B3LYP/6-31G(d,p)
 ----------------------------------------------------------------------

 --
 TD
 --
 Symbolic Z-matrix:
 Charge =  0 Multiplicity = 1

                         Standard orientation:
 ---------------------------------------------------------------------
 Center     Atomic      Atomic             Coordinates (Angstroms)
 Number     Number       Type             X           Y           Z
 ---------------------------------------------------------------------
      1         12           0       -5.608657    1.225373    0.154442
      2          6           0       -5.021226   -2.141828   -0.455999
      3          6           0       -3.418387    1.191894    2.751948
      4          6           0       -6.133849    4.637663    0.556348
      5          6           0       -8.022046    1.203647   -2.421625
      6          7           0       -4.390573   -0.331006    1.021171
      7          6           0       -4.281492   -1.593777    0.684979
      8          6           0       -3.165702   -2.268758    1.337895
      9          6           0       -2.886958   -1.204911    2.488455
     10          6           0       -3.593303   -0.047540    2.028028
     11          6           0       -3.370480   -1.688918    3.832075
     12          6           0       -1.905877   -2.669879    0.563644
     13          6           0       -0.958538   -3.495660    1.470958
     14          6           0        0.230469   -3.842867    0.653340
     15          8           0        0.472784   -3.534750   -0.544496
     16          8           0        1.058306   -4.725387    1.294179
     17          7           0       -4.889659    2.655960    1.504029
     18          6           0       -3.992626    2.460667    2.477508
     19          6           0       -3.735656    3.669650    3.170933
     20          6           0       -4.459180    4.629214    2.548427
     21          6           0       -5.155975    3.939439    1.434072
     22          6           0       -2.719627    3.810399    4.263394
     23          6           0       -4.606426    6.078170    2.854233
     24          8           0       -4.148791    6.588264    3.888880
     25          7           0       -6.776935    2.628482   -0.727286
     26          6           0       -6.940703    3.934362   -0.376738
     27          6           0       -7.917918    4.539322   -1.198820
     28          6           0       -8.458315    3.593273   -2.011297
     29          6           0       -7.732441    2.349449   -1.690451
     30          6           0       -8.465413    5.905757   -1.048422
     31          6           0       -9.504628    3.816324   -2.974376
     32          6           0       -8.917454    3.985461   -4.415564
     33          7           0       -6.310905   -0.249561   -1.102716
     34          6           0       -7.320094   -0.000500   -2.025849
     35          6           0       -7.692698   -1.238803   -2.674951
     36          6           0       -6.741562   -2.228053   -2.034920
     37          6           0       -5.933563   -1.449782   -1.131054
     38          6           0       -8.589176   -1.673404   -3.796758
     39          6           0       -6.274999   -3.659787   -1.988484
     40          8           0       -6.679539   -4.597767   -2.626668
     41          6           0       -5.077411   -3.593278   -0.941868
     42          6           0       -5.318281   -4.680262    0.135386
     43          8           0       -5.774721   -4.419343    1.239281
     44          8           0       -5.085167   -5.854520   -0.269337
     45          6           0       -5.479447   -7.039454    0.468206
     46          6           0        2.408330   -5.072675    0.728644
     47          6           0        3.446329   -4.173636    1.000293
     48          6           0        4.105207   -3.234076    0.260774
     49          6           0        3.741283   -3.073454   -1.303327
     50          6           0        5.139974   -2.287542    0.707179
     51          6           0        6.602049   -2.700626    0.222911
     52          6           0        7.699397   -1.767826    0.773934
     53          6           0        9.003942   -1.928443    0.096873
     54          6           0        9.614961   -3.365656    0.085911
     55          6           0       10.053911   -0.947277    0.679821
     56          6           0       11.373330   -0.892994   -0.147699
     57          6           0       12.183909    0.363094    0.264407
     58          6           0       13.603836    0.446264   -0.502226
     59          6           0       14.452731   -0.707312   -0.332413
     60          6           0       14.271007    1.772968   -0.184680
     61          6           0       15.483788    2.124939   -1.066337
     62          6           0       16.041504    3.512591   -0.647452
     63          6           0       17.337739    3.922858   -1.475413
     64          6           0       17.117194    3.891780   -2.943396
     65          6           0       17.923983    5.234716   -1.125240
     66          1           0       -2.624678    1.116390    3.430511
     67          1           0       -6.419402    5.767379    0.704599
     68          1           0       -8.774265    1.289271   -3.033054
     69          1           0       -3.544053   -3.187152    1.728210
     70          1           0       -1.777411   -0.918159    2.652331
     71          1           0       -2.997514   -2.665585    3.975328
     72          1           0       -2.802254   -0.894133    4.659703
     73          1           0       -4.485378   -1.854243    3.912158
     74          1           0       -2.258073   -3.128591   -0.536637
     75          1           0       -1.406117   -1.879940    0.125110
     76          1           0       -0.712002   -2.889408    2.366472
     77          1           0       -1.551702   -4.362285    1.711092
     78          1           0       -1.650299    3.608863    4.104590
     79          1           0       -2.824304    4.887169    4.635544
     80          1           0       -2.999836    3.097467    4.988278
     81          1           0       -5.127658    6.773856    1.887446
     82          1           0      -10.363396    2.934505   -3.124205
     83          1           0      -10.118984    4.606239   -2.681413
     84          1           0       -9.705395    4.256549   -5.028258
     85          1           0       -8.206709    4.711800   -4.022257
     86          1           0       -8.294491    3.038544   -5.106211
     87          1           0       -8.280010   -1.155906   -4.680670
     88          1           0       -8.596681   -2.857194   -3.899574
     89          1           0       -9.751342   -1.506969   -3.630958
     90          1           0       -4.193471   -3.796637   -1.577084
     91          1           0        2.588987   -6.069333    1.223174
     92          1           0        2.374934   -5.511716   -0.399577
     93          1           0        3.530353   -4.140555    1.978423
     94          1           0        2.860386   -3.555748   -1.640871
     95          1           0        3.742339   -1.941726   -1.627694
     96          1           0        4.517952   -3.503115   -1.946393
     97          1           0        4.996238   -1.236989    0.143933
     98          1           0        5.197583   -2.032167    1.702649
     99          1           0        7.017499   -3.780740    0.507969
    100          1           0        6.645655   -2.532812   -0.886915
    101          1           0        7.290145   -0.800166    0.978385
    102          1           0        7.939964   -1.947714    1.877439
    103          1           0        8.855379   -1.691760   -0.994218
    104          1           0        8.970319   -4.085227   -0.569363
    105          1           0       10.742516   -3.489697   -0.411071
    106          1           0        9.695633   -3.714748    1.109285
    107          1           0        9.596208    0.063468    0.471351
    108          1           0       10.216085   -1.068377    1.625090
    109          1           0       12.055632   -1.867820   -0.032622
    110          1           0       11.231623   -1.130144   -1.239749
    111          1           0       11.571541    1.235722   -0.246591
    112          1           0       12.390736    0.533244    1.382449
    113          1           0       13.373718    0.452270   -1.547562
    114          1           0       14.663983   -0.892773    0.910197
    115          1           0       14.060190   -1.555432   -0.637855
    116          1           0       15.324289   -0.525370   -0.878824
    117          1           0       13.632738    2.691138   -0.302644
    118          1           0       14.689287    1.671003    0.943266
    119          1           0       16.287555    1.411277   -0.891715
    120          1           0       15.375328    1.948294   -2.150697
    121          1           0       15.365665    4.236963   -0.783291
    122          1           0       16.255798    3.327999    0.453065
    123          1           0       17.972941    3.140798   -1.199329
    124          1           0       16.292055    4.571990   -3.438371
    125          1           0       18.062717    4.204593   -3.454375
    126          1           0       16.897535    2.735784   -3.227061
    127          1           0       18.080563    5.398158    0.006003
    128          1           0       18.686657    5.885126   -1.698561
    129          1           0       16.959035    5.871825   -1.358257
    130          1           0       -5.181022   -7.929943   -0.054484
    131          1           0       -6.579650   -6.811052    0.599940
    132          1           0       -4.955007   -6.780306    1.496085
    133          8           0       -7.931411    6.848416   -0.506294
    134          1           0       -9.498481    6.083501   -1.627007
 ---------------------------------------------------------------------

 SCF Done:  E(RCAM-B3LYP) =  -3043.42893991     A.U. after   16 cycles

 Excitation energies and oscillator strengths:

 Excited State   1:      Singlet-A      2.0002 eV  619.87 nm  f=0.1908  <S**2>=0.000
     243 -> 246       -0.28032
     244 -> 245        0.64157
 This state for optimization and/or second-order correction.
 Total Energy, E(TD-HF/TD-KS) =  -3043.35543554
 Copying the excited state density for this state as the 1-particle RhoCI density.

 The electronic state is 1-A.
 Alpha  occ. eigenvalues --  -46.82205 -19.23047 -19.21929 -19.18118 -19.17588
 Alpha  occ. eigenvalues --  -19.17014 -19.16847 -19.15926 -14.39153 -14.37119
 Alpha  occ. eigenvalues --  -14.36805 -14.36049 -10.35425 -10.34872 -10.31884
 Alpha  occ. eigenvalues --  -10.31611 -10.31282 -10.29609 -10.28473 -10.27444
 Alpha  occ. eigenvalues --  -10.26924 -10.26857 -10.26820 -10.26202 -10.26056
 Alpha  occ. eigenvalues --  -10.25889 -10.25268 -10.25076 -10.24984 -10.24951
 Alpha  occ. eigenvalues --  -10.24522 -10.24426 -10.24125 -10.24017 -10.23800
 Alpha  occ. eigenvalues --  -10.23797 -10.23795 -10.23758 -10.23715 -10.23596
 Alpha  occ. eigenvalues --  -10.23587 -10.23497 -10.23425 -10.23269 -10.23190
 Alpha  occ. eigenvalues --  -10.23141 -10.22732 -10.22625 -10.22487 -10.22361
 Alpha  occ. eigenvalues --  -10.22149 -10.22142 -10.21891 -10.21768 -10.21747
 Alpha  occ. eigenvalues --  -10.21477 -10.21396 -10.21240 -10.21144 -10.21028
 Alpha  occ. eigenvalues --  -10.20738 -10.20539 -10.20431 -10.20421 -10.20117
 Alpha  occ. eigenvalues --  -10.19548  -3.10669  -1.85627  -1.85143  -1.85053
 Alpha  occ. eigenvalues --   -1.16194  -1.10919  -1.07891  -1.07274  -1.05535
 Alpha  occ. eigenvalues --   -1.04194  -1.03512  -1.01924  -1.01727  -1.01061
 Alpha  occ. eigenvalues --   -0.99690  -0.88234  -0.86650  -0.86560  -0.86163
 Alpha  occ. eigenvalues --   -0.85574  -0.84916  -0.84551  -0.84186  -0.83876
 Alpha  occ. eigenvalues --   -0.83628  -0.82231  -0.81713  -0.80616  -0.79856
 Alpha  occ. eigenvalues --   -0.79209  -0.78722  -0.78378  -0.77253  -0.76951
 Alpha  occ. eigenvalues --   -0.74842  -0.74424  -0.74166  -0.73098  -0.72041
 Alpha  occ. eigenvalues --   -0.71016  -0.70648  -0.69927  -0.69563  -0.69507
 Alpha  occ. eigenvalues --   -0.69439  -0.68983  -0.67287  -0.66703  -0.66482
 Alpha  occ. eigenvalues --   -0.65385  -0.64899  -0.63277  -0.62854  -0.62631
 Alpha  occ. eigenvalues --   -0.62227  -0.60635  -0.60364  -0.59619  -0.59362
 Alpha  occ. eigenvalues --   -0.59225  -0.59134  -0.57757  -0.57593  -0.57203
 Alpha  occ. eigenvalues --   -0.56513  -0.56317  -0.55526  -0.55116  -0.54904
 Alpha  occ. eigenvalues --   -0.54024  -0.53761  -0.53273  -0.52811  -0.52375
 Alpha  occ. eigenvalues --   -0.51999  -0.51499  -0.51426  -0.50913  -0.50874
 Alpha  occ. eigenvalues --   -0.50775  -0.50482  -0.49983  -0.49633  -0.49372
 Alpha  occ. eigenvalues --   -0.49128  -0.49010  -0.48416  -0.48184  -0.48050
 Alpha  occ. eigenvalues --   -0.47651  -0.47575  -0.47288  -0.46792  -0.46773
 Alpha  occ. eigenvalues --   -0.46521  -0.46447  -0.46186  -0.46071  -0.45745
 Alpha  occ. eigenvalues --   -0.45593  -0.45527  -0.45293  -0.45122  -0.44724
 Alpha  occ. eigenvalues --   -0.44331  -0.44289  -0.43994  -0.43851  -0.43535
 Alpha  occ. eigenvalues --   -0.43486  -0.43402  -0.43134  -0.42957  -0.42540
 Alpha  occ. eigenvalues --   -0.42496  -0.42208  -0.42171  -0.42016  -0.41694
 Alpha  occ. eigenvalues --   -0.41632  -0.41545  -0.41254  -0.41032  -0.40958
 Alpha  occ. eigenvalues --   -0.40739  -0.40626  -0.40601  -0.40385  -0.40192
 Alpha  occ. eigenvalues --   -0.40066  -0.39856  -0.39791  -0.39502  -0.39190
 Alpha  occ. eigenvalues --   -0.39158  -0.38850  -0.38434  -0.38418  -0.38069
 Alpha  occ. eigenvalues --   -0.38004  -0.37605  -0.37473  -0.37391  -0.37081
 Alpha  occ. eigenvalues --   -0.36868  -0.36386  -0.36027  -0.35849  -0.35514
 Alpha  occ. eigenvalues --   -0.35093  -0.34905  -0.34823  -0.34604  -0.34511
 Alpha  occ. eigenvalues --   -0.34200  -0.33905  -0.33687  -0.33228  -0.33154
 Alpha  occ. eigenvalues --   -0.32825  -0.32575  -0.32027  -0.31737  -0.31352
 Alpha  occ. eigenvalues --   -0.31116  -0.30364  -0.30286  -0.30144  -0.29426
 Alpha  occ. eigenvalues --   -0.29092  -0.28379  -0.28278  -0.27562  -0.27509
 Alpha  occ. eigenvalues --   -0.27185  -0.26644  -0.22379  -0.21246
 Alpha virt. eigenvalues --   -0.08439  -0.06063  -0.02048  -0.00565   0.00992
 Alpha virt. eigenvalues --    0.01228   0.02560   0.03052   0.03928   0.04425
 Alpha virt. eigenvalues --    0.05307   0.05576   0.07155   0.07868   0.08817

 Mulliken charges:
               1
     1  Mg   0.831405
     2  C    0.075266
     3  C   -0.171219
     4  C   -0.187908
     5  C   -0.077393
     6  N   -0.619208
     7  C    0.308625
     8  C   -0.157331
     9  C   -0.192408
    10  C    0.376492
    11  C   -0.278703
    12  C   -0.169169
    13  C   -0.262009
    14  C    0.607627
    15  O   -0.480783
    16  O   -0.485744
    17  N   -0.690429
    18  C    0.312507
    19  C    0.053333
    20  C   -0.033721
    21  C    0.299810
    22  C   -0.391580
    23  C    0.242149
    24  O   -0.416427
    25  N   -0.725629
    26  C    0.311188
    27  C   -0.007606
    28  C    0.038801
    29  C    0.292870
    30  C    0.240942
    31  C   -0.285080
    32  C   -0.274553
    33  N   -0.745438
    34  C    0.252836
    35  C    0.024760
    36  C   -0.047224
    37  C    0.351280
    38  C   -0.391469
    39  C    0.365622
    40  O   -0.448797
    41  C   -0.326166
    42  C    0.592779
    43  O   -0.504955
    44  O   -0.402861
    45  C   -0.084798
    46  C    0.003256
    47  C   -0.111458
    48  C    0.161355
    49  C   -0.377225
    50  C   -0.246841
    51  C   -0.168394
    52  C   -0.172941
    53  C   -0.057953
    54  C   -0.306535
    55  C   -0.153103
    56  C   -0.186612
    57  C   -0.165085
    58  C   -0.063686
    59  C   -0.271256
    60  C   -0.152123
    61  C   -0.204184
    62  C   -0.166967
    63  C   -0.047089
    64  C   -0.292604
    65  C   -0.304199
    66  H    0.075057
    67  H    0.144180
    68  H    0.078719
    69  H    0.118711
    70  H    0.099085
    71  H    0.117197
    72  H    0.074692
    73  H    0.129962
    74  H    0.091412
    75  H    0.131777
    76  H    0.145965
    77  H    0.153197
    78  H    0.124369
    79  H    0.152291
    80  H    0.124650
    81  H    0.057640
    82  H    0.080554
    83  H    0.127005
    84  H    0.125389
    85  H    0.118738
    86  H    0.077411
    87  H    0.137776
    88  H    0.146436
    89  H    0.106413
    90  H    0.155889
    91  H    0.113461
    92  H    0.097789
    93  H    0.079883
    94  H    0.149495
    95  H    0.096813
    96  H    0.114551
    97  H    0.093378
    98  H    0.112059
    99  H    0.096081
   100  H    0.100174
   101  H    0.096052
   102  H    0.070681
   103  H    0.076505
   104  H    0.092371
   105  H    0.082099
   106  H    0.106949
   107  H    0.086826
   108  H    0.102011
   109  H    0.065967
   110  H    0.092811
   111  H    0.079696
   112  H    0.089751
   113  H    0.084512
   114  H    0.048430
   115  H    0.112123
   116  H    0.104224
   117  H    0.089173
   118  H    0.064058
   119  H    0.094315
   120  H    0.090846
   121  H    0.098745
   122  H    0.086847
   123  H    0.096028
   124  H    0.090012
   125  H    0.101260
   126  H    0.075935
   127  H    0.088937
   128  H    0.104734
   129  H    0.075852
   130  H    0.149449
   131  H    0.147438
   132  H    0.127097
   133  O   -0.406336
   134  H    0.050367
 Sum of Mulliken charges =   0.00000

 Dipole moment (field-independent basis, Debye):
    X=              2.4721    Y=             -5.4229    Z=             -1.1173  Tot=              6.0636
 Quadrupole moment (field-independent basis, Debye-Ang):
   XX=           -379.0739   YY=           -436.5396   ZZ=           -400.4105
   XY=             10.3965   XZ=             21.1704   YZ=            -35.7697

 Normal termination of Gaussian 09 at Mon Oct  7 16:53:36 2019.
