 Gaussian 09, Revision D.01,
 Gaussian 09:  ES64L-G09RevD.01 24-Apr-2013

 ----------------------------------------------------------------------
 # td=(NStates=1) iop(3/107=0140000000,3/108=0140000000) iop(3/107=0140
 000000,3/108=0140000000) CAM-B3LYP/6-31G(d,p)
 ----------------------------------------------------------------------

 --
 TD
 --
 Symbolic Z-matrix:
 Charge =  0 Multiplicity = 1

                         Standard orientation:
 ---------------------------------------------------------------------
 Center     Atomic      Atomic             Coordinates (Angstroms)
 Number     Number       Type             X           Y           Z
 ---------------------------------------------------------------------
      1         12           0       -5.555448    1.227499    0.156403
      2          6           0       -4.990401   -2.181269   -0.317168
      3          6           0       -3.367076    1.109105    2.832785
      4          6           0       -6.130145    4.586869    0.581637
      5          6           0       -7.938035    1.276519   -2.393465
      6          7           0       -4.392351   -0.288479    1.061902
      7          6           0       -4.257237   -1.573446    0.689395
      8          6           0       -3.135364   -2.285075    1.481183
      9          6           0       -2.987142   -1.288179    2.672634
     10          6           0       -3.612958   -0.032611    2.145733
     11          6           0       -3.468690   -1.828232    3.980313
     12          6           0       -1.911262   -2.601700    0.641141
     13          6           0       -0.970433   -3.479655    1.320952
     14          6           0        0.341370   -3.868627    0.619593
     15          8           0        0.464102   -3.468447   -0.550928
     16          8           0        1.168877   -4.660176    1.205416
     17          7           0       -4.802640    2.627752    1.429869
     18          6           0       -3.939481    2.381289    2.440223
     19          6           0       -3.718839    3.521181    3.172923
     20          6           0       -4.495017    4.551708    2.605613
     21          6           0       -5.165367    3.964457    1.506961
     22          6           0       -2.795067    3.687713    4.258046
     23          6           0       -4.530971    5.985546    2.984003
     24          8           0       -3.925451    6.465135    3.948465
     25          7           0       -6.795011    2.644508   -0.730519
     26          6           0       -6.884299    4.024413   -0.337072
     27          6           0       -7.940071    4.567343   -1.125681
     28          6           0       -8.327361    3.661823   -2.072587
     29          6           0       -7.681275    2.406178   -1.748082
     30          6           0       -8.311769    5.958790   -1.165737
     31          6           0       -9.352875    3.821685   -3.213823
     32          6           0       -8.781752    4.198144   -4.627950
     33          7           0       -6.253574   -0.122244   -1.175436
     34          6           0       -7.365300   -0.013086   -2.084907
     35          6           0       -7.609357   -1.309316   -2.692249
     36          6           0       -6.746158   -2.138384   -2.038306
     37          6           0       -5.952176   -1.442024   -1.053262
     38          6           0       -8.879715   -1.506618   -3.618712
     39          6           0       -6.334049   -3.583568   -1.962276
     40          8           0       -6.820268   -4.547508   -2.503076
     41          6           0       -5.124264   -3.603581   -0.893156
     42          6           0       -5.354101   -4.645867    0.161488
     43          8           0       -5.892694   -4.475998    1.283838
     44          8           0       -5.099752   -5.840073   -0.285584
     45          6           0       -5.546347   -6.882748    0.497125
     46          6           0        2.427269   -5.008877    0.539763
     47          6           0        3.569943   -4.040019    1.038419
     48          6           0        4.116930   -3.189222    0.124972
     49          6           0        3.674595   -3.121231   -1.356792
     50          6           0        5.177210   -2.321020    0.588039
     51          6           0        6.450615   -2.732091    0.025564
     52          6           0        7.645195   -1.770307    0.424687
     53          6           0        9.059393   -1.929637   -0.163495
     54          6           0        9.540641   -3.412615   -0.145643
     55          6           0        9.993460   -0.974547    0.531280
     56          6           0       11.306594   -0.884410   -0.329741
     57          6           0       12.213815    0.201111    0.217423
     58          6           0       13.521529    0.452995   -0.475598
     59          6           0       14.550401   -0.695800   -0.376976
     60          6           0       14.141523    1.801052   -0.190262
     61          6           0       15.495884    2.095958   -0.899198
     62          6           0       16.049620    3.519037   -0.615319
     63          6           0       17.397164    3.822043   -1.327414
     64          6           0       17.210299    3.907388   -2.817658
     65          6           0       17.847699    5.204780   -0.652760
     66          1           0       -2.602486    1.048275    3.549632
     67          1           0       -6.544684    5.700687    0.731700
     68          1           0       -8.815295    0.841568   -3.011810
     69          1           0       -3.608313   -3.203286    1.809841
     70          1           0       -1.970085   -1.378619    2.804933
     71          1           0       -2.946001   -2.779223    4.381468
     72          1           0       -3.279636   -1.135357    4.743036
     73          1           0       -4.436679   -2.214249    3.811278
     74          1           0       -2.286801   -2.852397   -0.458659
     75          1           0       -1.225141   -1.800495    0.479418
     76          1           0       -0.614130   -3.099874    2.326807
     77          1           0       -1.359531   -4.472693    1.663706
     78          1           0       -1.779449    3.459339    4.017353
     79          1           0       -2.704315    4.674320    4.753856
     80          1           0       -3.148519    3.016918    5.109325
     81          1           0       -5.155191    6.542619    2.357143
     82          1           0      -10.091959    2.861452   -3.356084
     83          1           0      -10.263752    4.597073   -2.950816
     84          1           0       -9.741022    4.329903   -5.295883
     85          1           0       -8.366792    5.301416   -4.571210
     86          1           0       -7.890042    3.548419   -5.108420
     87          1           0       -8.932908   -0.918044   -4.555658
     88          1           0       -8.642912   -2.630524   -4.004256
     89          1           0       -9.881678   -1.306305   -3.365705
     90          1           0       -4.258601   -3.969780   -1.515484
     91          1           0        2.433793   -6.014481    0.860507
     92          1           0        2.004534   -4.886581   -0.416746
     93          1           0        3.721769   -4.035007    2.190599
     94          1           0        2.492722   -3.322854   -1.382701
     95          1           0        3.829695   -2.077670   -1.769540
     96          1           0        4.310328   -3.773924   -1.939724
     97          1           0        4.895885   -1.390975    0.384426
     98          1           0        5.250474   -2.569530    1.738557
     99          1           0        6.635100   -3.830353    0.335908
    100          1           0        6.598331   -2.578697   -1.148582
    101          1           0        7.453148   -0.637498    0.201125
    102          1           0        7.768954   -1.710653    1.593872
    103          1           0        8.857884   -1.777098   -1.197430
    104          1           0        8.731364   -4.200841   -0.380597
    105          1           0       10.368635   -3.743129   -0.798194
    106          1           0        9.893388   -3.818133    0.881245
    107          1           0        9.542782    0.059775    0.624399
    108          1           0       10.392869   -1.421543    1.483441
    109          1           0       11.818574   -2.013543   -0.114219
    110          1           0       11.182068   -0.516872   -1.335723
    111          1           0       11.610309    1.056688    0.317625
    112          1           0       12.453903    0.008789    1.220320
    113          1           0       13.136820    0.774790   -1.468073
    114          1           0       15.061963   -0.713899    0.525582
    115          1           0       14.057560   -1.643662   -0.609687
    116          1           0       15.331323   -0.362740   -1.190365
    117          1           0       13.430143    2.578900   -0.341543
    118          1           0       14.320420    1.681501    0.943027
    119          1           0       16.234367    1.318499   -0.544207
    120          1           0       15.276773    1.858771   -1.993250
    121          1           0       15.379327    4.302923   -1.247919
    122          1           0       16.146517    3.788476    0.468156
    123          1           0       18.098592    3.084369   -1.334190
    124          1           0       16.412096    4.602982   -3.057534
    125          1           0       18.153689    4.293461   -3.320604
    126          1           0       16.912131    2.963526   -3.145750
    127          1           0       17.663695    5.208515    0.355531
    128          1           0       18.941154    5.445243   -1.071383
    129          1           0       17.163702    5.918591   -1.170538
    130          1           0       -5.340819   -7.915065    0.098860
    131          1           0       -6.610430   -6.763987    0.557893
    132          1           0       -5.266300   -6.849802    1.558254
    133          8           0       -7.834474    6.814167   -0.369880
    134          1           0       -9.076381    6.223845   -1.829539
 ---------------------------------------------------------------------

 SCF Done:  E(RCAM-B3LYP) =  -3043.51690467     A.U. after   16 cycles

 Excitation energies and oscillator strengths:

 Excited State   1:      Singlet-A      1.9661 eV  630.61 nm  f=0.2499  <S**2>=0.000
     243 -> 246        0.21789
     244 -> 245        0.66346
 This state for optimization and/or second-order correction.
 Total Energy, E(TD-HF/TD-KS) =  -3043.44465143
 Copying the excited state density for this state as the 1-particle RhoCI density.

 The electronic state is 1-A.
 Alpha  occ. eigenvalues --  -46.80795 -19.24010 -19.22490 -19.18625 -19.17541
 Alpha  occ. eigenvalues --  -19.16644 -19.16148 -19.15785 -14.39258 -14.36861
 Alpha  occ. eigenvalues --  -14.36466 -14.36431 -10.35342 -10.34684 -10.32842
 Alpha  occ. eigenvalues --  -10.30309 -10.29074 -10.27917 -10.27178 -10.27013
 Alpha  occ. eigenvalues --  -10.27009 -10.26828 -10.26720 -10.26614 -10.26471
 Alpha  occ. eigenvalues --  -10.26402 -10.26307 -10.26254 -10.25845 -10.25334
 Alpha  occ. eigenvalues --  -10.25325 -10.25277 -10.24800 -10.24729 -10.24596
 Alpha  occ. eigenvalues --  -10.24150 -10.24117 -10.23510 -10.23473 -10.23337
 Alpha  occ. eigenvalues --  -10.23226 -10.23221 -10.23188 -10.23139 -10.22724
 Alpha  occ. eigenvalues --  -10.22301 -10.22299 -10.22276 -10.22144 -10.22035
 Alpha  occ. eigenvalues --  -10.21926 -10.21882 -10.21874 -10.21855 -10.21690
 Alpha  occ. eigenvalues --  -10.21343 -10.21227 -10.20926 -10.20671 -10.20637
 Alpha  occ. eigenvalues --  -10.20427 -10.20401 -10.20367 -10.20307 -10.19358
 Alpha  occ. eigenvalues --  -10.18717  -3.09412  -1.84359  -1.83877  -1.83820
 Alpha  occ. eigenvalues --   -1.16735  -1.14866  -1.08577  -1.05144  -1.04724
 Alpha  occ. eigenvalues --   -1.03362  -1.03303  -1.01111  -0.99659  -0.99150
 Alpha  occ. eigenvalues --   -0.98209  -0.88341  -0.87323  -0.86637  -0.85817
 Alpha  occ. eigenvalues --   -0.85412  -0.84672  -0.84358  -0.84101  -0.83412
 Alpha  occ. eigenvalues --   -0.83197  -0.82712  -0.82197  -0.80841  -0.80276
 Alpha  occ. eigenvalues --   -0.79008  -0.78563  -0.78431  -0.77411  -0.76429
 Alpha  occ. eigenvalues --   -0.75209  -0.74923  -0.74092  -0.73351  -0.72238
 Alpha  occ. eigenvalues --   -0.71345  -0.71188  -0.70732  -0.70314  -0.69953
 Alpha  occ. eigenvalues --   -0.69813  -0.69247  -0.67602  -0.66901  -0.66154
 Alpha  occ. eigenvalues --   -0.65166  -0.64932  -0.64634  -0.62647  -0.62412
 Alpha  occ. eigenvalues --   -0.62260  -0.61663  -0.59873  -0.59425  -0.58910
 Alpha  occ. eigenvalues --   -0.58478  -0.58465  -0.58214  -0.57810  -0.57459
 Alpha  occ. eigenvalues --   -0.56616  -0.56110  -0.55759  -0.55601  -0.55080
 Alpha  occ. eigenvalues --   -0.54436  -0.53953  -0.53242  -0.53090  -0.52716
 Alpha  occ. eigenvalues --   -0.52143  -0.51878  -0.51781  -0.51322  -0.51117
 Alpha  occ. eigenvalues --   -0.51098  -0.50128  -0.49937  -0.49714  -0.49279
 Alpha  occ. eigenvalues --   -0.49120  -0.48771  -0.48396  -0.47956  -0.47862
 Alpha  occ. eigenvalues --   -0.47559  -0.47367  -0.47295  -0.47064  -0.46965
 Alpha  occ. eigenvalues --   -0.46556  -0.46471  -0.46187  -0.46094  -0.45848
 Alpha  occ. eigenvalues --   -0.45748  -0.45366  -0.45268  -0.45053  -0.44884
 Alpha  occ. eigenvalues --   -0.44582  -0.44372  -0.44190  -0.44078  -0.43903
 Alpha  occ. eigenvalues --   -0.43414  -0.43344  -0.43072  -0.42975  -0.42675
 Alpha  occ. eigenvalues --   -0.42375  -0.42263  -0.42057  -0.41779  -0.41628
 Alpha  occ. eigenvalues --   -0.41568  -0.41320  -0.41085  -0.40750  -0.40663
 Alpha  occ. eigenvalues --   -0.40242  -0.40220  -0.39979  -0.39841  -0.39777
 Alpha  occ. eigenvalues --   -0.39697  -0.39648  -0.39456  -0.39303  -0.39120
 Alpha  occ. eigenvalues --   -0.38763  -0.38717  -0.38662  -0.38444  -0.38238
 Alpha  occ. eigenvalues --   -0.37898  -0.37521  -0.37215  -0.37189  -0.36595
 Alpha  occ. eigenvalues --   -0.36464  -0.36280  -0.35946  -0.35916  -0.35626
 Alpha  occ. eigenvalues --   -0.35521  -0.34952  -0.34853  -0.34781  -0.34560
 Alpha  occ. eigenvalues --   -0.34373  -0.34196  -0.33603  -0.33464  -0.33262
 Alpha  occ. eigenvalues --   -0.32881  -0.32677  -0.32064  -0.31725  -0.31262
 Alpha  occ. eigenvalues --   -0.31041  -0.30786  -0.30458  -0.30105  -0.29371
 Alpha  occ. eigenvalues --   -0.29163  -0.28770  -0.28275  -0.28218  -0.27803
 Alpha  occ. eigenvalues --   -0.26914  -0.26892  -0.23332  -0.22079
 Alpha virt. eigenvalues --   -0.09727  -0.06526  -0.01514  -0.00881   0.00567
 Alpha virt. eigenvalues --    0.02618   0.03160   0.03896   0.04366   0.04710
 Alpha virt. eigenvalues --    0.05118   0.05358   0.07860   0.08369   0.09256

 Mulliken charges:
               1
     1  Mg   0.812388
     2  C    0.101974
     3  C   -0.153812
     4  C   -0.205351
     5  C   -0.137049
     6  N   -0.648934
     7  C    0.297087
     8  C   -0.162072
     9  C   -0.154887
    10  C    0.374120
    11  C   -0.311468
    12  C   -0.150407
    13  C   -0.267404
    14  C    0.587110
    15  O   -0.504164
    16  O   -0.448890
    17  N   -0.723151
    18  C    0.324295
    19  C    0.049441
    20  C   -0.038205
    21  C    0.272958
    22  C   -0.411546
    23  C    0.266707
    24  O   -0.435611
    25  N   -0.719598
    26  C    0.336756
    27  C   -0.034056
    28  C    0.049604
    29  C    0.347039
    30  C    0.257666
    31  C   -0.249295
    32  C   -0.293986
    33  N   -0.720065
    34  C    0.201444
    35  C    0.038016
    36  C   -0.013318
    37  C    0.309884
    38  C   -0.392848
    39  C    0.382813
    40  O   -0.433710
    41  C   -0.337800
    42  C    0.620970
    43  O   -0.514644
    44  O   -0.388244
    45  C   -0.101393
    46  C   -0.007475
    47  C   -0.146366
    48  C    0.130031
    49  C   -0.381394
    50  C   -0.195784
    51  C   -0.162549
    52  C   -0.178280
    53  C   -0.024652
    54  C   -0.332412
    55  C   -0.172982
    56  C   -0.165906
    57  C   -0.177061
    58  C   -0.053633
    59  C   -0.314805
    60  C   -0.167429
    61  C   -0.187010
    62  C   -0.153541
    63  C   -0.061600
    64  C   -0.312946
    65  C   -0.303935
    66  H    0.096819
    67  H    0.156210
    68  H    0.096420
    69  H    0.120452
    70  H    0.102867
    71  H    0.093669
    72  H    0.115355
    73  H    0.133000
    74  H    0.109317
    75  H    0.125751
    76  H    0.123705
    77  H    0.122572
    78  H    0.123391
    79  H    0.160236
    80  H    0.107394
    81  H    0.085920
    82  H    0.098026
    83  H    0.097839
    84  H    0.106908
    85  H    0.104291
    86  H    0.115780
    87  H    0.125773
    88  H    0.131704
    89  H    0.149389
    90  H    0.159956
    91  H    0.122017
    92  H    0.136294
    93  H    0.095768
    94  H    0.157477
    95  H    0.101526
    96  H    0.129810
    97  H    0.108608
    98  H    0.087182
    99  H    0.098398
   100  H    0.078122
   101  H    0.073452
   102  H    0.065497
   103  H    0.094811
   104  H    0.090580
   105  H    0.108687
   106  H    0.083613
   107  H    0.086566
   108  H    0.103208
   109  H    0.068627
   110  H    0.095157
   111  H    0.084337
   112  H    0.080773
   113  H    0.067702
   114  H    0.114872
   115  H    0.105253
   116  H    0.093916
   117  H    0.090864
   118  H    0.061847
   119  H    0.095346
   120  H    0.088240
   121  H    0.068290
   122  H    0.091473
   123  H    0.093661
   124  H    0.092328
   125  H    0.091348
   126  H    0.111474
   127  H    0.111504
   128  H    0.080601
   129  H    0.100012
   130  H    0.120214
   131  H    0.133532
   132  H    0.129833
   133  O   -0.447819
   134  H    0.083621
 Sum of Mulliken charges =   0.00000

 Dipole moment (field-independent basis, Debye):
    X=              1.4478    Y=             -5.1276    Z=             -2.2153  Tot=              5.7702
 Quadrupole moment (field-independent basis, Debye-Ang):
   XX=           -370.8458   YY=           -437.8880   ZZ=           -397.4886
   XY=              0.8002   XZ=             33.1004   YZ=            -38.4039

 Normal termination of Gaussian 09 at Fri Oct  4 21:37:56 2019.
