 Gaussian 09, Revision D.01,
 Gaussian 09:  ES64L-G09RevD.01 24-Apr-2013

 ----------------------------------------------------------------------
 # td=(NStates=1) iop(3/107=0140000000,3/108=0140000000) iop(3/107=0140
 000000,3/108=0140000000) CAM-B3LYP/6-31G(d,p)
 ----------------------------------------------------------------------

 --
 TD
 --
 Symbolic Z-matrix:
 Charge =  0 Multiplicity = 1

                         Standard orientation:
 ---------------------------------------------------------------------
 Center     Atomic      Atomic             Coordinates (Angstroms)
 Number     Number       Type             X           Y           Z
 ---------------------------------------------------------------------
      1         12           0       -5.643014    1.151279    0.088861
      2          6           0       -5.028280   -2.103144   -0.354422
      3          6           0       -3.509651    1.125637    2.726850
      4          6           0       -6.130147    4.537731    0.606002
      5          6           0       -8.049652    1.134797   -2.412328
      6          7           0       -4.368751   -0.329048    0.988395
      7          6           0       -4.342475   -1.624628    0.728146
      8          6           0       -3.269240   -2.338727    1.554561
      9          6           0       -2.971223   -1.368662    2.630323
     10          6           0       -3.587435   -0.064841    2.097274
     11          6           0       -3.589656   -1.736132    4.036866
     12          6           0       -1.954847   -2.597724    0.707462
     13          6           0       -1.018927   -3.448421    1.387134
     14          6           0        0.166097   -3.764090    0.735838
     15          8           0        0.470759   -3.295451   -0.422428
     16          8           0        1.077669   -4.661778    1.385497
     17          7           0       -4.932551    2.661172    1.441233
     18          6           0       -4.041962    2.393118    2.437255
     19          6           0       -3.729711    3.620109    3.232501
     20          6           0       -4.572663    4.561671    2.557088
     21          6           0       -5.219624    3.952835    1.481965
     22          6           0       -2.788750    3.631049    4.357917
     23          6           0       -4.674941    5.986282    2.956623
     24          8           0       -4.087039    6.550440    3.900389
     25          7           0       -6.911491    2.614685   -0.766932
     26          6           0       -6.893553    3.950512   -0.382196
     27          6           0       -7.967562    4.651544   -1.198838
     28          6           0       -8.550308    3.720460   -2.014311
     29          6           0       -7.835873    2.372624   -1.805839
     30          6           0       -8.248786    6.097125   -1.204930
     31          6           0       -9.432789    3.731328   -3.181412
     32          6           0       -8.659544    3.992577   -4.557434
     33          7           0       -6.477029   -0.226295   -1.108586
     34          6           0       -7.460523   -0.142429   -2.089733
     35          6           0       -7.616249   -1.434369   -2.715054
     36          6           0       -6.713385   -2.260533   -2.125479
     37          6           0       -6.015865   -1.456820   -1.149811
     38          6           0       -8.529392   -1.640938   -3.851681
     39          6           0       -6.192716   -3.614615   -2.000087
     40          8           0       -6.516087   -4.519234   -2.728889
     41          6           0       -5.075581   -3.587894   -0.891810
     42          6           0       -5.327635   -4.586814    0.142935
     43          8           0       -5.711334   -4.403383    1.260164
     44          8           0       -5.175376   -5.842568   -0.366729
     45          6           0       -5.454478   -6.892941    0.582866
     46          6           0        2.327623   -4.975731    0.740228
     47          6           0        3.485890   -4.039832    1.014341
     48          6           0        4.068502   -3.178845    0.143615
     49          6           0        3.806344   -3.019047   -1.303945
     50          6           0        5.183347   -2.295254    0.648767
     51          6           0        6.517535   -2.600464   -0.099877
     52          6           0        7.644912   -1.732579    0.539626
     53          6           0        9.122147   -1.981830   -0.136650
     54          6           0        9.654452   -3.382719    0.095534
     55          6           0       10.007814   -0.946699    0.453747
     56          6           0       11.361938   -0.829618   -0.371435
     57          6           0       12.379098    0.179207    0.268081
     58          6           0       13.639569    0.369754   -0.592969
     59          6           0       14.529236   -0.812385   -0.355323
     60          6           0       14.343738    1.703892   -0.193893
     61          6           0       15.664064    2.135888   -0.918566
     62          6           0       16.027834    3.566359   -0.618726
     63          6           0       17.386766    3.837253   -1.266971
     64          6           0       17.303222    3.904533   -2.812501
     65          6           0       17.898308    5.227142   -0.793661
     66          1           0       -2.872390    1.005582    3.624192
     67          1           0       -6.742179    5.569192    0.670506
     68          1           0       -8.874479    1.097351   -3.048926
     69          1           0       -3.735456   -3.364055    1.866269
     70          1           0       -1.927752   -1.052730    2.748414
     71          1           0       -2.913447   -2.701528    4.400963
     72          1           0       -3.444711   -1.030427    4.794716
     73          1           0       -4.666330   -1.874863    3.859208
     74          1           0       -2.145564   -2.894774   -0.384718
     75          1           0       -1.424790   -1.559825    0.686902
     76          1           0       -0.858512   -2.789531    2.347948
     77          1           0       -1.348052   -4.387749    1.795796
     78          1           0       -1.775760    3.590532    3.870146
     79          1           0       -2.943691    4.671142    5.012641
     80          1           0       -2.934400    2.536659    5.097756
     81          1           0       -5.328702    6.752768    2.386742
     82          1           0      -10.015992    2.728025   -3.098439
     83          1           0      -10.334214    4.493466   -2.952891
     84          1           0       -9.341811    3.974052   -5.384737
     85          1           0       -8.196599    4.850630   -4.535242
     86          1           0       -8.033561    3.214478   -4.844892
     87          1           0       -8.349555   -1.005460   -4.614497
     88          1           0       -8.591355   -2.667676   -3.989341
     89          1           0       -9.486256   -1.196763   -3.648618
     90          1           0       -3.991462   -3.802882   -1.344119
     91          1           0        2.398945   -5.835297    1.308645
     92          1           0        2.163794   -5.002435   -0.310840
     93          1           0        3.981088   -3.925096    1.947286
     94          1           0        2.637351   -3.103183   -1.470390
     95          1           0        4.008974   -1.879060   -1.645672
     96          1           0        4.213629   -3.785592   -1.960827
     97          1           0        5.045504   -1.194149    0.500660
     98          1           0        5.268228   -2.274045    1.784298
     99          1           0        6.845658   -3.643479    0.119522
    100          1           0        6.520091   -2.401641   -1.041369
    101          1           0        7.341921   -0.638548    0.368074
    102          1           0        7.732774   -1.993412    1.749749
    103          1           0        9.056671   -1.949799   -1.226566
    104          1           0        8.842511   -4.220360    0.012648
    105          1           0       10.503209   -3.821563   -0.625349
    106          1           0        9.923148   -3.417212    1.174896
    107          1           0        9.499430    0.011246    0.048188
    108          1           0       10.315232   -1.101244    1.514134
    109          1           0       11.984412   -1.707987   -0.468005
    110          1           0       11.126176   -0.544232   -1.448878
    111          1           0       11.825977    1.062554    0.288105
    112          1           0       12.707266   -0.073622    1.310092
    113          1           0       13.339069    0.413555   -1.694225
    114          1           0       14.857798   -0.617334    0.706879
    115          1           0       13.918442   -1.675203   -0.376890
    116          1           0       15.341711   -0.889165   -1.057760
    117          1           0       13.499906    2.551862   -0.402887
    118          1           0       14.686733    1.790100    0.907485
    119          1           0       16.489229    1.507302   -0.467014
    120          1           0       15.427599    1.954392   -2.019440
    121          1           0       15.205187    4.257281   -1.276006
    122          1           0       16.136441    3.594430    0.524853
    123          1           0       18.210064    3.239638   -1.043461
    124          1           0       16.254979    4.354502   -3.085990
    125          1           0       17.946871    4.340191   -3.444731
    126          1           0       17.051757    2.914360   -3.414797
    127          1           0       17.920146    5.361271    0.366642
    128          1           0       18.919583    5.348208   -1.371965
    129          1           0       17.248299    5.975421   -1.279115
    130          1           0       -5.135132   -7.696095    0.039747
    131          1           0       -6.468158   -7.021628    0.720890
    132          1           0       -4.884525   -6.647224    1.371257
    133          8           0       -7.852184    6.865584   -0.392456
    134          1           0       -9.127385    6.270642   -1.759139
 ---------------------------------------------------------------------

 SCF Done:  E(RCAM-B3LYP) =  -3043.48888310     A.U. after   16 cycles

 Excitation energies and oscillator strengths:

 Excited State   1:      Singlet-A      2.0109 eV  616.57 nm  f=0.2448  <S**2>=0.000
     243 -> 246       -0.24397
     244 -> 245        0.65583
 This state for optimization and/or second-order correction.
 Total Energy, E(TD-HF/TD-KS) =  -3043.41498455
 Copying the excited state density for this state as the 1-particle RhoCI density.

 The electronic state is 1-A.
 Alpha  occ. eigenvalues --  -46.82585 -19.21706 -19.21362 -19.18421 -19.17710
 Alpha  occ. eigenvalues --  -19.17392 -19.17224 -19.15973 -14.38915 -14.37137
 Alpha  occ. eigenvalues --  -14.36777 -14.36513 -10.35355 -10.34897 -10.31825
 Alpha  occ. eigenvalues --  -10.30528 -10.29853 -10.27256 -10.27065 -10.26903
 Alpha  occ. eigenvalues --  -10.26638 -10.26595 -10.26562 -10.26348 -10.26179
 Alpha  occ. eigenvalues --  -10.25827 -10.25737 -10.25652 -10.25508 -10.25412
 Alpha  occ. eigenvalues --  -10.25081 -10.25062 -10.24927 -10.24881 -10.24758
 Alpha  occ. eigenvalues --  -10.24668 -10.24490 -10.24363 -10.24019 -10.23765
 Alpha  occ. eigenvalues --  -10.23518 -10.23488 -10.23095 -10.23046 -10.22764
 Alpha  occ. eigenvalues --  -10.22751 -10.22688 -10.22108 -10.21896 -10.21863
 Alpha  occ. eigenvalues --  -10.21850 -10.21735 -10.21658 -10.21608 -10.21422
 Alpha  occ. eigenvalues --  -10.21364 -10.21357 -10.21168 -10.21000 -10.20983
 Alpha  occ. eigenvalues --  -10.20741 -10.20602 -10.20500 -10.20122 -10.19777
 Alpha  occ. eigenvalues --  -10.19213  -3.10908  -1.85870  -1.85344  -1.85324
 Alpha  occ. eigenvalues --   -1.14026  -1.09855  -1.09846  -1.07922  -1.05463
 Alpha  occ. eigenvalues --   -1.04075  -1.01915  -1.01609  -1.00740  -1.00389
 Alpha  occ. eigenvalues --   -0.97122  -0.88254  -0.88022  -0.85650  -0.85563
 Alpha  occ. eigenvalues --   -0.85041  -0.84949  -0.84530  -0.84190  -0.83742
 Alpha  occ. eigenvalues --   -0.83151  -0.82928  -0.82632  -0.80703  -0.79585
 Alpha  occ. eigenvalues --   -0.79257  -0.78185  -0.77869  -0.77765  -0.76625
 Alpha  occ. eigenvalues --   -0.75740  -0.74947  -0.74207  -0.73676  -0.72872
 Alpha  occ. eigenvalues --   -0.71185  -0.70639  -0.70139  -0.69904  -0.69876
 Alpha  occ. eigenvalues --   -0.69171  -0.68806  -0.67486  -0.66779  -0.66383
 Alpha  occ. eigenvalues --   -0.65307  -0.64750  -0.64216  -0.62706  -0.62435
 Alpha  occ. eigenvalues --   -0.61482  -0.61115  -0.59658  -0.58638  -0.58533
 Alpha  occ. eigenvalues --   -0.58400  -0.58083  -0.57791  -0.57377  -0.56869
 Alpha  occ. eigenvalues --   -0.56661  -0.56071  -0.55554  -0.55136  -0.54807
 Alpha  occ. eigenvalues --   -0.54436  -0.53901  -0.53435  -0.53140  -0.52769
 Alpha  occ. eigenvalues --   -0.52411  -0.51640  -0.51585  -0.51396  -0.50851
 Alpha  occ. eigenvalues --   -0.50729  -0.50139  -0.50075  -0.49917  -0.49044
 Alpha  occ. eigenvalues --   -0.49005  -0.48854  -0.48564  -0.48296  -0.47921
 Alpha  occ. eigenvalues --   -0.47656  -0.47442  -0.47345  -0.47342  -0.46862
 Alpha  occ. eigenvalues --   -0.46638  -0.46514  -0.46132  -0.46063  -0.45794
 Alpha  occ. eigenvalues --   -0.45732  -0.45550  -0.45204  -0.45082  -0.44776
 Alpha  occ. eigenvalues --   -0.44646  -0.44578  -0.43942  -0.43841  -0.43630
 Alpha  occ. eigenvalues --   -0.43514  -0.43322  -0.43237  -0.43143  -0.43019
 Alpha  occ. eigenvalues --   -0.42885  -0.42474  -0.42338  -0.42199  -0.42004
 Alpha  occ. eigenvalues --   -0.41943  -0.41612  -0.41167  -0.40939  -0.40710
 Alpha  occ. eigenvalues --   -0.40615  -0.40185  -0.39728  -0.39652  -0.39557
 Alpha  occ. eigenvalues --   -0.39456  -0.39209  -0.39134  -0.39060  -0.39023
 Alpha  occ. eigenvalues --   -0.39010  -0.38764  -0.38421  -0.38354  -0.38199
 Alpha  occ. eigenvalues --   -0.37623  -0.37369  -0.37124  -0.37085  -0.37048
 Alpha  occ. eigenvalues --   -0.36732  -0.36574  -0.36103  -0.35795  -0.35561
 Alpha  occ. eigenvalues --   -0.35385  -0.35135  -0.34939  -0.34833  -0.34814
 Alpha  occ. eigenvalues --   -0.34767  -0.34383  -0.34145  -0.33579  -0.33329
 Alpha  occ. eigenvalues --   -0.32864  -0.32621  -0.32113  -0.31849  -0.31494
 Alpha  occ. eigenvalues --   -0.31466  -0.31417  -0.30089  -0.29910  -0.29803
 Alpha  occ. eigenvalues --   -0.29095  -0.28652  -0.28410  -0.28090  -0.27410
 Alpha  occ. eigenvalues --   -0.26556  -0.26407  -0.22838  -0.21659
 Alpha virt. eigenvalues --   -0.08974  -0.06157  -0.01560  -0.00746   0.00083
 Alpha virt. eigenvalues --    0.00793   0.02988   0.03314   0.03463   0.04152
 Alpha virt. eigenvalues --    0.04484   0.05633   0.07449   0.08136   0.08912

 Mulliken charges:
               1
     1  Mg   0.826053
     2  C    0.047726
     3  C   -0.188452
     4  C   -0.174580
     5  C   -0.172753
     6  N   -0.627879
     7  C    0.333877
     8  C   -0.145473
     9  C   -0.162599
    10  C    0.322583
    11  C   -0.291058
    12  C   -0.178978
    13  C   -0.236259
    14  C    0.608991
    15  O   -0.494579
    16  O   -0.509951
    17  N   -0.697270
    18  C    0.298029
    19  C    0.103872
    20  C   -0.066459
    21  C    0.354460
    22  C   -0.380666
    23  C    0.227319
    24  O   -0.436436
    25  N   -0.693266
    26  C    0.296276
    27  C   -0.062968
    28  C    0.049079
    29  C    0.291233
    30  C    0.263665
    31  C   -0.267666
    32  C   -0.307539
    33  N   -0.739227
    34  C    0.264807
    35  C   -0.009252
    36  C    0.061095
    37  C    0.288055
    38  C   -0.366306
    39  C    0.366800
    40  O   -0.437573
    41  C   -0.327751
    42  C    0.619855
    43  O   -0.469064
    44  O   -0.465343
    45  C   -0.069364
    46  C    0.047006
    47  C   -0.134270
    48  C    0.169294
    49  C   -0.402882
    50  C   -0.247212
    51  C   -0.155438
    52  C   -0.176706
    53  C   -0.052182
    54  C   -0.305667
    55  C   -0.151207
    56  C   -0.205138
    57  C   -0.163637
    58  C   -0.064393
    59  C   -0.294850
    60  C   -0.156648
    61  C   -0.171613
    62  C   -0.143378
    63  C   -0.040988
    64  C   -0.320884
    65  C   -0.299454
    66  H    0.069143
    67  H    0.151567
    68  H    0.072788
    69  H    0.123785
    70  H    0.110029
    71  H    0.085411
    72  H    0.122667
    73  H    0.134206
    74  H    0.115492
    75  H    0.111818
    76  H    0.138707
    77  H    0.143627
    78  H    0.141812
    79  H    0.152250
    80  H    0.081826
    81  H    0.079041
    82  H    0.105971
    83  H    0.091283
    84  H    0.115478
    85  H    0.132410
    86  H    0.125885
    87  H    0.140356
    88  H    0.146373
    89  H    0.120407
    90  H    0.154758
    91  H    0.114310
    92  H    0.122243
    93  H    0.070175
    94  H    0.142172
    95  H    0.093236
    96  H    0.130703
    97  H    0.095885
    98  H    0.086172
    99  H    0.098715
   100  H    0.111772
   101  H    0.082010
   102  H    0.062744
   103  H    0.086348
   104  H    0.084298
   105  H    0.094293
   106  H    0.095677
   107  H    0.091262
   108  H    0.098769
   109  H    0.093402
   110  H    0.079943
   111  H    0.092443
   112  H    0.080111
   113  H    0.070089
   114  H    0.090064
   115  H    0.102150
   116  H    0.104481
   117  H    0.057907
   118  H    0.068316
   119  H    0.089717
   120  H    0.087925
   121  H    0.073668
   122  H    0.087634
   123  H    0.104555
   124  H    0.077755
   125  H    0.118165
   126  H    0.080734
   127  H    0.089055
   128  H    0.078553
   129  H    0.102761
   130  H    0.128880
   131  H    0.134760
   132  H    0.128218
   133  O   -0.393002
   134  H    0.069019
 Sum of Mulliken charges =   0.00000

 Dipole moment (field-independent basis, Debye):
    X=              0.1682    Y=             -4.5535    Z=             -2.0348  Tot=              4.9903
 Quadrupole moment (field-independent basis, Debye-Ang):
   XX=           -372.7647   YY=           -444.2586   ZZ=           -393.0981
   XY=              3.4548   XZ=             24.3129   YZ=            -41.9686

 Normal termination of Gaussian 09 at Fri Oct  4 23:40:26 2019.
