 Gaussian 09, Revision D.01,
 Gaussian 09:  ES64L-G09RevD.01 24-Apr-2013

 ----------------------------------------------------------------------
 # td=(NStates=1) iop(3/107=0140000000,3/108=0140000000) iop(3/107=0140
 000000,3/108=0140000000) CAM-B3LYP/6-31G(d,p)
 ----------------------------------------------------------------------

 --
 TD
 --
 Symbolic Z-matrix:
 Charge =  0 Multiplicity = 1

                         Standard orientation:
 ---------------------------------------------------------------------
 Center     Atomic      Atomic             Coordinates (Angstroms)
 Number     Number       Type             X           Y           Z
 ---------------------------------------------------------------------
      1         12           0       -5.658124    1.235537    0.256560
      2          6           0       -4.980245   -2.080213   -0.252711
      3          6           0       -3.409426    1.209303    2.826425
      4          6           0       -6.104274    4.584564    0.524956
      5          6           0       -7.960609    1.127043   -2.374254
      6          7           0       -4.407796   -0.261281    1.149159
      7          6           0       -4.304435   -1.584939    0.770888
      8          6           0       -3.149794   -2.289489    1.528111
      9          6           0       -2.867266   -1.193595    2.624424
     10          6           0       -3.499233    0.016793    2.152035
     11          6           0       -3.365098   -1.574037    4.002796
     12          6           0       -2.036079   -2.590268    0.642706
     13          6           0       -1.003394   -3.373106    1.358754
     14          6           0        0.252845   -3.863398    0.576693
     15          8           0        0.395469   -3.459011   -0.559199
     16          8           0        0.946788   -4.669781    1.210625
     17          7           0       -4.901073    2.586114    1.435858
     18          6           0       -4.068161    2.458097    2.505759
     19          6           0       -3.792646    3.660077    3.142306
     20          6           0       -4.489845    4.627506    2.449032
     21          6           0       -5.226040    3.951035    1.352538
     22          6           0       -2.975097    3.827587    4.333574
     23          6           0       -4.608664    6.037129    2.731400
     24          8           0       -4.086851    6.783133    3.585577
     25          7           0       -6.789863    2.600317   -0.696535
     26          6           0       -6.933120    3.961103   -0.404476
     27          6           0       -7.927369    4.592857   -1.275239
     28          6           0       -8.389752    3.623123   -2.078095
     29          6           0       -7.771099    2.340744   -1.747551
     30          6           0       -8.342342    5.911879   -1.239625
     31          6           0       -9.427899    3.674335   -3.153983
     32          6           0       -8.917721    3.646432   -4.671815
     33          7           0       -6.313034   -0.186219   -1.053750
     34          6           0       -7.255678   -0.061977   -2.112450
     35          6           0       -7.469240   -1.341266   -2.740934
     36          6           0       -6.621324   -2.222766   -1.944084
     37          6           0       -6.019552   -1.409077   -1.057859
     38          6           0       -8.492263   -1.773051   -3.724177
     39          6           0       -6.231098   -3.591256   -1.894632
     40          8           0       -6.627539   -4.524176   -2.599769
     41          6           0       -4.969326   -3.608096   -0.837138
     42          6           0       -5.305010   -4.631618    0.202187
     43          8           0       -5.653338   -4.466508    1.386419
     44          8           0       -5.014882   -5.845356   -0.337300
     45          6           0       -5.513175   -6.943966    0.548695
     46          6           0        2.269620   -5.046079    0.693401
     47          6           0        3.306956   -4.035268    1.024737
     48          6           0        3.902802   -3.181070    0.223838
     49          6           0        3.706408   -2.976812   -1.388410
     50          6           0        5.202460   -2.366943    0.800047
     51          6           0        6.480919   -2.695199    0.117465
     52          6           0        7.649018   -1.813512    0.629809
     53          6           0        8.994600   -1.887054   -0.090985
     54          6           0        9.494793   -3.234931    0.053736
     55          6           0        9.921377   -0.805255    0.410300
     56          6           0       11.243330   -0.783189   -0.333188
     57          6           0       12.178803    0.395824    0.100500
     58          6           0       13.471795    0.441020   -0.564181
     59          6           0       14.509393   -0.724076   -0.237751
     60          6           0       14.258442    1.778491   -0.148487
     61          6           0       15.487588    2.041030   -0.999707
     62          6           0       16.155122    3.415514   -0.662101
     63          6           0       17.403517    3.689006   -1.338452
     64          6           0       17.240277    3.912660   -2.862487
     65          6           0       18.276501    4.795540   -0.688767
     66          1           0       -2.849408    1.184631    3.813287
     67          1           0       -6.291430    5.839862    0.600351
     68          1           0       -8.813748    1.083596   -2.965225
     69          1           0       -3.645471   -3.278070    2.061067
     70          1           0       -1.796531   -0.849190    2.656725
     71          1           0       -2.945098   -2.452225    4.372159
     72          1           0       -3.156216   -0.886816    4.798205
     73          1           0       -4.467829   -1.880805    3.993398
     74          1           0       -2.380554   -3.028691   -0.401963
     75          1           0       -1.522150   -1.680112    0.547684
     76          1           0       -0.477638   -2.802117    2.304717
     77          1           0       -1.443040   -4.151160    1.889176
     78          1           0       -1.883834    3.593167    4.080147
     79          1           0       -3.162026    4.784292    4.966242
     80          1           0       -3.054460    3.197537    5.147357
     81          1           0       -5.289915    6.483904    2.101270
     82          1           0      -10.317270    2.934943   -3.079536
     83          1           0       -9.951749    4.708966   -3.085728
     84          1           0       -9.921671    3.859421   -5.155426
     85          1           0       -8.246172    4.477541   -4.868383
     86          1           0       -8.438704    2.546443   -5.161876
     87          1           0       -8.279184   -1.226241   -4.720394
     88          1           0       -8.193933   -2.823435   -3.931481
     89          1           0       -9.480821   -1.641940   -3.427958
     90          1           0       -4.176223   -3.967861   -1.248198
     91          1           0        2.313021   -5.952793    0.962607
     92          1           0        2.175608   -5.140468   -0.535884
     93          1           0        3.687256   -3.997589    1.962303
     94          1           0        2.776214   -3.587925   -1.886974
     95          1           0        3.687571   -1.815060   -1.670663
     96          1           0        4.766055   -3.525560   -1.946894
     97          1           0        5.155998   -1.254145    0.686242
     98          1           0        5.185540   -2.383195    1.796392
     99          1           0        6.743178   -3.763570    0.107601
    100          1           0        6.465692   -2.579693   -0.962885
    101          1           0        7.191205   -0.743597    0.372634
    102          1           0        7.750369   -1.835450    1.744134
    103          1           0        8.846766   -1.754274   -1.298102
    104          1           0        8.818717   -3.906735   -0.442145
    105          1           0       10.539814   -3.336943   -0.397882
    106          1           0        9.599146   -3.542511    1.031373
    107          1           0        9.443703    0.127593    0.359300
    108          1           0        9.978088   -0.780229    1.595667
    109          1           0       11.823625   -1.626321   -0.202157
    110          1           0       11.134740   -0.862735   -1.478222
    111          1           0       11.688502    1.294423   -0.177424
    112          1           0       12.395519    0.440380    1.074906
    113          1           0       13.388581    0.550138   -1.660631
    114          1           0       14.355660   -0.880121    0.887769
    115          1           0       13.947267   -1.548764   -0.698016
    116          1           0       15.509383   -0.747521   -0.764498
    117          1           0       13.564113    2.749168   -0.339709
    118          1           0       14.353418    1.542937    0.961827
    119          1           0       16.145728    1.202479   -0.947514
    120          1           0       15.268367    2.132209   -1.999919
    121          1           0       15.352576    4.158180   -0.649229
    122          1           0       16.390942    3.392021    0.442837
    123          1           0       18.045380    2.736300   -1.112872
    124          1           0       16.540811    4.838641   -3.300184
    125          1           0       18.274458    4.303938   -3.188497
    126          1           0       16.990979    2.848260   -3.471748
    127          1           0       18.664293    4.485390    0.265321
    128          1           0       19.149249    5.117934   -1.233178
    129          1           0       17.733979    5.848466   -0.846368
    130          1           0       -5.372729   -7.900398    0.214508
    131          1           0       -6.501168   -6.933300    0.776537
    132          1           0       -4.994255   -6.983303    1.548155
    133          8           0       -7.785479    6.819023   -0.541775
    134          1           0       -9.283516    6.267444   -1.964042
 ---------------------------------------------------------------------

 SCF Done:  E(RCAM-B3LYP) =  -3043.43784491     A.U. after   15 cycles

 Excitation energies and oscillator strengths:

 Excited State   1:      Singlet-A      2.0687 eV  599.32 nm  f=0.1525  <S**2>=0.000
     243 -> 246        0.28334
     244 -> 245        0.63612
 This state for optimization and/or second-order correction.
 Total Energy, E(TD-HF/TD-KS) =  -3043.36182006
 Copying the excited state density for this state as the 1-particle RhoCI density.

 The electronic state is 1-A.
 Alpha  occ. eigenvalues --  -46.80385 -19.23281 -19.23086 -19.17381 -19.17022
 Alpha  occ. eigenvalues --  -19.16743 -19.16269 -19.14687 -14.38125 -14.37870
 Alpha  occ. eigenvalues --  -14.37031 -14.36294 -10.34785 -10.33528 -10.31523
 Alpha  occ. eigenvalues --  -10.31322 -10.28675 -10.28428 -10.27392 -10.26998
 Alpha  occ. eigenvalues --  -10.26986 -10.26962 -10.26561 -10.26170 -10.26054
 Alpha  occ. eigenvalues --  -10.25944 -10.25910 -10.25772 -10.25510 -10.25408
 Alpha  occ. eigenvalues --  -10.25376 -10.25015 -10.24808 -10.24784 -10.24317
 Alpha  occ. eigenvalues --  -10.24311 -10.24229 -10.24174 -10.23840 -10.23473
 Alpha  occ. eigenvalues --  -10.23376 -10.23355 -10.23305 -10.23274 -10.22687
 Alpha  occ. eigenvalues --  -10.22581 -10.22382 -10.22304 -10.22274 -10.22212
 Alpha  occ. eigenvalues --  -10.22036 -10.21980 -10.21642 -10.21599 -10.21527
 Alpha  occ. eigenvalues --  -10.21376 -10.21308 -10.21217 -10.21150 -10.21122
 Alpha  occ. eigenvalues --  -10.20898 -10.20726 -10.19886 -10.19418 -10.19174
 Alpha  occ. eigenvalues --  -10.19133  -3.09231  -1.84151  -1.83697  -1.83671
 Alpha  occ. eigenvalues --   -1.16665  -1.12035  -1.05723  -1.04423  -1.04098
 Alpha  occ. eigenvalues --   -1.03919  -1.02812  -1.01876  -1.00133  -0.98922
 Alpha  occ. eigenvalues --   -0.97851  -0.87508  -0.86740  -0.86247  -0.86121
 Alpha  occ. eigenvalues --   -0.85593  -0.84989  -0.84849  -0.84453  -0.84373
 Alpha  occ. eigenvalues --   -0.83813  -0.83505  -0.82006  -0.81493  -0.79637
 Alpha  occ. eigenvalues --   -0.79283  -0.78754  -0.77948  -0.77451  -0.77112
 Alpha  occ. eigenvalues --   -0.75669  -0.75629  -0.73724  -0.73576  -0.72862
 Alpha  occ. eigenvalues --   -0.71531  -0.70601  -0.70444  -0.70144  -0.69916
 Alpha  occ. eigenvalues --   -0.69728  -0.68947  -0.68431  -0.67240  -0.66506
 Alpha  occ. eigenvalues --   -0.66006  -0.65571  -0.64738  -0.63176  -0.62258
 Alpha  occ. eigenvalues --   -0.61570  -0.61442  -0.60585  -0.59584  -0.58764
 Alpha  occ. eigenvalues --   -0.58757  -0.58059  -0.57963  -0.57127  -0.56895
 Alpha  occ. eigenvalues --   -0.56561  -0.56476  -0.55741  -0.54930  -0.54885
 Alpha  occ. eigenvalues --   -0.53799  -0.53722  -0.53341  -0.52792  -0.52019
 Alpha  occ. eigenvalues --   -0.51762  -0.51386  -0.51159  -0.50660  -0.50441
 Alpha  occ. eigenvalues --   -0.50188  -0.49694  -0.49395  -0.49250  -0.49076
 Alpha  occ. eigenvalues --   -0.48946  -0.48592  -0.48461  -0.48239  -0.47842
 Alpha  occ. eigenvalues --   -0.47707  -0.47456  -0.47222  -0.46971  -0.46504
 Alpha  occ. eigenvalues --   -0.46450  -0.46278  -0.46163  -0.45930  -0.45604
 Alpha  occ. eigenvalues --   -0.45430  -0.45240  -0.45190  -0.44713  -0.44604
 Alpha  occ. eigenvalues --   -0.44348  -0.44197  -0.44096  -0.43878  -0.43783
 Alpha  occ. eigenvalues --   -0.43536  -0.43410  -0.43216  -0.42905  -0.42820
 Alpha  occ. eigenvalues --   -0.42400  -0.41968  -0.41838  -0.41755  -0.41520
 Alpha  occ. eigenvalues --   -0.41312  -0.41248  -0.41082  -0.40975  -0.40753
 Alpha  occ. eigenvalues --   -0.40307  -0.40255  -0.40140  -0.40100  -0.39902
 Alpha  occ. eigenvalues --   -0.39774  -0.39690  -0.39252  -0.39173  -0.39011
 Alpha  occ. eigenvalues --   -0.38828  -0.38730  -0.38690  -0.38566  -0.38469
 Alpha  occ. eigenvalues --   -0.38250  -0.38165  -0.37947  -0.37289  -0.37004
 Alpha  occ. eigenvalues --   -0.36572  -0.36336  -0.36154  -0.36043  -0.35527
 Alpha  occ. eigenvalues --   -0.35441  -0.35082  -0.34898  -0.34750  -0.34532
 Alpha  occ. eigenvalues --   -0.34315  -0.34023  -0.33556  -0.33437  -0.33342
 Alpha  occ. eigenvalues --   -0.33097  -0.32973  -0.32461  -0.31948  -0.31867
 Alpha  occ. eigenvalues --   -0.31537  -0.30366  -0.30112  -0.29893  -0.29562
 Alpha  occ. eigenvalues --   -0.29231  -0.28336  -0.28136  -0.28112  -0.27936
 Alpha  occ. eigenvalues --   -0.27457  -0.26813  -0.22880  -0.22609
 Alpha virt. eigenvalues --   -0.09330  -0.07003  -0.01614  -0.00914   0.00565
 Alpha virt. eigenvalues --    0.02707   0.03407   0.03874   0.04608   0.05002
 Alpha virt. eigenvalues --    0.06064   0.06468   0.07989   0.08779   0.08999

 Mulliken charges:
               1
     1  Mg   0.827452
     2  C    0.034107
     3  C   -0.201436
     4  C   -0.210400
     5  C   -0.143855
     6  N   -0.627094
     7  C    0.299350
     8  C   -0.160545
     9  C   -0.158213
    10  C    0.373702
    11  C   -0.317515
    12  C   -0.132087
    13  C   -0.273658
    14  C    0.583997
    15  O   -0.493362
    16  O   -0.409510
    17  N   -0.746867
    18  C    0.318150
    19  C    0.095928
    20  C   -0.035117
    21  C    0.335119
    22  C   -0.406208
    23  C    0.256852
    24  O   -0.446482
    25  N   -0.699357
    26  C    0.301451
    27  C    0.073136
    28  C    0.062451
    29  C    0.263213
    30  C    0.188722
    31  C   -0.283042
    32  C   -0.290993
    33  N   -0.702655
    34  C    0.228537
    35  C    0.028367
    36  C    0.028973
    37  C    0.358524
    38  C   -0.387513
    39  C    0.338088
    40  O   -0.467512
    41  C   -0.288684
    42  C    0.624630
    43  O   -0.494942
    44  O   -0.448377
    45  C   -0.098018
    46  C    0.015452
    47  C   -0.115200
    48  C    0.129325
    49  C   -0.335244
    50  C   -0.220069
    51  C   -0.176404
    52  C   -0.176881
    53  C   -0.046492
    54  C   -0.290810
    55  C   -0.155839
    56  C   -0.191669
    57  C   -0.154482
    58  C   -0.091680
    59  C   -0.320028
    60  C   -0.153070
    61  C   -0.177886
    62  C   -0.150319
    63  C   -0.034112
    64  C   -0.296338
    65  C   -0.317506
    66  H    0.084718
    67  H    0.168631
    68  H    0.095865
    69  H    0.115439
    70  H    0.103674
    71  H    0.120509
    72  H    0.110936
    73  H    0.121987
    74  H    0.115378
    75  H    0.121634
    76  H    0.093634
    77  H    0.122423
    78  H    0.123508
    79  H    0.148786
    80  H    0.134499
    81  H    0.067122
    82  H    0.119111
    83  H    0.103006
    84  H    0.113695
    85  H    0.130597
    86  H    0.083754
    87  H    0.112606
    88  H    0.157259
    89  H    0.142265
    90  H    0.153066
    91  H    0.119434
    92  H    0.110674
    93  H    0.084256
    94  H    0.131638
    95  H    0.118236
    96  H    0.073637
    97  H    0.092670
    98  H    0.104689
    99  H    0.091851
   100  H    0.104255
   101  H    0.067505
   102  H    0.089381
   103  H    0.057006
   104  H    0.101668
   105  H    0.084631
   106  H    0.106396
   107  H    0.101251
   108  H    0.066788
   109  H    0.107400
   110  H    0.081069
   111  H    0.101263
   112  H    0.092201
   113  H    0.074676
   114  H    0.095990
   115  H    0.101427
   116  H    0.113898
   117  H    0.054997
   118  H    0.076798
   119  H    0.086583
   120  H    0.105522
   121  H    0.087223
   122  H    0.074088
   123  H    0.077955
   124  H    0.083740
   125  H    0.094313
   126  H    0.081724
   127  H    0.109976
   128  H    0.104322
   129  H    0.081095
   130  H    0.127218
   131  H    0.144486
   132  H    0.119777
   133  O   -0.446435
   134  H    0.060569
 Sum of Mulliken charges =   0.00000

 Dipole moment (field-independent basis, Debye):
    X=              2.1384    Y=             -5.3291    Z=             -0.0498  Tot=              5.7423
 Quadrupole moment (field-independent basis, Debye-Ang):
   XX=           -355.8658   YY=           -446.0768   ZZ=           -389.4149
   XY=              0.8975   XZ=             22.6459   YZ=            -38.1105

 Normal termination of Gaussian 09 at Thu Oct  3 18:15:23 2019.
