 Gaussian 09, Revision D.01,
 Gaussian 09:  ES64L-G09RevD.01 24-Apr-2013

 ----------------------------------------------------------------------
 # td=(NStates=1) iop(3/107=0140000000,3/108=0140000000) iop(3/107=0140
 000000,3/108=0140000000) CAM-B3LYP/6-31G(d,p)
 ----------------------------------------------------------------------

 --
 TD
 --
 Symbolic Z-matrix:
 Charge =  0 Multiplicity = 1

                         Standard orientation:
 ---------------------------------------------------------------------
 Center     Atomic      Atomic             Coordinates (Angstroms)
 Number     Number       Type             X           Y           Z
 ---------------------------------------------------------------------
      1         12           0       -5.631120    1.209114    0.202298
      2          6           0       -4.982408   -2.107224   -0.268095
      3          6           0       -3.595562    1.170519    2.867347
      4          6           0       -6.266959    4.491621    0.766877
      5          6           0       -7.967606    1.060168   -2.427127
      6          7           0       -4.371812   -0.253444    1.032779
      7          6           0       -4.233819   -1.569386    0.716421
      8          6           0       -3.186490   -2.240123    1.556084
      9          6           0       -2.949952   -1.216311    2.654025
     10          6           0       -3.640715    0.015820    2.192195
     11          6           0       -3.486429   -1.735843    4.112460
     12          6           0       -1.889447   -2.575460    0.663980
     13          6           0       -0.969914   -3.474064    1.397129
     14          6           0        0.281475   -3.821472    0.663970
     15          8           0        0.603738   -3.267101   -0.378399
     16          8           0        1.164165   -4.654951    1.280490
     17          7           0       -4.986993    2.653548    1.484996
     18          6           0       -4.070594    2.466972    2.506282
     19          6           0       -3.921764    3.682541    3.265527
     20          6           0       -4.605725    4.589014    2.542727
     21          6           0       -5.303252    3.972128    1.458678
     22          6           0       -3.025555    3.845280    4.526602
     23          6           0       -4.746900    6.055487    2.896436
     24          8           0       -4.141739    6.688769    3.715945
     25          7           0       -6.918944    2.533941   -0.651592
     26          6           0       -7.117887    3.868904   -0.303889
     27          6           0       -7.890295    4.501375   -1.314241
     28          6           0       -8.455719    3.539356   -2.091716
     29          6           0       -7.844457    2.315286   -1.672513
     30          6           0       -8.339339    5.880330   -1.235349
     31          6           0       -9.398764    3.675939   -3.249994
     32          6           0       -8.708135    3.997287   -4.638701
     33          7           0       -6.399158   -0.194438   -1.021323
     34          6           0       -7.303401   -0.109836   -2.118765
     35          6           0       -7.333259   -1.400340   -2.833710
     36          6           0       -6.544740   -2.238353   -2.184860
     37          6           0       -5.914821   -1.382395   -1.046412
     38          6           0       -8.215382   -1.570759   -3.991267
     39          6           0       -5.980938   -3.557364   -2.095925
     40          8           0       -6.271624   -4.489966   -2.803359
     41          6           0       -4.983450   -3.628888   -0.820679
     42          6           0       -5.440686   -4.718863    0.173313
     43          8           0       -5.771757   -4.468119    1.303497
     44          8           0       -5.176707   -5.939348   -0.424085
     45          6           0       -5.631242   -7.024875    0.472129
     46          6           0        2.424451   -5.158162    0.747436
     47          6           0        3.588001   -4.140576    1.045752
     48          6           0        4.004012   -3.223326    0.157100
     49          6           0        3.702828   -3.178160   -1.331497
     50          6           0        5.201141   -2.344332    0.639961
     51          6           0        6.566439   -2.570602   -0.113325
     52          6           0        7.665938   -1.717026    0.462889
     53          6           0        9.074464   -2.017734   -0.018692
     54          6           0        9.600597   -3.369385    0.397080
     55          6           0        9.948626   -0.871609    0.484842
     56          6           0       11.346334   -0.772816   -0.155619
     57          6           0       12.204129    0.451309    0.092150
     58          6           0       13.551580    0.368142   -0.582363
     59          6           0       14.443775   -0.805755   -0.163490
     60          6           0       14.286608    1.832979   -0.196325
     61          6           0       15.571760    2.162404   -0.890944
     62          6           0       16.160874    3.536091   -0.503093
     63          6           0       17.371109    3.865511   -1.424577
     64          6           0       16.879434    3.873708   -2.887582
     65          6           0       17.971432    5.216585   -0.999233
     66          1           0       -2.658382    1.090671    3.538451
     67          1           0       -6.470886    5.560488    0.758189
     68          1           0       -8.589974    1.238524   -3.234656
     69          1           0       -3.602579   -3.327151    1.761223
     70          1           0       -1.942310   -1.095942    2.701688
     71          1           0       -2.763827   -2.608139    4.517472
     72          1           0       -3.322570   -0.813393    4.736538
     73          1           0       -4.572432   -2.033560    4.143361
     74          1           0       -2.215685   -2.984326   -0.296716
     75          1           0       -1.387340   -1.644298    0.143701
     76          1           0       -0.700100   -2.955375    2.325231
     77          1           0       -1.518231   -4.411459    1.815743
     78          1           0       -1.977569    3.614586    4.246407
     79          1           0       -3.242992    4.979985    4.755281
     80          1           0       -3.346710    3.115752    5.411411
     81          1           0       -5.558663    6.604106    2.150117
     82          1           0      -10.029982    2.615589   -3.394135
     83          1           0      -10.196770    4.475593   -3.021913
     84          1           0       -9.537070    3.977836   -5.330255
     85          1           0       -8.299101    4.987403   -4.585627
     86          1           0       -8.079217    3.130036   -4.856630
     87          1           0       -8.062653   -0.995559   -4.811974
     88          1           0       -8.204781   -2.568108   -4.532679
     89          1           0       -9.300510   -1.550213   -3.710547
     90          1           0       -3.890987   -3.928142   -1.244220
     91          1           0        2.424759   -6.031349    1.281851
     92          1           0        2.368479   -5.232029   -0.284465
     93          1           0        4.062444   -3.892790    2.090152
     94          1           0        2.666458   -3.615241   -1.591207
     95          1           0        3.680579   -2.108002   -1.915752
     96          1           0        4.397861   -3.743193   -1.834862
     97          1           0        5.036741   -1.294374    0.286202
     98          1           0        5.301511   -2.354779    1.721209
     99          1           0        6.746323   -3.692227   -0.152994
    100          1           0        6.490891   -2.510893   -1.219168
    101          1           0        7.323804   -0.460536    0.060492
    102          1           0        7.594737   -1.807634    1.710644
    103          1           0        9.061373   -1.897745   -1.076471
    104          1           0        8.901817   -4.148683    0.294121
    105          1           0       10.441274   -3.781318   -0.190661
    106          1           0        9.578278   -3.323125    1.531729
    107          1           0        9.498959    0.122957    0.126371
    108          1           0        9.891806   -0.996866    1.623050
    109          1           0       11.942017   -1.571995    0.316895
    110          1           0       11.353827   -0.899614   -1.236243
    111          1           0       11.753445    1.296063   -0.348510
    112          1           0       12.281378    0.465818    1.185159
    113          1           0       13.514333    0.522330   -1.612928
    114          1           0       14.704854   -0.781438    0.858576
    115          1           0       13.843542   -1.734004   -0.578460
    116          1           0       15.325784   -0.741462   -0.718325
    117          1           0       13.607660    2.657939   -0.597160
    118          1           0       14.537846    1.839021    0.893934
    119          1           0       16.411964    1.457787   -0.637091
    120          1           0       15.466554    2.160344   -2.002805
    121          1           0       15.591449    4.330573   -0.666650
    122          1           0       16.420908    3.499374    0.547157
    123          1           0       18.156494    3.074055   -1.216711
    124          1           0       16.054994    4.604513   -3.251290
    125          1           0       17.790059    4.272202   -3.712237
    126          1           0       16.576678    2.882828   -3.106368
    127          1           0       18.302213    5.165060    0.041780
    128          1           0       18.685666    5.349503   -1.925724
    129          1           0       17.171506    6.092841   -1.083919
    130          1           0       -5.378339   -7.967927    0.076094
    131          1           0       -6.750389   -6.837382    0.638973
    132          1           0       -5.039206   -6.920032    1.324418
    133          8           0       -7.924079    6.759923   -0.622825
    134          1           0       -9.262622    5.993941   -1.942445
 ---------------------------------------------------------------------

 SCF Done:  E(RCAM-B3LYP) =  -3043.53746060     A.U. after   15 cycles

 Excitation energies and oscillator strengths:

 Excited State   1:      Singlet-A      2.2121 eV  560.47 nm  f=0.1383  <S**2>=0.000
     243 -> 245        0.12859
     243 -> 246        0.28268
     244 -> 245        0.61965
 This state for optimization and/or second-order correction.
 Total Energy, E(TD-HF/TD-KS) =  -3043.45616622
 Copying the excited state density for this state as the 1-particle RhoCI density.

 The electronic state is 1-A.
 Alpha  occ. eigenvalues --  -46.80752 -19.23098 -19.21016 -19.18739 -19.18367
 Alpha  occ. eigenvalues --  -19.17311 -19.17112 -19.16369 -14.37897 -14.37161
 Alpha  occ. eigenvalues --  -14.36695 -14.36553 -10.36046 -10.34982 -10.31607
 Alpha  occ. eigenvalues --  -10.31464 -10.29643 -10.27684 -10.27351 -10.27168
 Alpha  occ. eigenvalues --  -10.26990 -10.26831 -10.26595 -10.26530 -10.26507
 Alpha  occ. eigenvalues --  -10.25951 -10.25435 -10.25354 -10.25091 -10.25010
 Alpha  occ. eigenvalues --  -10.24814 -10.24729 -10.24614 -10.24320 -10.24268
 Alpha  occ. eigenvalues --  -10.24243 -10.23841 -10.23835 -10.23800 -10.23529
 Alpha  occ. eigenvalues --  -10.23523 -10.23253 -10.23142 -10.23057 -10.22551
 Alpha  occ. eigenvalues --  -10.22515 -10.22403 -10.22252 -10.22217 -10.21997
 Alpha  occ. eigenvalues --  -10.21933 -10.21873 -10.21807 -10.21786 -10.21452
 Alpha  occ. eigenvalues --  -10.21370 -10.21230 -10.21197 -10.21109 -10.20943
 Alpha  occ. eigenvalues --  -10.20423 -10.20349 -10.19958 -10.19815 -10.19428
 Alpha  occ. eigenvalues --  -10.19000  -3.09465  -1.84403  -1.83917  -1.83898
 Alpha  occ. eigenvalues --   -1.13014  -1.11894  -1.10729  -1.08463  -1.07593
 Alpha  occ. eigenvalues --   -1.05936  -1.03390  -1.01002  -1.00441  -0.99303
 Alpha  occ. eigenvalues --   -0.98034  -0.87038  -0.85901  -0.85744  -0.85442
 Alpha  occ. eigenvalues --   -0.84880  -0.84753  -0.84324  -0.83989  -0.83379
 Alpha  occ. eigenvalues --   -0.83247  -0.82949  -0.81549  -0.80231  -0.79343
 Alpha  occ. eigenvalues --   -0.78384  -0.78208  -0.77182  -0.77029  -0.76451
 Alpha  occ. eigenvalues --   -0.75365  -0.74972  -0.73397  -0.72708  -0.72136
 Alpha  occ. eigenvalues --   -0.71324  -0.71090  -0.70150  -0.69779  -0.69435
 Alpha  occ. eigenvalues --   -0.69209  -0.68734  -0.67314  -0.66245  -0.65742
 Alpha  occ. eigenvalues --   -0.65476  -0.64890  -0.64231  -0.62843  -0.61699
 Alpha  occ. eigenvalues --   -0.61411  -0.60317  -0.59159  -0.58938  -0.58460
 Alpha  occ. eigenvalues --   -0.58427  -0.58142  -0.57637  -0.57422  -0.57260
 Alpha  occ. eigenvalues --   -0.56104  -0.55626  -0.54977  -0.54777  -0.54391
 Alpha  occ. eigenvalues --   -0.53950  -0.52997  -0.52749  -0.52350  -0.52145
 Alpha  occ. eigenvalues --   -0.51766  -0.51459  -0.51336  -0.51032  -0.50636
 Alpha  occ. eigenvalues --   -0.50339  -0.49665  -0.49344  -0.49074  -0.48933
 Alpha  occ. eigenvalues --   -0.48717  -0.48544  -0.48089  -0.47990  -0.47962
 Alpha  occ. eigenvalues --   -0.47666  -0.47411  -0.47137  -0.46903  -0.46763
 Alpha  occ. eigenvalues --   -0.46719  -0.46678  -0.46394  -0.46310  -0.45959
 Alpha  occ. eigenvalues --   -0.45776  -0.45376  -0.45099  -0.44776  -0.44605
 Alpha  occ. eigenvalues --   -0.44200  -0.44155  -0.44042  -0.43831  -0.43559
 Alpha  occ. eigenvalues --   -0.43520  -0.43345  -0.43234  -0.42791  -0.42639
 Alpha  occ. eigenvalues --   -0.42483  -0.42388  -0.42294  -0.42194  -0.42080
 Alpha  occ. eigenvalues --   -0.41949  -0.41672  -0.41629  -0.41422  -0.41201
 Alpha  occ. eigenvalues --   -0.40547  -0.40261  -0.40135  -0.39927  -0.39797
 Alpha  occ. eigenvalues --   -0.39686  -0.39603  -0.39383  -0.39275  -0.39117
 Alpha  occ. eigenvalues --   -0.38983  -0.38859  -0.38691  -0.38327  -0.38167
 Alpha  occ. eigenvalues --   -0.38060  -0.37983  -0.37369  -0.37287  -0.36725
 Alpha  occ. eigenvalues --   -0.36633  -0.36594  -0.36145  -0.35916  -0.35485
 Alpha  occ. eigenvalues --   -0.35392  -0.35238  -0.34972  -0.34860  -0.34741
 Alpha  occ. eigenvalues --   -0.34562  -0.34510  -0.34016  -0.33848  -0.33145
 Alpha  occ. eigenvalues --   -0.32730  -0.32473  -0.32349  -0.32042  -0.31773
 Alpha  occ. eigenvalues --   -0.31461  -0.31213  -0.30419  -0.29793  -0.29578
 Alpha  occ. eigenvalues --   -0.28991  -0.28558  -0.27996  -0.27737  -0.27611
 Alpha  occ. eigenvalues --   -0.27382  -0.27151  -0.23143  -0.21820
 Alpha virt. eigenvalues --   -0.07646  -0.06235  -0.01143   0.00099   0.01140
 Alpha virt. eigenvalues --    0.02472   0.02916   0.03628   0.03789   0.04615
 Alpha virt. eigenvalues --    0.05002   0.06006   0.07975   0.08173   0.08598

 Mulliken charges:
               1
     1  Mg   0.812097
     2  C    0.035868
     3  C   -0.200740
     4  C   -0.196434
     5  C   -0.156718
     6  N   -0.660604
     7  C    0.335603
     8  C   -0.149910
     9  C   -0.148132
    10  C    0.353307
    11  C   -0.301368
    12  C   -0.188673
    13  C   -0.254924
    14  C    0.592946
    15  O   -0.465956
    16  O   -0.489183
    17  N   -0.701395
    18  C    0.272748
    19  C    0.057360
    20  C   -0.056013
    21  C    0.396173
    22  C   -0.375399
    23  C    0.261091
    24  O   -0.395462
    25  N   -0.650842
    26  C    0.231369
    27  C   -0.034560
    28  C    0.057101
    29  C    0.260507
    30  C    0.261264
    31  C   -0.276682
    32  C   -0.296909
    33  N   -0.717995
    34  C    0.261857
    35  C    0.041945
    36  C    0.069542
    37  C    0.333060
    38  C   -0.404220
    39  C    0.340392
    40  O   -0.436493
    41  C   -0.325471
    42  C    0.632302
    43  O   -0.449892
    44  O   -0.455397
    45  C   -0.088889
    46  C    0.036358
    47  C   -0.150791
    48  C    0.155493
    49  C   -0.383905
    50  C   -0.221171
    51  C   -0.181626
    52  C   -0.123152
    53  C   -0.051775
    54  C   -0.311428
    55  C   -0.151007
    56  C   -0.194582
    57  C   -0.143212
    58  C   -0.070859
    59  C   -0.308600
    60  C   -0.174929
    61  C   -0.190267
    62  C   -0.149842
    63  C   -0.061241
    64  C   -0.300221
    65  C   -0.291004
    66  H    0.078440
    67  H    0.128510
    68  H    0.079375
    69  H    0.116252
    70  H    0.116733
    71  H    0.093772
    72  H    0.111069
    73  H    0.134458
    74  H    0.114373
    75  H    0.117469
    76  H    0.143713
    77  H    0.122849
    78  H    0.131529
    79  H    0.153484
    80  H    0.113306
    81  H    0.054104
    82  H    0.079061
    83  H    0.109899
    84  H    0.116295
    85  H    0.126559
    86  H    0.114484
    87  H    0.138987
    88  H    0.135283
    89  H    0.132004
    90  H    0.147106
    91  H    0.124901
    92  H    0.123613
    93  H    0.075492
    94  H    0.135821
    95  H    0.094997
    96  H    0.132405
    97  H    0.098849
    98  H    0.094036
    99  H    0.084348
   100  H    0.098037
   101  H    0.040385
   102  H    0.058031
   103  H    0.086808
   104  H    0.109868
   105  H    0.112933
   106  H    0.090865
   107  H    0.075803
   108  H    0.075268
   109  H    0.093885
   110  H    0.080206
   111  H    0.087290
   112  H    0.087160
   113  H    0.088634
   114  H    0.109288
   115  H    0.091172
   116  H    0.110763
   117  H    0.079598
   118  H    0.081023
   119  H    0.078727
   120  H    0.079310
   121  H    0.096845
   122  H    0.082505
   123  H    0.084139
   124  H    0.100989
   125  H    0.052378
   126  H    0.121864
   127  H    0.106312
   128  H    0.090692
   129  H    0.080944
   130  H    0.133337
   131  H    0.133436
   132  H    0.136606
   133  O   -0.383779
   134  H    0.014593
 Sum of Mulliken charges =   0.00000

 Dipole moment (field-independent basis, Debye):
    X=              1.8153    Y=             -6.4835    Z=             -1.1021  Tot=              6.8225
 Quadrupole moment (field-independent basis, Debye-Ang):
   XX=           -390.5135   YY=           -432.5479   ZZ=           -391.3271
   XY=             11.9685   XZ=             18.9147   YZ=            -30.8116

 Normal termination of Gaussian 09 at Fri Oct  4 17:16:23 2019.
