 Gaussian 09, Revision D.01,
 Gaussian 09:  ES64L-G09RevD.01 24-Apr-2013

 ----------------------------------------------------------------------
 # td=(NStates=1) iop(3/107=0140000000,3/108=0140000000) iop(3/107=0140
 000000,3/108=0140000000) CAM-B3LYP/6-31G(d,p)
 ----------------------------------------------------------------------

 --
 TD
 --
 Symbolic Z-matrix:
 Charge =  0 Multiplicity = 1

                         Standard orientation:
 ---------------------------------------------------------------------
 Center     Atomic      Atomic             Coordinates (Angstroms)
 Number     Number       Type             X           Y           Z
 ---------------------------------------------------------------------
      1         12           0       -5.519479    1.300323    0.215241
      2          6           0       -5.025970   -2.100433   -0.257677
      3          6           0       -3.332656    1.197052    2.830942
      4          6           0       -6.111818    4.627569    0.604015
      5          6           0       -7.831293    1.170628   -2.456837
      6          7           0       -4.266982   -0.252288    1.068328
      7          6           0       -4.252079   -1.570088    0.772622
      8          6           0       -3.235401   -2.465895    1.484069
      9          6           0       -2.857373   -1.369757    2.589684
     10          6           0       -3.553223   -0.047309    2.201658
     11          6           0       -3.352749   -1.726841    3.955697
     12          6           0       -2.132391   -2.872147    0.667003
     13          6           0       -1.067893   -3.713745    1.423774
     14          6           0        0.219168   -3.921163    0.643345
     15          8           0        0.353558   -3.556261   -0.506941
     16          8           0        1.062012   -4.618530    1.367952
     17          7           0       -4.756175    2.746994    1.432449
     18          6           0       -3.869161    2.496068    2.480632
     19          6           0       -3.598863    3.731538    3.164129
     20          6           0       -4.337542    4.674206    2.497547
     21          6           0       -5.151339    4.001027    1.474702
     22          6           0       -2.741857    3.910168    4.260703
     23          6           0       -4.422709    6.036984    2.814160
     24          8           0       -3.773209    6.614372    3.741139
     25          7           0       -6.787380    2.688389   -0.754495
     26          6           0       -6.871772    3.977167   -0.409800
     27          6           0       -7.924027    4.642530   -1.268332
     28          6           0       -8.361074    3.624716   -2.143583
     29          6           0       -7.633471    2.374700   -1.810272
     30          6           0       -8.431920    6.034648   -1.141139
     31          6           0       -9.426261    3.796101   -3.176801
     32          6           0       -8.822231    3.825971   -4.619684
     33          7           0       -6.296260   -0.076110   -1.091437
     34          6           0       -7.351122   -0.087543   -2.003205
     35          6           0       -7.593179   -1.312266   -2.618959
     36          6           0       -6.692782   -2.176614   -1.947056
     37          6           0       -5.944832   -1.436191   -1.103043
     38          6           0       -8.548959   -1.594892   -3.635245
     39          6           0       -6.223707   -3.590242   -1.844714
     40          8           0       -6.678656   -4.537726   -2.488934
     41          6           0       -5.149233   -3.597262   -0.775153
     42          6           0       -5.301564   -4.608477    0.240847
     43          8           0       -5.747235   -4.448391    1.301986
     44          8           0       -5.044076   -5.800914   -0.384624
     45          6           0       -5.408963   -6.886369    0.529291
     46          6           0        2.282830   -5.009081    0.666632
     47          6           0        3.354056   -3.956602    1.020869
     48          6           0        3.893739   -3.120310    0.073941
     49          6           0        3.387490   -3.032558   -1.416678
     50          6           0        5.040075   -2.272121    0.544783
     51          6           0        6.432310   -2.685035   -0.066423
     52          6           0        7.442595   -1.736829    0.411256
     53          6           0        8.837211   -1.944620   -0.242324
     54          6           0        9.479850   -3.433594   -0.047315
     55          6           0        9.826282   -0.851717    0.343283
     56          6           0       11.277703   -0.905604   -0.302793
     57          6           0       12.122028    0.340086    0.142016
     58          6           0       13.491871    0.420741   -0.535370
     59          6           0       14.320027   -0.795882   -0.376070
     60          6           0       14.304133    1.726277   -0.146585
     61          6           0       15.411993    2.091590   -0.965745
     62          6           0       16.137032    3.442163   -0.510610
     63          6           0       17.478123    3.742350   -1.324388
     64          6           0       17.179186    3.905453   -2.803275
     65          6           0       18.221846    4.939563   -0.667517
     66          1           0       -2.993926    1.208278    3.901731
     67          1           0       -6.367778    5.700608    0.708299
     68          1           0       -8.584983    0.960953   -3.322984
     69          1           0       -3.693827   -3.275086    1.921115
     70          1           0       -1.754926   -1.273570    2.736790
     71          1           0       -3.068066   -2.870776    4.272795
     72          1           0       -3.084241   -0.976144    4.809990
     73          1           0       -4.495503   -1.945555    3.879895
     74          1           0       -2.539623   -3.738146   -0.202489
     75          1           0       -1.752376   -2.074502    0.120865
     76          1           0       -0.875149   -3.047600    2.462022
     77          1           0       -1.459185   -4.663978    1.938238
     78          1           0       -1.891948    3.544549    3.971781
     79          1           0       -2.480833    4.895366    4.272160
     80          1           0       -2.958543    3.465268    5.231502
     81          1           0       -5.359594    6.492767    2.398942
     82          1           0      -10.147545    3.003034   -3.320661
     83          1           0       -9.860510    4.811669   -2.827987
     84          1           0       -9.403050    4.057037   -5.452270
     85          1           0       -8.050829    4.607622   -4.372588
     86          1           0       -8.260643    2.998574   -5.115495
     87          1           0       -8.580181   -0.944592   -4.567895
     88          1           0       -8.416126   -2.480716   -3.936875
     89          1           0       -9.536215   -1.403568   -3.286909
     90          1           0       -4.411130   -3.873103   -1.460039
     91          1           0        2.625418   -6.012276    1.300066
     92          1           0        2.077799   -5.249276   -0.412057
     93          1           0        3.774251   -4.011427    2.066965
     94          1           0        2.216244   -3.153329   -1.637747
     95          1           0        3.756400   -2.103237   -1.705578
     96          1           0        3.958385   -3.744310   -2.063963
     97          1           0        4.729783   -1.303024    0.245123
     98          1           0        5.007978   -2.095941    1.655896
     99          1           0        6.543800   -3.677004    0.331609
    100          1           0        6.300946   -2.777657   -1.104453
    101          1           0        7.223146   -0.565484    0.247875
    102          1           0        7.415472   -1.859916    1.420381
    103          1           0        9.016139   -1.866490   -1.374248
    104          1           0        8.806290   -4.106346   -0.537236
    105          1           0       10.545763   -3.278833   -0.272799
    106          1           0        9.498353   -3.590175    1.144877
    107          1           0        9.511976    0.087818    0.069219
    108          1           0        9.603618   -1.034092    1.496322
    109          1           0       11.855047   -1.849187   -0.077971
    110          1           0       11.252535   -0.893831   -1.367528
    111          1           0       11.467024    1.286208    0.006435
    112          1           0       12.109781    0.262951    1.243264
    113          1           0       13.278262    0.765835   -1.707177
    114          1           0       14.583671   -1.092393    0.651171
    115          1           0       13.921511   -1.747831   -0.635084
    116          1           0       15.354586   -0.809523   -0.844747
    117          1           0       13.510866    2.680167    0.076213
    118          1           0       14.868434    1.541730    0.884970
    119          1           0       16.087709    1.202184   -1.108159
    120          1           0       15.072609    2.227127   -2.044516
    121          1           0       15.293250    4.056081   -0.524354
    122          1           0       16.378596    3.276496    0.714593
    123          1           0       18.120256    2.899013   -1.122554
    124          1           0       16.469069    4.776515   -3.088983
    125          1           0       18.256646    4.076582   -3.359169
    126          1           0       16.818895    2.892168   -3.350349
    127          1           0       18.421911    4.712947    0.419478
    128          1           0       19.165273    5.181425   -1.257581
    129          1           0       17.691609    5.929979   -0.795617
    130          1           0       -4.997811   -7.819597    0.314736
    131          1           0       -6.615098   -7.042454    0.743867
    132          1           0       -4.855697   -6.587662    1.504296
    133          8           0       -7.809144    6.876827   -0.498791
    134          1           0       -9.499451    6.201236   -1.652578
 ---------------------------------------------------------------------

 SCF Done:  E(RCAM-B3LYP) =  -3043.47324143     A.U. after   16 cycles

 Excitation energies and oscillator strengths:

 Excited State   1:      Singlet-A      2.0143 eV  615.52 nm  f=0.1955  <S**2>=0.000
     243 -> 246       -0.27209
     244 -> 245        0.64319
 This state for optimization and/or second-order correction.
 Total Energy, E(TD-HF/TD-KS) =  -3043.39921683
 Copying the excited state density for this state as the 1-particle RhoCI density.

 The electronic state is 1-A.
 Alpha  occ. eigenvalues --  -46.82376 -19.23057 -19.22958 -19.18365 -19.18324
 Alpha  occ. eigenvalues --  -19.17259 -19.16955 -19.16068 -14.39700 -14.37428
 Alpha  occ. eigenvalues --  -14.37233 -14.35924 -10.35220 -10.34848 -10.32300
 Alpha  occ. eigenvalues --  -10.31587 -10.29444 -10.29195 -10.28444 -10.28333
 Alpha  occ. eigenvalues --  -10.27477 -10.27366 -10.27261 -10.26997 -10.26823
 Alpha  occ. eigenvalues --  -10.25560 -10.25427 -10.25246 -10.25124 -10.24711
 Alpha  occ. eigenvalues --  -10.24706 -10.24485 -10.24433 -10.24412 -10.24227
 Alpha  occ. eigenvalues --  -10.24195 -10.24170 -10.24110 -10.23982 -10.23929
 Alpha  occ. eigenvalues --  -10.23867 -10.23655 -10.23505 -10.23502 -10.23168
 Alpha  occ. eigenvalues --  -10.22655 -10.22415 -10.22321 -10.22192 -10.22110
 Alpha  occ. eigenvalues --  -10.22003 -10.21814 -10.21722 -10.21695 -10.21561
 Alpha  occ. eigenvalues --  -10.21453 -10.21437 -10.21417 -10.21343 -10.21252
 Alpha  occ. eigenvalues --  -10.21222 -10.20962 -10.20887 -10.20639 -10.20476
 Alpha  occ. eigenvalues --  -10.18746  -3.10751  -1.85707  -1.85218  -1.85146
 Alpha  occ. eigenvalues --   -1.15152  -1.14675  -1.07176  -1.07119  -1.06054
 Alpha  occ. eigenvalues --   -1.05405  -1.03173  -1.01219  -1.00538  -0.99591
 Alpha  occ. eigenvalues --   -0.98636  -0.89025  -0.86926  -0.86074  -0.85824
 Alpha  occ. eigenvalues --   -0.85089  -0.84988  -0.84617  -0.83762  -0.83337
 Alpha  occ. eigenvalues --   -0.83189  -0.82445  -0.81453  -0.80579  -0.79786
 Alpha  occ. eigenvalues --   -0.79109  -0.78113  -0.77908  -0.77136  -0.76952
 Alpha  occ. eigenvalues --   -0.76575  -0.74947  -0.74147  -0.72829  -0.72515
 Alpha  occ. eigenvalues --   -0.71236  -0.70274  -0.70260  -0.69769  -0.69545
 Alpha  occ. eigenvalues --   -0.69109  -0.68438  -0.67208  -0.66836  -0.66322
 Alpha  occ. eigenvalues --   -0.65925  -0.64768  -0.64142  -0.62832  -0.62284
 Alpha  occ. eigenvalues --   -0.61938  -0.60922  -0.60187  -0.58911  -0.58790
 Alpha  occ. eigenvalues --   -0.58611  -0.58189  -0.57652  -0.57567  -0.57239
 Alpha  occ. eigenvalues --   -0.56917  -0.56335  -0.55976  -0.55574  -0.55103
 Alpha  occ. eigenvalues --   -0.54362  -0.53960  -0.53078  -0.52747  -0.52551
 Alpha  occ. eigenvalues --   -0.51689  -0.51568  -0.51252  -0.51079  -0.50585
 Alpha  occ. eigenvalues --   -0.50083  -0.49860  -0.49737  -0.49191  -0.49159
 Alpha  occ. eigenvalues --   -0.48912  -0.48614  -0.48336  -0.48279  -0.48047
 Alpha  occ. eigenvalues --   -0.47837  -0.47505  -0.47269  -0.46761  -0.46523
 Alpha  occ. eigenvalues --   -0.46493  -0.46183  -0.46102  -0.45932  -0.45751
 Alpha  occ. eigenvalues --   -0.45602  -0.45581  -0.45454  -0.45037  -0.44865
 Alpha  occ. eigenvalues --   -0.44617  -0.44360  -0.44200  -0.44026  -0.43784
 Alpha  occ. eigenvalues --   -0.43717  -0.43335  -0.43234  -0.42948  -0.42688
 Alpha  occ. eigenvalues --   -0.42550  -0.42375  -0.42236  -0.42058  -0.41921
 Alpha  occ. eigenvalues --   -0.41799  -0.41741  -0.41451  -0.41329  -0.41176
 Alpha  occ. eigenvalues --   -0.40991  -0.40323  -0.40268  -0.40110  -0.39969
 Alpha  occ. eigenvalues --   -0.39713  -0.39549  -0.39272  -0.39264  -0.39123
 Alpha  occ. eigenvalues --   -0.38793  -0.38648  -0.38542  -0.38252  -0.38207
 Alpha  occ. eigenvalues --   -0.38168  -0.38007  -0.37761  -0.37567  -0.37328
 Alpha  occ. eigenvalues --   -0.37047  -0.36726  -0.36327  -0.36059  -0.35956
 Alpha  occ. eigenvalues --   -0.35285  -0.35202  -0.34959  -0.34820  -0.34327
 Alpha  occ. eigenvalues --   -0.34194  -0.34013  -0.34000  -0.33226  -0.32985
 Alpha  occ. eigenvalues --   -0.32750  -0.32472  -0.32188  -0.32171  -0.31925
 Alpha  occ. eigenvalues --   -0.31335  -0.31015  -0.30934  -0.30180  -0.30155
 Alpha  occ. eigenvalues --   -0.28903  -0.28548  -0.28187  -0.27762  -0.27288
 Alpha  occ. eigenvalues --   -0.26791  -0.26717  -0.22741  -0.22077
 Alpha virt. eigenvalues --   -0.09223  -0.06482  -0.01926  -0.01138   0.00472
 Alpha virt. eigenvalues --    0.02998   0.03181   0.03560   0.03727   0.04099
 Alpha virt. eigenvalues --    0.04593   0.05396   0.07935   0.08150   0.09217

 Mulliken charges:
               1
     1  Mg   0.829403
     2  C    0.073920
     3  C   -0.195730
     4  C   -0.174452
     5  C   -0.152792
     6  N   -0.635738
     7  C    0.271211
     8  C   -0.102856
     9  C   -0.173054
    10  C    0.366038
    11  C   -0.304789
    12  C   -0.133471
    13  C   -0.275277
    14  C    0.630042
    15  O   -0.476214
    16  O   -0.432472
    17  N   -0.723244
    18  C    0.277240
    19  C    0.066036
    20  C   -0.011469
    21  C    0.345728
    22  C   -0.386693
    23  C    0.206614
    24  O   -0.451702
    25  N   -0.704706
    26  C    0.319923
    27  C   -0.031949
    28  C    0.018329
    29  C    0.313498
    30  C    0.244266
    31  C   -0.241001
    32  C   -0.324996
    33  N   -0.701724
    34  C    0.240393
    35  C    0.046554
    36  C    0.023191
    37  C    0.252766
    38  C   -0.379509
    39  C    0.339061
    40  O   -0.464793
    41  C   -0.299597
    42  C    0.650881
    43  O   -0.442056
    44  O   -0.460036
    45  C   -0.083844
    46  C   -0.016631
    47  C   -0.128415
    48  C    0.113044
    49  C   -0.382690
    50  C   -0.251802
    51  C   -0.177675
    52  C   -0.145001
    53  C   -0.078058
    54  C   -0.311137
    55  C   -0.164890
    56  C   -0.203364
    57  C   -0.180757
    58  C   -0.018695
    59  C   -0.331416
    60  C   -0.149969
    61  C   -0.175429
    62  C   -0.155569
    63  C   -0.033203
    64  C   -0.294730
    65  C   -0.308921
    66  H    0.092747
    67  H    0.140032
    68  H    0.091357
    69  H    0.124383
    70  H    0.112845
    71  H    0.084548
    72  H    0.108329
    73  H    0.115319
    74  H    0.071396
    75  H    0.129694
    76  H    0.099145
    77  H    0.132613
    78  H    0.133702
    79  H    0.158140
    80  H    0.130551
    81  H    0.079210
    82  H    0.121471
    83  H    0.095971
    84  H    0.118990
    85  H    0.107428
    86  H    0.111761
    87  H    0.113074
    88  H    0.145602
    89  H    0.138520
    90  H    0.178035
    91  H    0.092935
    92  H    0.139407
    93  H    0.087595
    94  H    0.158561
    95  H    0.115118
    96  H    0.112578
    97  H    0.105104
    98  H    0.093041
    99  H    0.110993
   100  H    0.104216
   101  H    0.073260
   102  H    0.105364
   103  H    0.075578
   104  H    0.114519
   105  H    0.109951
   106  H    0.068745
   107  H    0.102877
   108  H    0.073392
   109  H    0.092857
   110  H    0.103866
   111  H    0.078826
   112  H    0.097969
   113  H    0.057349
   114  H    0.107080
   115  H    0.109561
   116  H    0.098717
   117  H    0.051375
   118  H    0.067476
   119  H    0.085258
   120  H    0.076475
   121  H    0.106061
   122  H    0.047460
   123  H    0.102842
   124  H    0.104561
   125  H    0.073417
   126  H    0.094679
   127  H    0.103836
   128  H    0.090114
   129  H    0.097984
   130  H    0.132040
   131  H    0.115273
   132  H    0.113036
   133  O   -0.415115
   134  H    0.073281
 Sum of Mulliken charges =   0.00000

 Dipole moment (field-independent basis, Debye):
    X=              1.7905    Y=             -5.4764    Z=             -0.9014  Tot=              5.8318
 Quadrupole moment (field-independent basis, Debye-Ang):
   XX=           -368.0635   YY=           -446.2043   ZZ=           -394.1864
   XY=              2.8690   XZ=             16.9988   YZ=            -35.7485

 Normal termination of Gaussian 09 at Wed Oct  9 04:20:50 2019.
