 Gaussian 09, Revision D.01,
 Gaussian 09:  ES64L-G09RevD.01 24-Apr-2013

 ----------------------------------------------------------------------
 # td=(NStates=1) iop(3/107=0140000000,3/108=0140000000) iop(3/107=0140
 000000,3/108=0140000000) CAM-B3LYP/6-31G(d,p)
 ----------------------------------------------------------------------

 --
 TD
 --
 Symbolic Z-matrix:
 Charge =  0 Multiplicity = 1

                         Standard orientation:
 ---------------------------------------------------------------------
 Center     Atomic      Atomic             Coordinates (Angstroms)
 Number     Number       Type             X           Y           Z
 ---------------------------------------------------------------------
      1         12           0       -5.658601    1.271683    0.077826
      2          6           0       -4.980742   -2.191647   -0.436718
      3          6           0       -3.355096    1.173157    2.689741
      4          6           0       -6.344285    4.455093    0.733754
      5          6           0       -7.963823    1.111841   -2.380228
      6          7           0       -4.373041   -0.296838    1.044021
      7          6           0       -4.278456   -1.628236    0.620435
      8          6           0       -3.209871   -2.274170    1.452764
      9          6           0       -2.977884   -1.386612    2.637983
     10          6           0       -3.607704   -0.045118    2.119596
     11          6           0       -3.437152   -1.751013    3.965633
     12          6           0       -1.874750   -2.583920    0.550476
     13          6           0       -0.882505   -3.454131    1.516888
     14          6           0        0.418184   -3.866291    0.700131
     15          8           0        0.580712   -3.436159   -0.494343
     16          8           0        1.125719   -4.675090    1.373387
     17          7           0       -4.915803    2.500981    1.457632
     18          6           0       -3.958577    2.364310    2.466586
     19          6           0       -3.779077    3.565439    3.163407
     20          6           0       -4.635807    4.543627    2.557250
     21          6           0       -5.343996    3.932676    1.499255
     22          6           0       -2.830178    3.755957    4.283622
     23          6           0       -4.948106    5.875690    3.151595
     24          8           0       -4.245018    6.467299    3.921506
     25          7           0       -6.987061    2.561153   -0.748672
     26          6           0       -7.065600    3.819002   -0.390455
     27          6           0       -8.120332    4.447955   -1.142565
     28          6           0       -8.598843    3.583369   -2.055466
     29          6           0       -7.868463    2.343880   -1.817495
     30          6           0       -8.634343    5.869440   -0.980697
     31          6           0       -9.605910    3.762456   -3.159992
     32          6           0       -9.038332    4.013179   -4.502088
     33          7           0       -6.264917   -0.131430   -1.154013
     34          6           0       -7.251241   -0.003218   -2.132272
     35          6           0       -7.407247   -1.385697   -2.841347
     36          6           0       -6.648455   -2.241925   -2.136394
     37          6           0       -5.899381   -1.439223   -1.119398
     38          6           0       -8.448335   -1.558047   -3.928376
     39          6           0       -6.173766   -3.577935   -2.004902
     40          8           0       -6.489453   -4.548341   -2.711303
     41          6           0       -5.009546   -3.543174   -0.964577
     42          6           0       -5.028522   -4.640062    0.051606
     43          8           0       -5.434360   -4.448647    1.216663
     44          8           0       -4.890111   -5.881617   -0.390467
     45          6           0       -5.217229   -6.958574    0.448952
     46          6           0        2.412495   -4.990535    0.720047
     47          6           0        3.485171   -4.057860    1.164332
     48          6           0        4.105622   -3.259221    0.320022
     49          6           0        3.793517   -3.191553   -1.201050
     50          6           0        5.270920   -2.300326    0.796161
     51          6           0        6.621266   -2.659573    0.179948
     52          6           0        7.712753   -1.754412    0.595194
     53          6           0        9.107910   -1.967628   -0.062481
     54          6           0        9.471311   -3.469274    0.243046
     55          6           0       10.048035   -0.957120    0.455932
     56          6           0       11.368976   -0.837055   -0.387882
     57          6           0       12.192746    0.360649    0.033646
     58          6           0       13.621976    0.539244   -0.659280
     59          6           0       14.462823   -0.696326   -0.270188
     60          6           0       14.282602    1.855009   -0.282690
     61          6           0       15.564280    2.215745   -1.040420
     62          6           0       15.983197    3.634762   -0.757700
     63          6           0       17.260447    4.047568   -1.398287
     64          6           0       17.188437    4.140297   -2.893428
     65          6           0       17.752549    5.304534   -0.800863
     66          1           0       -2.634982    1.152069    3.553767
     67          1           0       -6.533184    5.629985    1.026963
     68          1           0       -8.717920    0.882503   -3.282556
     69          1           0       -3.424557   -3.289190    1.837244
     70          1           0       -1.748546   -1.102471    2.684499
     71          1           0       -2.838622   -2.665834    4.418303
     72          1           0       -3.107885   -0.763915    4.584342
     73          1           0       -4.611246   -1.829150    4.054553
     74          1           0       -2.132233   -3.273166   -0.280921
     75          1           0       -1.278001   -1.593403    0.286662
     76          1           0       -0.674239   -2.867955    2.377093
     77          1           0       -1.545899   -4.448130    1.584569
     78          1           0       -1.781373    3.494167    4.047113
     79          1           0       -2.566507    4.842037    4.437838
     80          1           0       -3.268141    3.422461    5.183961
     81          1           0       -6.002146    6.405844    2.866278
     82          1           0      -10.304991    2.869663   -3.204081
     83          1           0      -10.417038    4.452466   -2.907907
     84          1           0       -9.808762    4.367096   -5.333557
     85          1           0       -8.323055    4.921014   -4.567317
     86          1           0       -8.579012    2.994048   -4.996191
     87          1           0       -8.589799   -0.530877   -4.323107
     88          1           0       -8.203176   -2.472429   -4.308707
     89          1           0       -9.492739   -1.750126   -3.386135
     90          1           0       -4.040171   -3.680481   -1.660039
     91          1           0        2.605570   -5.843776    1.150378
     92          1           0        2.234558   -5.165736   -0.308432
     93          1           0        3.786238   -4.072038    2.212317
     94          1           0        2.760678   -3.090741   -1.372335
     95          1           0        4.269251   -2.299223   -1.463647
     96          1           0        4.281978   -4.133251   -1.697249
     97          1           0        5.012588   -1.217972    0.721228
     98          1           0        5.540414   -2.335563    1.908813
     99          1           0        6.760630   -3.664771    0.566917
    100          1           0        6.327503   -2.650978   -0.970807
    101          1           0        7.389278   -0.639665    0.553023
    102          1           0        7.780529   -2.031634    1.788700
    103          1           0        9.001295   -1.795488   -1.181777
    104          1           0        8.826306   -4.262714   -0.222339
    105          1           0       10.399267   -3.736191   -0.088446
    106          1           0        9.468821   -3.605519    1.246831
    107          1           0        9.640890    0.148145    0.434750
    108          1           0       10.257691   -0.989709    1.551865
    109          1           0       11.871714   -1.857979   -0.156890
    110          1           0       11.077640   -0.901429   -1.605546
    111          1           0       11.698556    1.291128   -0.126904
    112          1           0       12.407073    0.388930    1.126048
    113          1           0       13.517508    0.641876   -1.695069
    114          1           0       14.232418   -0.969528    0.843379
    115          1           0       13.924751   -1.508321   -0.942357
    116          1           0       15.501533   -0.778808   -0.634750
    117          1           0       13.522259    2.524221   -0.509396
    118          1           0       14.406102    1.945990    0.785483
    119          1           0       16.474678    1.626929   -0.709000
    120          1           0       15.490284    2.277657   -2.111265
    121          1           0       15.231239    4.484151   -1.053527
    122          1           0       16.205563    3.945265    0.458900
    123          1           0       18.181389    3.236755   -1.169810
    124          1           0       16.391490    4.825426   -3.355003
    125          1           0       18.275223    4.455375   -3.197505
    126          1           0       17.247165    3.244861   -3.689117
    127          1           0       17.933235    5.120906    0.384451
    128          1           0       18.958736    5.782276   -1.147411
    129          1           0       17.151592    6.188216   -0.916377
    130          1           0       -5.051219   -7.761468   -0.179561
    131          1           0       -6.261860   -7.013973    0.771935
    132          1           0       -4.646016   -6.930727    1.421362
    133          8           0       -8.211279    6.785755   -0.388229
    134          1           0       -9.471006    5.889992   -1.683481
 ---------------------------------------------------------------------

 SCF Done:  E(RCAM-B3LYP) =  -3043.48588343     A.U. after   15 cycles

 Excitation energies and oscillator strengths:

 Excited State   1:      Singlet-A      2.0875 eV  593.93 nm  f=0.1418  <S**2>=0.000
     243 -> 246        0.29637
     244 -> 245        0.63098
 This state for optimization and/or second-order correction.
 Total Energy, E(TD-HF/TD-KS) =  -3043.40916901
 Copying the excited state density for this state as the 1-particle RhoCI density.

 The electronic state is 1-A.
 Alpha  occ. eigenvalues --  -46.80130 -19.24324 -19.23371 -19.17791 -19.17312
 Alpha  occ. eigenvalues --  -19.17278 -19.16724 -19.16158 -14.38109 -14.36978
 Alpha  occ. eigenvalues --  -14.36801 -14.35910 -10.35577 -10.35221 -10.31881
 Alpha  occ. eigenvalues --  -10.31107 -10.30007 -10.27623 -10.27176 -10.26808
 Alpha  occ. eigenvalues --  -10.26682 -10.26514 -10.26318 -10.26294 -10.26278
 Alpha  occ. eigenvalues --  -10.26151 -10.25948 -10.25730 -10.25604 -10.25173
 Alpha  occ. eigenvalues --  -10.24611 -10.24481 -10.24409 -10.24323 -10.24317
 Alpha  occ. eigenvalues --  -10.24219 -10.24191 -10.23980 -10.23827 -10.23720
 Alpha  occ. eigenvalues --  -10.23645 -10.23519 -10.23420 -10.23144 -10.23090
 Alpha  occ. eigenvalues --  -10.23066 -10.22878 -10.22654 -10.22634 -10.22530
 Alpha  occ. eigenvalues --  -10.22361 -10.22340 -10.22168 -10.21952 -10.21928
 Alpha  occ. eigenvalues --  -10.21707 -10.21592 -10.21456 -10.21386 -10.21155
 Alpha  occ. eigenvalues --  -10.21154 -10.21123 -10.20863 -10.20853 -10.19484
 Alpha  occ. eigenvalues --  -10.19417  -3.08923  -1.83844  -1.83424  -1.83323
 Alpha  occ. eigenvalues --   -1.15908  -1.14914  -1.09577  -1.07841  -1.06033
 Alpha  occ. eigenvalues --   -1.03637  -1.01904  -1.00633  -0.99576  -0.98550
 Alpha  occ. eigenvalues --   -0.96462  -0.90101  -0.86344  -0.85905  -0.85598
 Alpha  occ. eigenvalues --   -0.85118  -0.84716  -0.84322  -0.83910  -0.83767
 Alpha  occ. eigenvalues --   -0.83727  -0.82207  -0.81696  -0.80851  -0.79613
 Alpha  occ. eigenvalues --   -0.79207  -0.78659  -0.78202  -0.77564  -0.77025
 Alpha  occ. eigenvalues --   -0.75385  -0.75230  -0.74199  -0.73537  -0.72110
 Alpha  occ. eigenvalues --   -0.71497  -0.71057  -0.70158  -0.69906  -0.69422
 Alpha  occ. eigenvalues --   -0.69044  -0.68955  -0.66750  -0.66025  -0.65794
 Alpha  occ. eigenvalues --   -0.65146  -0.64432  -0.64150  -0.62475  -0.62096
 Alpha  occ. eigenvalues --   -0.61425  -0.60240  -0.59458  -0.59234  -0.58986
 Alpha  occ. eigenvalues --   -0.58938  -0.58300  -0.58058  -0.56797  -0.56712
 Alpha  occ. eigenvalues --   -0.56290  -0.55857  -0.55321  -0.55066  -0.54692
 Alpha  occ. eigenvalues --   -0.54262  -0.53398  -0.52878  -0.52398  -0.51906
 Alpha  occ. eigenvalues --   -0.51558  -0.51466  -0.51151  -0.50922  -0.50803
 Alpha  occ. eigenvalues --   -0.50524  -0.49910  -0.49748  -0.49627  -0.49429
 Alpha  occ. eigenvalues --   -0.49079  -0.48694  -0.48296  -0.48020  -0.47908
 Alpha  occ. eigenvalues --   -0.47563  -0.47431  -0.47200  -0.46983  -0.46694
 Alpha  occ. eigenvalues --   -0.46638  -0.46597  -0.46322  -0.46216  -0.45850
 Alpha  occ. eigenvalues --   -0.45668  -0.45550  -0.45247  -0.44992  -0.44894
 Alpha  occ. eigenvalues --   -0.44829  -0.44720  -0.44532  -0.44122  -0.43993
 Alpha  occ. eigenvalues --   -0.43757  -0.43250  -0.43081  -0.42946  -0.42766
 Alpha  occ. eigenvalues --   -0.42668  -0.42613  -0.42083  -0.41917  -0.41758
 Alpha  occ. eigenvalues --   -0.41564  -0.41399  -0.41111  -0.41055  -0.40741
 Alpha  occ. eigenvalues --   -0.40693  -0.40612  -0.40142  -0.39893  -0.39770
 Alpha  occ. eigenvalues --   -0.39571  -0.39352  -0.39120  -0.38921  -0.38772
 Alpha  occ. eigenvalues --   -0.38570  -0.38320  -0.38200  -0.38048  -0.37745
 Alpha  occ. eigenvalues --   -0.37524  -0.36883  -0.36859  -0.36697  -0.36622
 Alpha  occ. eigenvalues --   -0.36207  -0.35771  -0.35628  -0.35579  -0.35310
 Alpha  occ. eigenvalues --   -0.35259  -0.35032  -0.34825  -0.34633  -0.34572
 Alpha  occ. eigenvalues --   -0.34215  -0.33822  -0.33798  -0.33557  -0.33205
 Alpha  occ. eigenvalues --   -0.33058  -0.32901  -0.32169  -0.32053  -0.31566
 Alpha  occ. eigenvalues --   -0.31035  -0.30959  -0.30454  -0.29821  -0.29376
 Alpha  occ. eigenvalues --   -0.29289  -0.28668  -0.28372  -0.28260  -0.27579
 Alpha  occ. eigenvalues --   -0.27377  -0.26929  -0.22942  -0.21397
 Alpha virt. eigenvalues --   -0.07890  -0.06417  -0.02093   0.00250   0.00775
 Alpha virt. eigenvalues --    0.01795   0.03108   0.04081   0.04248   0.04676
 Alpha virt. eigenvalues --    0.04812   0.05878   0.07043   0.07779   0.08305

 Mulliken charges:
               1
     1  Mg   0.824416
     2  C    0.150359
     3  C   -0.205005
     4  C   -0.186818
     5  C   -0.193069
     6  N   -0.636666
     7  C    0.333684
     8  C   -0.162189
     9  C   -0.125013
    10  C    0.357612
    11  C   -0.281669
    12  C   -0.167576
    13  C   -0.266935
    14  C    0.590186
    15  O   -0.510856
    16  O   -0.410067
    17  N   -0.732920
    18  C    0.368600
    19  C    0.039514
    20  C   -0.031614
    21  C    0.302414
    22  C   -0.402832
    23  C    0.239177
    24  O   -0.390087
    25  N   -0.706980
    26  C    0.323776
    27  C   -0.075580
    28  C    0.058701
    29  C    0.274885
    30  C    0.285021
    31  C   -0.252840
    32  C   -0.289296
    33  N   -0.747803
    34  C    0.298015
    35  C   -0.017802
    36  C    0.080600
    37  C    0.265172
    38  C   -0.350921
    39  C    0.347714
    40  O   -0.468694
    41  C   -0.344942
    42  C    0.608735
    43  O   -0.490834
    44  O   -0.421191
    45  C   -0.084219
    46  C    0.007865
    47  C   -0.143628
    48  C    0.125587
    49  C   -0.372832
    50  C   -0.245419
    51  C   -0.156602
    52  C   -0.153035
    53  C   -0.042138
    54  C   -0.326669
    55  C   -0.167495
    56  C   -0.161940
    57  C   -0.182892
    58  C   -0.062363
    59  C   -0.301530
    60  C   -0.164770
    61  C   -0.169680
    62  C   -0.145367
    63  C   -0.023553
    64  C   -0.306386
    65  C   -0.274561
    66  H    0.081102
    67  H    0.132152
    68  H    0.074249
    69  H    0.118437
    70  H    0.070713
    71  H    0.105190
    72  H    0.090181
    73  H    0.121245
    74  H    0.111473
    75  H    0.111212
    76  H    0.133414
    77  H    0.114124
    78  H    0.124076
    79  H    0.151723
    80  H    0.139306
    81  H    0.059762
    82  H    0.106729
    83  H    0.121591
    84  H    0.096495
    85  H    0.114243
    86  H    0.091038
    87  H    0.126422
    88  H    0.158628
    89  H    0.126226
    90  H    0.160674
    91  H    0.115130
    92  H    0.144661
    93  H    0.089311
    94  H    0.164878
    95  H    0.116619
    96  H    0.108901
    97  H    0.101081
    98  H    0.077601
    99  H    0.107940
   100  H    0.074305
   101  H    0.078888
   102  H    0.057194
   103  H    0.083376
   104  H    0.103059
   105  H    0.106997
   106  H    0.113370
   107  H    0.072610
   108  H    0.090998
   109  H    0.093436
   110  H    0.062971
   111  H    0.093733
   112  H    0.090268
   113  H    0.087044
   114  H    0.091135
   115  H    0.084569
   116  H    0.103007
   117  H    0.091713
   118  H    0.087586
   119  H    0.096021
   120  H    0.105199
   121  H    0.074696
   122  H    0.043379
   123  H    0.061828
   124  H    0.097646
   125  H    0.091737
   126  H    0.089422
   127  H    0.086185
   128  H    0.045448
   129  H    0.114747
   130  H    0.132816
   131  H    0.131882
   132  H    0.121841
   133  O   -0.395339
   134  H    0.042946
 Sum of Mulliken charges =   0.00000

 Dipole moment (field-independent basis, Debye):
    X=              2.3615    Y=             -5.3424    Z=             -0.6826  Tot=              5.8808
 Quadrupole moment (field-independent basis, Debye-Ang):
   XX=           -382.3635   YY=           -430.3701   ZZ=           -396.2210
   XY=              6.6584   XZ=             19.6419   YZ=            -30.9791

 Normal termination of Gaussian 09 at Fri Oct  4 04:34:11 2019.
