 Gaussian 09, Revision D.01,
 Gaussian 09:  ES64L-G09RevD.01 24-Apr-2013

 ----------------------------------------------------------------------
 # td=(NStates=1) iop(3/107=0140000000,3/108=0140000000) iop(3/107=0140
 000000,3/108=0140000000) CAM-B3LYP/6-31G(d,p)
 ----------------------------------------------------------------------

 --
 TD
 --
 Symbolic Z-matrix:
 Charge =  0 Multiplicity = 1

                         Standard orientation:
 ---------------------------------------------------------------------
 Center     Atomic      Atomic             Coordinates (Angstroms)
 Number     Number       Type             X           Y           Z
 ---------------------------------------------------------------------
      1         12           0       -5.642636    1.269880    0.133140
      2          6           0       -5.004096   -2.133936   -0.329581
      3          6           0       -3.508815    1.208402    2.916780
      4          6           0       -6.285781    4.507168    0.612050
      5          6           0       -7.930658    1.109528   -2.357881
      6          7           0       -4.421841   -0.232601    1.066912
      7          6           0       -4.286526   -1.558775    0.688620
      8          6           0       -3.264480   -2.290613    1.552976
      9          6           0       -3.013708   -1.271534    2.789169
     10          6           0       -3.689116   -0.024030    2.201668
     11          6           0       -3.530280   -1.560852    4.260247
     12          6           0       -2.020591   -2.623868    0.769811
     13          6           0       -0.931959   -3.475600    1.567289
     14          6           0        0.179060   -3.830893    0.674073
     15          8           0        0.344970   -3.409981   -0.464645
     16          8           0        1.114376   -4.624224    1.340162
     17          7           0       -4.959818    2.635082    1.377777
     18          6           0       -3.958528    2.456142    2.448992
     19          6           0       -3.709108    3.708014    3.067082
     20          6           0       -4.587299    4.672592    2.448479
     21          6           0       -5.268757    3.903695    1.469548
     22          6           0       -2.782094    4.030976    4.320591
     23          6           0       -4.609555    6.070417    2.816552
     24          8           0       -3.976484    6.593057    3.741859
     25          7           0       -6.862774    2.570273   -0.729295
     26          6           0       -6.974821    3.882968   -0.366988
     27          6           0       -7.864063    4.578591   -1.305359
     28          6           0       -8.354797    3.644487   -2.159630
     29          6           0       -7.765053    2.320156   -1.746994
     30          6           0       -8.189620    6.002613   -1.309146
     31          6           0       -9.386706    3.809847   -3.160411
     32          6           0       -8.767128    4.029539   -4.609827
     33          7           0       -6.284715   -0.188576   -1.070564
     34          6           0       -7.367190   -0.100125   -2.034667
     35          6           0       -7.591509   -1.418351   -2.715383
     36          6           0       -6.676409   -2.294490   -2.004045
     37          6           0       -5.977181   -1.446268   -1.126592
     38          6           0       -8.558674   -1.664862   -3.851201
     39          6           0       -6.238851   -3.603301   -1.994911
     40          8           0       -6.680353   -4.483490   -2.699956
     41          6           0       -5.102603   -3.615512   -0.835613
     42          6           0       -5.367117   -4.677371    0.264137
     43          8           0       -5.794918   -4.547657    1.336279
     44          8           0       -5.098281   -5.909814   -0.261822
     45          6           0       -5.518120   -7.041546    0.516030
     46          6           0        2.263770   -5.052842    0.678279
     47          6           0        3.343470   -4.019612    0.989683
     48          6           0        3.990977   -3.194206    0.182737
     49          6           0        3.596929   -3.126898   -1.272796
     50          6           0        5.101555   -2.230610    0.559532
     51          6           0        6.481114   -2.481033   -0.175611
     52          6           0        7.690833   -1.823628    0.488176
     53          6           0        9.067642   -1.963420   -0.203693
     54          6           0        9.598475   -3.468238   -0.035577
     55          6           0        9.936524   -0.845647    0.269220
     56          6           0       11.368337   -0.820022   -0.411237
     57          6           0       12.211016    0.304930    0.078273
     58          6           0       13.662341    0.439267   -0.560829
     59          6           0       14.562420   -0.759054   -0.272067
     60          6           0       14.401977    1.692881   -0.040774
     61          6           0       15.648874    2.002517   -0.864680
     62          6           0       16.194607    3.328924   -0.564336
     63          6           0       17.432301    3.790325   -1.339108
     64          6           0       17.336966    3.858271   -2.816280
     65          6           0       18.010916    5.021616   -0.690827
     66          1           0       -2.735291    1.087000    3.586728
     67          1           0       -6.512616    5.609291    0.810276
     68          1           0       -8.676585    1.418057   -3.136197
     69          1           0       -3.861285   -3.181169    1.963469
     70          1           0       -1.972375   -1.036754    2.751591
     71          1           0       -3.015149   -2.461526    4.663469
     72          1           0       -3.075119   -0.752679    4.992353
     73          1           0       -4.738444   -1.734463    4.253202
     74          1           0       -2.042354   -3.548882   -0.128521
     75          1           0       -1.615631   -1.760216    0.240386
     76          1           0       -0.611971   -2.958254    2.407364
     77          1           0       -1.465617   -4.458955    1.867852
     78          1           0       -1.753659    3.930635    3.953089
     79          1           0       -2.733077    5.170171    4.720032
     80          1           0       -3.025569    3.488146    5.020266
     81          1           0       -5.177037    6.643222    2.074332
     82          1           0      -10.111011    2.800865   -3.369063
     83          1           0       -9.987026    4.564819   -3.227072
     84          1           0       -9.559548    4.272481   -5.327549
     85          1           0       -8.186584    4.979017   -4.569058
     86          1           0       -8.016665    3.098752   -4.890926
     87          1           0       -8.329574   -1.330767   -4.751663
     88          1           0       -8.718780   -2.643943   -3.897612
     89          1           0       -9.628618   -1.448209   -3.418300
     90          1           0       -4.214155   -3.881402   -1.300682
     91          1           0        2.687029   -5.964610    0.991090
     92          1           0        2.001471   -4.939349   -0.349542
     93          1           0        3.837215   -4.059655    2.080793
     94          1           0        2.510847   -3.150561   -1.406249
     95          1           0        3.845141   -2.087587   -1.673176
     96          1           0        4.084580   -3.649150   -2.123548
     97          1           0        4.727508   -1.211031    0.371331
     98          1           0        5.208046   -2.339499    1.546712
     99          1           0        6.943422   -3.515223   -0.220351
    100          1           0        6.262083   -1.942858   -1.126378
    101          1           0        7.303653   -0.833293    0.619580
    102          1           0        7.708399   -2.156963    1.697257
    103          1           0        8.751609   -2.046530   -1.273779
    104          1           0        8.795644   -4.190987   -0.234164
    105          1           0       10.586853   -3.793310   -0.552139
    106          1           0        9.724301   -3.414491    1.113604
    107          1           0        9.514820    0.097562    0.023739
    108          1           0       10.091477   -1.007653    1.383801
    109          1           0       11.721159   -1.824872   -0.389658
    110          1           0       11.118489   -0.501844   -1.683878
    111          1           0       11.972711    1.223047    0.009009
    112          1           0       12.348587    0.227357    1.139835
    113          1           0       13.432519    0.592034   -1.555134
    114          1           0       14.851796   -0.880631    0.781454
    115          1           0       14.038124   -1.776586   -0.612307
    116          1           0       15.504477   -0.663718   -0.961046
    117          1           0       13.906650    2.590651    0.079741
    118          1           0       14.663088    1.491765    1.126504
    119          1           0       16.338897    1.368057   -0.640410
    120          1           0       15.400116    1.865011   -1.910507
    121          1           0       15.187911    4.010066   -0.637953
    122          1           0       16.490323    3.409144    0.387675
    123          1           0       18.196748    3.132848   -1.286704
    124          1           0       16.219987    4.521269   -3.055194
    125          1           0       18.090457    4.451302   -3.164493
    126          1           0       17.079081    2.984084   -3.411052
    127          1           0       18.449289    4.727984    0.467063
    128          1           0       18.925523    5.553535   -1.477142
    129          1           0       16.963542    5.692081   -0.655440
    130          1           0       -5.053506   -7.957676    0.007373
    131          1           0       -6.704385   -7.139253    0.688517
    132          1           0       -5.232852   -6.724079    1.763774
    133          8           0       -7.723223    6.780136   -0.499112
    134          1           0       -8.795583    6.315994   -2.063691
 ---------------------------------------------------------------------

 SCF Done:  E(RCAM-B3LYP) =  -3043.33058185     A.U. after   16 cycles

 Excitation energies and oscillator strengths:

 Excited State   1:      Singlet-A      1.8758 eV  660.96 nm  f=0.2451  <S**2>=0.000
     243 -> 246        0.18149
     244 -> 245        0.67643
 This state for optimization and/or second-order correction.
 Total Energy, E(TD-HF/TD-KS) =  -3043.26164723
 Copying the excited state density for this state as the 1-particle RhoCI density.

 The electronic state is 1-A.
 Alpha  occ. eigenvalues --  -46.80307 -19.22093 -19.21927 -19.18494 -19.18178
 Alpha  occ. eigenvalues --  -19.17621 -19.16833 -19.16425 -14.39308 -14.36944
 Alpha  occ. eigenvalues --  -14.36832 -14.36794 -10.36018 -10.35145 -10.30726
 Alpha  occ. eigenvalues --  -10.30183 -10.29953 -10.29653 -10.27809 -10.27296
 Alpha  occ. eigenvalues --  -10.26931 -10.26911 -10.26861 -10.26523 -10.26433
 Alpha  occ. eigenvalues --  -10.26303 -10.25980 -10.25410 -10.25384 -10.25375
 Alpha  occ. eigenvalues --  -10.25174 -10.25112 -10.24994 -10.24947 -10.24914
 Alpha  occ. eigenvalues --  -10.24692 -10.24597 -10.24477 -10.24170 -10.24088
 Alpha  occ. eigenvalues --  -10.23895 -10.23150 -10.22956 -10.22851 -10.22642
 Alpha  occ. eigenvalues --  -10.22472 -10.22368 -10.22340 -10.22159 -10.21860
 Alpha  occ. eigenvalues --  -10.21852 -10.21629 -10.21602 -10.21516 -10.21428
 Alpha  occ. eigenvalues --  -10.21274 -10.21049 -10.20938 -10.20879 -10.20692
 Alpha  occ. eigenvalues --  -10.20640 -10.20341 -10.20189 -10.20078 -10.18781
 Alpha  occ. eigenvalues --  -10.18545  -3.09242  -1.84152  -1.83706  -1.83697
 Alpha  occ. eigenvalues --   -1.14903  -1.13120  -1.07658  -1.07116  -1.06313
 Alpha  occ. eigenvalues --   -1.05550  -1.05019  -1.00559  -0.99636  -0.99250
 Alpha  occ. eigenvalues --   -0.98402  -0.88012  -0.86415  -0.86371  -0.85753
 Alpha  occ. eigenvalues --   -0.85313  -0.84880  -0.84581  -0.84004  -0.83595
 Alpha  occ. eigenvalues --   -0.83332  -0.82127  -0.81701  -0.80463  -0.79831
 Alpha  occ. eigenvalues --   -0.79343  -0.78627  -0.78122  -0.76904  -0.76670
 Alpha  occ. eigenvalues --   -0.75646  -0.75066  -0.74107  -0.72591  -0.71655
 Alpha  occ. eigenvalues --   -0.71084  -0.70750  -0.70528  -0.70226  -0.69618
 Alpha  occ. eigenvalues --   -0.69134  -0.68732  -0.67493  -0.66971  -0.66135
 Alpha  occ. eigenvalues --   -0.65946  -0.65047  -0.64792  -0.62508  -0.61802
 Alpha  occ. eigenvalues --   -0.61646  -0.60268  -0.60123  -0.59636  -0.59411
 Alpha  occ. eigenvalues --   -0.59122  -0.58308  -0.57960  -0.57870  -0.57162
 Alpha  occ. eigenvalues --   -0.56530  -0.55789  -0.55555  -0.55294  -0.54940
 Alpha  occ. eigenvalues --   -0.54610  -0.54105  -0.53334  -0.53024  -0.52304
 Alpha  occ. eigenvalues --   -0.52225  -0.51684  -0.51380  -0.51374  -0.50949
 Alpha  occ. eigenvalues --   -0.50736  -0.50723  -0.49702  -0.49601  -0.49422
 Alpha  occ. eigenvalues --   -0.48984  -0.48811  -0.48661  -0.48273  -0.48085
 Alpha  occ. eigenvalues --   -0.47687  -0.47637  -0.47279  -0.47222  -0.47100
 Alpha  occ. eigenvalues --   -0.46655  -0.46449  -0.46371  -0.46002  -0.45878
 Alpha  occ. eigenvalues --   -0.45597  -0.45379  -0.45164  -0.44844  -0.44640
 Alpha  occ. eigenvalues --   -0.44504  -0.44339  -0.44178  -0.44161  -0.44081
 Alpha  occ. eigenvalues --   -0.43789  -0.43177  -0.43056  -0.42812  -0.42666
 Alpha  occ. eigenvalues --   -0.42335  -0.42197  -0.42030  -0.41875  -0.41772
 Alpha  occ. eigenvalues --   -0.41508  -0.41305  -0.41128  -0.40865  -0.40806
 Alpha  occ. eigenvalues --   -0.40564  -0.40403  -0.40247  -0.40188  -0.39867
 Alpha  occ. eigenvalues --   -0.39593  -0.39422  -0.39287  -0.39179  -0.39037
 Alpha  occ. eigenvalues --   -0.38777  -0.38375  -0.38195  -0.38043  -0.37850
 Alpha  occ. eigenvalues --   -0.37646  -0.37613  -0.37297  -0.37204  -0.37044
 Alpha  occ. eigenvalues --   -0.36889  -0.36743  -0.36379  -0.36039  -0.35806
 Alpha  occ. eigenvalues --   -0.35382  -0.35352  -0.35045  -0.34737  -0.34398
 Alpha  occ. eigenvalues --   -0.34059  -0.33912  -0.33501  -0.33303  -0.32592
 Alpha  occ. eigenvalues --   -0.32555  -0.32279  -0.32117  -0.31921  -0.31650
 Alpha  occ. eigenvalues --   -0.31530  -0.31454  -0.31406  -0.30233  -0.29614
 Alpha  occ. eigenvalues --   -0.29042  -0.28643  -0.28204  -0.27815  -0.27748
 Alpha  occ. eigenvalues --   -0.27140  -0.26846  -0.23380  -0.21102
 Alpha virt. eigenvalues --   -0.09279  -0.06179  -0.01655  -0.00691   0.00586
 Alpha virt. eigenvalues --    0.02054   0.03799   0.04003   0.04433   0.04662
 Alpha virt. eigenvalues --    0.05100   0.05988   0.07295   0.07483   0.08696

 Mulliken charges:
               1
     1  Mg   0.826468
     2  C    0.072477
     3  C   -0.148265
     4  C   -0.205253
     5  C   -0.144582
     6  N   -0.601166
     7  C    0.270819
     8  C   -0.172380
     9  C   -0.144311
    10  C    0.295556
    11  C   -0.301971
    12  C   -0.162787
    13  C   -0.269828
    14  C    0.612843
    15  O   -0.456586
    16  O   -0.469129
    17  N   -0.714224
    18  C    0.251125
    19  C    0.002867
    20  C   -0.011078
    21  C    0.350539
    22  C   -0.359699
    23  C    0.251296
    24  O   -0.438054
    25  N   -0.724526
    26  C    0.337206
    27  C   -0.030195
    28  C    0.068492
    29  C    0.266476
    30  C    0.275846
    31  C   -0.262552
    32  C   -0.322480
    33  N   -0.702253
    34  C    0.224102
    35  C    0.029068
    36  C    0.064865
    37  C    0.327548
    38  C   -0.366302
    39  C    0.322500
    40  O   -0.454456
    41  C   -0.318004
    42  C    0.606724
    43  O   -0.431794
    44  O   -0.441672
    45  C   -0.078621
    46  C    0.015181
    47  C   -0.153996
    48  C    0.162526
    49  C   -0.404353
    50  C   -0.236646
    51  C   -0.173216
    52  C   -0.166355
    53  C   -0.064066
    54  C   -0.320140
    55  C   -0.158097
    56  C   -0.160550
    57  C   -0.150440
    58  C   -0.064557
    59  C   -0.299415
    60  C   -0.181917
    61  C   -0.157919
    62  C   -0.160628
    63  C   -0.046679
    64  C   -0.281859
    65  C   -0.271651
    66  H    0.087134
    67  H    0.141608
    68  H    0.081917
    69  H    0.126505
    70  H    0.115163
    71  H    0.117261
    72  H    0.110581
    73  H    0.122381
    74  H    0.086695
    75  H    0.131524
    76  H    0.146898
    77  H    0.141042
    78  H    0.117205
    79  H    0.157312
    80  H    0.128544
    81  H    0.078388
    82  H    0.095298
    83  H    0.122350
    84  H    0.116817
    85  H    0.113227
    86  H    0.099121
    87  H    0.143649
    88  H    0.157411
    89  H    0.113119
    90  H    0.161753
    91  H    0.127966
    92  H    0.124404
    93  H    0.057295
    94  H    0.148250
    95  H    0.081965
    96  H    0.116513
    97  H    0.108985
    98  H    0.098077
    99  H    0.092936
   100  H    0.098992
   101  H    0.092693
   102  H    0.042950
   103  H    0.092013
   104  H    0.109802
   105  H    0.102644
   106  H    0.091542
   107  H    0.108847
   108  H    0.088034
   109  H    0.104424
   110  H    0.024320
   111  H    0.097483
   112  H    0.080366
   113  H    0.093482
   114  H    0.108672
   115  H    0.077855
   116  H    0.090988
   117  H    0.088445
   118  H    0.055617
   119  H    0.107827
   120  H    0.091005
   121  H    0.056007
   122  H    0.099628
   123  H    0.104369
   124  H    0.026909
   125  H    0.108679
   126  H    0.115038
   127  H    0.081487
   128  H    0.061792
   129  H    0.086405
   130  H    0.131266
   131  H    0.118431
   132  H    0.092343
   133  O   -0.420798
   134  H    0.071278
 Sum of Mulliken charges =   0.00000

 Dipole moment (field-independent basis, Debye):
    X=              0.6855    Y=             -3.7637    Z=             -1.2866  Tot=              4.0362
 Quadrupole moment (field-independent basis, Debye-Ang):
   XX=           -360.5182   YY=           -442.7786   ZZ=           -393.1356
   XY=             -8.5088   XZ=             29.3896   YZ=            -38.1119

 Normal termination of Gaussian 09 at Mon Oct  7 17:02:31 2019.
