 Gaussian 09, Revision D.01,
 Gaussian 09:  ES64L-G09RevD.01 24-Apr-2013

 ----------------------------------------------------------------------
 # td=(NStates=1) iop(3/107=0140000000,3/108=0140000000) iop(3/107=0140
 000000,3/108=0140000000) CAM-B3LYP/6-31G(d,p)
 ----------------------------------------------------------------------

 --
 TD
 --
 Symbolic Z-matrix:
 Charge =  0 Multiplicity = 1

                         Standard orientation:
 ---------------------------------------------------------------------
 Center     Atomic      Atomic             Coordinates (Angstroms)
 Number     Number       Type             X           Y           Z
 ---------------------------------------------------------------------
      1         12           0       -5.597927    1.221186    0.187410
      2          6           0       -4.900560   -2.103055   -0.429793
      3          6           0       -3.454515    1.096579    2.853039
      4          6           0       -6.188355    4.485434    0.631134
      5          6           0       -7.851054    1.192387   -2.508256
      6          7           0       -4.391484   -0.239280    1.014675
      7          6           0       -4.228061   -1.541303    0.643212
      8          6           0       -3.143535   -2.247180    1.452735
      9          6           0       -2.920379   -1.322066    2.661283
     10          6           0       -3.649953   -0.101583    2.143437
     11          6           0       -3.451795   -1.722772    4.003190
     12          6           0       -1.858278   -2.626316    0.641985
     13          6           0       -0.906990   -3.497919    1.462472
     14          6           0        0.300759   -3.968351    0.588995
     15          8           0        0.476820   -3.496719   -0.556579
     16          8           0        1.170666   -4.731183    1.208814
     17          7           0       -5.090780    2.595273    1.524042
     18          6           0       -4.155239    2.353112    2.594533
     19          6           0       -3.854384    3.577207    3.322703
     20          6           0       -4.669595    4.512160    2.661275
     21          6           0       -5.392478    3.895684    1.568678
     22          6           0       -2.972679    3.786146    4.470732
     23          6           0       -4.780017    5.860844    3.046817
     24          8           0       -4.371113    6.445328    4.050961
     25          7           0       -6.963481    2.554216   -0.754789
     26          6           0       -6.960436    3.854448   -0.380229
     27          6           0       -7.927770    4.525211   -1.282701
     28          6           0       -8.473406    3.741418   -2.164445
     29          6           0       -7.821242    2.416631   -1.837722
     30          6           0       -8.320628    6.017834   -1.204534
     31          6           0       -9.420884    3.904688   -3.304877
     32          6           0       -8.670443    3.984640   -4.680449
     33          7           0       -6.412581   -0.179738   -1.062053
     34          6           0       -7.287212   -0.014929   -2.110204
     35          6           0       -7.426469   -1.376587   -2.731790
     36          6           0       -6.644721   -2.218827   -2.071944
     37          6           0       -5.972264   -1.431877   -1.050821
     38          6           0       -8.447300   -1.742466   -3.845876
     39          6           0       -6.126098   -3.628437   -1.944849
     40          8           0       -6.322467   -4.516454   -2.655283
     41          6           0       -4.900953   -3.560974   -0.875519
     42          6           0       -5.155093   -4.662308    0.142262
     43          8           0       -5.711683   -4.484840    1.180721
     44          8           0       -4.746927   -5.796863   -0.358172
     45          6           0       -4.996273   -6.920997    0.440935
     46          6           0        2.371232   -5.142335    0.601685
     47          6           0        3.525018   -4.177793    1.013127
     48          6           0        4.079329   -3.240019    0.152039
     49          6           0        3.649403   -3.147396   -1.229433
     50          6           0        5.186357   -2.384330    0.675140
     51          6           0        6.506685   -2.721311   -0.027505
     52          6           0        7.612461   -1.851167    0.548401
     53          6           0        9.012642   -2.013241   -0.001955
     54          6           0        9.637099   -3.316519    0.284822
     55          6           0        9.967957   -0.796232    0.393276
     56          6           0       11.288325   -0.688516   -0.216479
     57          6           0       12.152328    0.411533    0.167056
     58          6           0       13.319366    0.581305   -0.569588
     59          6           0       14.280029   -0.680314   -0.384726
     60          6           0       14.138835    1.841832   -0.194359
     61          6           0       15.349039    2.280758   -1.039656
     62          6           0       15.948329    3.593687   -0.655042
     63          6           0       17.221199    4.011767   -1.359293
     64          6           0       17.052885    4.110549   -2.912760
     65          6           0       17.923258    5.249169   -0.734833
     66          1           0       -2.833211    0.999472    3.585643
     67          1           0       -6.414421    5.548474    0.774351
     68          1           0       -8.679642    1.155637   -3.328365
     69          1           0       -3.416375   -3.241278    1.804524
     70          1           0       -1.754612   -1.195537    2.719740
     71          1           0       -2.982615   -2.473654    4.581843
     72          1           0       -3.458437   -0.910882    4.717976
     73          1           0       -4.347704   -2.133893    3.975335
     74          1           0       -1.897818   -2.982367   -0.268336
     75          1           0       -1.199624   -1.635031    0.385879
     76          1           0       -0.435764   -2.958503    2.339921
     77          1           0       -1.396924   -4.485607    1.722858
     78          1           0       -2.145347    3.393859    4.095702
     79          1           0       -2.909089    4.765063    4.873158
     80          1           0       -3.143997    3.063245    5.347010
     81          1           0       -5.462430    6.413124    2.333553
     82          1           0      -10.050038    3.049806   -3.564441
     83          1           0       -9.866704    4.753242   -3.120246
     84          1           0       -9.375014    4.089570   -5.475274
     85          1           0       -7.994583    4.757103   -4.671899
     86          1           0       -8.106490    3.205728   -4.776207
     87          1           0       -8.041055   -1.448353   -4.956366
     88          1           0       -8.730384   -2.821708   -3.764565
     89          1           0       -9.595958   -1.432982   -3.599918
     90          1           0       -3.890645   -3.714075   -1.283112
     91          1           0        2.592084   -6.186511    0.882630
     92          1           0        2.250813   -5.078072   -0.500779
     93          1           0        3.897256   -4.367982    1.968806
     94          1           0        2.633041   -3.515081   -1.618801
     95          1           0        3.863073   -2.098110   -1.693498
     96          1           0        4.366293   -3.585031   -1.633513
     97          1           0        4.894002   -1.267448    0.703530
     98          1           0        5.383984   -2.355891    1.894987
     99          1           0        6.880280   -3.742290    0.237781
    100          1           0        6.553793   -2.769344   -1.110727
    101          1           0        7.343559   -0.862436    0.530747
    102          1           0        7.477468   -1.936865    1.667665
    103          1           0        9.144693   -2.045781   -1.204643
    104          1           0        9.045865   -4.219721    0.024479
    105          1           0       10.598257   -3.561008   -0.084274
    106          1           0        9.729550   -3.573331    1.382551
    107          1           0        9.412008    0.197765    0.338817
    108          1           0       10.028490   -0.735574    1.476967
    109          1           0       11.827765   -1.630448   -0.039222
    110          1           0       11.000914   -0.832514   -1.311271
    111          1           0       11.345482    1.187650    0.134493
    112          1           0       12.414943    0.161999    1.323552
    113          1           0       13.209409    0.702348   -1.715243
    114          1           0       14.334825   -0.861404    0.811089
    115          1           0       13.829975   -1.537983   -0.660682
    116          1           0       15.141017   -0.599103   -0.894546
    117          1           0       13.369990    2.832025   -0.222224
    118          1           0       14.572941    1.720433    0.635832
    119          1           0       16.230057    1.494716   -0.967260
    120          1           0       15.230935    2.194857   -2.202944
    121          1           0       15.080384    4.261079   -1.037477
    122          1           0       16.007274    3.467980    0.495526
    123          1           0       18.035350    3.181584   -1.154607
    124          1           0       16.187651    4.915655   -3.020749
    125          1           0       17.972741    4.520130   -3.426141
    126          1           0       16.748131    3.150217   -3.383085
    127          1           0       17.902010    5.209481    0.446679
    128          1           0       19.071188    5.274564   -1.034213
    129          1           0       17.516592    6.094990   -1.082826
    130          1           0       -4.896933   -7.858269   -0.130128
    131          1           0       -6.005969   -6.923569    0.565707
    132          1           0       -4.456585   -6.739391    1.349567
    133          8           0       -7.857904    6.829448   -0.494537
    134          1           0       -9.112307    6.170513   -1.992712
 ---------------------------------------------------------------------

 SCF Done:  E(RCAM-B3LYP) =  -3043.45031016     A.U. after   15 cycles

 Excitation energies and oscillator strengths:

 Excited State   1:      Singlet-A      1.9941 eV  621.75 nm  f=0.2212  <S**2>=0.000
     243 -> 246        0.24420
     244 -> 245        0.65904
 This state for optimization and/or second-order correction.
 Total Energy, E(TD-HF/TD-KS) =  -3043.37702715
 Copying the excited state density for this state as the 1-particle RhoCI density.

 The electronic state is 1-A.
 Alpha  occ. eigenvalues --  -46.81029 -19.23283 -19.23277 -19.18372 -19.18287
 Alpha  occ. eigenvalues --  -19.17046 -19.16577 -19.15447 -14.39183 -14.36724
 Alpha  occ. eigenvalues --  -14.36632 -14.36252 -10.35470 -10.34803 -10.32135
 Alpha  occ. eigenvalues --  -10.30932 -10.28261 -10.27957 -10.27226 -10.27078
 Alpha  occ. eigenvalues --  -10.26956 -10.26809 -10.26221 -10.26096 -10.25915
 Alpha  occ. eigenvalues --  -10.25452 -10.25217 -10.25109 -10.24795 -10.24746
 Alpha  occ. eigenvalues --  -10.24695 -10.24523 -10.24358 -10.24287 -10.24219
 Alpha  occ. eigenvalues --  -10.24145 -10.23951 -10.23792 -10.23501 -10.23333
 Alpha  occ. eigenvalues --  -10.23078 -10.22853 -10.22766 -10.22608 -10.22331
 Alpha  occ. eigenvalues --  -10.22052 -10.21987 -10.21971 -10.21838 -10.21711
 Alpha  occ. eigenvalues --  -10.21691 -10.21686 -10.21614 -10.21191 -10.21143
 Alpha  occ. eigenvalues --  -10.20948 -10.20837 -10.20789 -10.20772 -10.20722
 Alpha  occ. eigenvalues --  -10.20349 -10.20225 -10.20195 -10.20076 -10.19760
 Alpha  occ. eigenvalues --  -10.19678  -3.09697  -1.84630  -1.84187  -1.84095
 Alpha  occ. eigenvalues --   -1.16465  -1.14805  -1.11460  -1.09994  -1.06685
 Alpha  occ. eigenvalues --   -1.04334  -1.03522  -1.00977  -0.99856  -0.99223
 Alpha  occ. eigenvalues --   -0.98239  -0.87772  -0.87426  -0.86668  -0.86105
 Alpha  occ. eigenvalues --   -0.86013  -0.84819  -0.84672  -0.83828  -0.83636
 Alpha  occ. eigenvalues --   -0.82959  -0.82380  -0.81810  -0.81008  -0.80424
 Alpha  occ. eigenvalues --   -0.79665  -0.79183  -0.78331  -0.77831  -0.77040
 Alpha  occ. eigenvalues --   -0.76472  -0.75441  -0.74243  -0.73277  -0.72633
 Alpha  occ. eigenvalues --   -0.71870  -0.71570  -0.70913  -0.70323  -0.70025
 Alpha  occ. eigenvalues --   -0.69655  -0.68891  -0.68159  -0.67281  -0.65951
 Alpha  occ. eigenvalues --   -0.65671  -0.64998  -0.64094  -0.63034  -0.62118
 Alpha  occ. eigenvalues --   -0.61485  -0.61155  -0.60646  -0.59863  -0.59519
 Alpha  occ. eigenvalues --   -0.59267  -0.58527  -0.58147  -0.57436  -0.56939
 Alpha  occ. eigenvalues --   -0.56395  -0.56148  -0.55956  -0.55293  -0.54536
 Alpha  occ. eigenvalues --   -0.54205  -0.53562  -0.53427  -0.53141  -0.52438
 Alpha  occ. eigenvalues --   -0.52297  -0.51954  -0.51804  -0.51663  -0.51316
 Alpha  occ. eigenvalues --   -0.50749  -0.50359  -0.50126  -0.49834  -0.49725
 Alpha  occ. eigenvalues --   -0.49426  -0.48593  -0.48531  -0.48494  -0.48305
 Alpha  occ. eigenvalues --   -0.47948  -0.47797  -0.47635  -0.47357  -0.47286
 Alpha  occ. eigenvalues --   -0.46994  -0.46861  -0.46642  -0.46481  -0.46191
 Alpha  occ. eigenvalues --   -0.45828  -0.45467  -0.45354  -0.45235  -0.45194
 Alpha  occ. eigenvalues --   -0.45011  -0.44498  -0.44349  -0.44232  -0.44067
 Alpha  occ. eigenvalues --   -0.43634  -0.43470  -0.43415  -0.43230  -0.43100
 Alpha  occ. eigenvalues --   -0.42837  -0.42656  -0.42632  -0.42351  -0.42191
 Alpha  occ. eigenvalues --   -0.42131  -0.41884  -0.41585  -0.41335  -0.41270
 Alpha  occ. eigenvalues --   -0.41137  -0.40802  -0.40473  -0.40274  -0.40253
 Alpha  occ. eigenvalues --   -0.39937  -0.39585  -0.39554  -0.39464  -0.39331
 Alpha  occ. eigenvalues --   -0.39098  -0.39074  -0.38936  -0.38819  -0.38568
 Alpha  occ. eigenvalues --   -0.38384  -0.38075  -0.37830  -0.37793  -0.37343
 Alpha  occ. eigenvalues --   -0.37281  -0.36564  -0.36438  -0.35987  -0.35794
 Alpha  occ. eigenvalues --   -0.35493  -0.34995  -0.34708  -0.34684  -0.34504
 Alpha  occ. eigenvalues --   -0.34485  -0.34043  -0.33938  -0.33664  -0.33189
 Alpha  occ. eigenvalues --   -0.32761  -0.32487  -0.31814  -0.31760  -0.31634
 Alpha  occ. eigenvalues --   -0.31497  -0.31376  -0.30972  -0.30077  -0.29523
 Alpha  occ. eigenvalues --   -0.29075  -0.28766  -0.28038  -0.27701  -0.27386
 Alpha  occ. eigenvalues --   -0.26577  -0.26161  -0.22634  -0.20818
 Alpha virt. eigenvalues --   -0.08048  -0.05414  -0.00870   0.00447   0.00977
 Alpha virt. eigenvalues --    0.02655   0.03130   0.04196   0.04531   0.04671
 Alpha virt. eigenvalues --    0.05478   0.06369   0.08300   0.08629   0.09460

 Mulliken charges:
               1
     1  Mg   0.835246
     2  C    0.021745
     3  C   -0.145003
     4  C   -0.194033
     5  C   -0.184357
     6  N   -0.635891
     7  C    0.331779
     8  C   -0.153842
     9  C   -0.140393
    10  C    0.335589
    11  C   -0.319576
    12  C   -0.160751
    13  C   -0.261227
    14  C    0.575774
    15  O   -0.488812
    16  O   -0.416069
    17  N   -0.737020
    18  C    0.245894
    19  C    0.082598
    20  C   -0.037586
    21  C    0.385906
    22  C   -0.372726
    23  C    0.219013
    24  O   -0.447881
    25  N   -0.674519
    26  C    0.337129
    27  C   -0.084245
    28  C    0.060777
    29  C    0.237832
    30  C    0.276362
    31  C   -0.229533
    32  C   -0.323443
    33  N   -0.713513
    34  C    0.290209
    35  C   -0.049644
    36  C    0.055774
    37  C    0.297233
    38  C   -0.374351
    39  C    0.374952
    40  O   -0.382419
    41  C   -0.303109
    42  C    0.587678
    43  O   -0.470650
    44  O   -0.413083
    45  C   -0.088067
    46  C   -0.011031
    47  C   -0.144921
    48  C    0.142298
    49  C   -0.380223
    50  C   -0.234686
    51  C   -0.177664
    52  C   -0.178002
    53  C   -0.039798
    54  C   -0.314361
    55  C   -0.186042
    56  C   -0.168042
    57  C   -0.139292
    58  C   -0.052487
    59  C   -0.317747
    60  C   -0.124816
    61  C   -0.198634
    62  C   -0.137816
    63  C   -0.041287
    64  C   -0.310482
    65  C   -0.301786
    66  H    0.053355
    67  H    0.132253
    68  H    0.088213
    69  H    0.114133
    70  H    0.100009
    71  H    0.110297
    72  H    0.113714
    73  H    0.138742
    74  H    0.132212
    75  H    0.089851
    76  H    0.137540
    77  H    0.120689
    78  H    0.136941
    79  H    0.165809
    80  H    0.115009
    81  H    0.049840
    82  H    0.121577
    83  H    0.109685
    84  H    0.111759
    85  H    0.117319
    86  H    0.126845
    87  H    0.116926
    88  H    0.137940
    89  H    0.102403
    90  H    0.151462
    91  H    0.114077
    92  H    0.116931
    93  H    0.082519
    94  H    0.158923
    95  H    0.091820
    96  H    0.143564
    97  H    0.104198
    98  H    0.081053
    99  H    0.105436
   100  H    0.105961
   101  H    0.100696
   102  H    0.082997
   103  H    0.063030
   104  H    0.093877
   105  H    0.111165
   106  H    0.085911
   107  H    0.072820
   108  H    0.084351
   109  H    0.091736
   110  H    0.077711
   111  H    0.084524
   112  H    0.070670
   113  H    0.078691
   114  H    0.071241
   115  H    0.117011
   116  H    0.113540
   117  H    0.052557
   118  H    0.103002
   119  H    0.063659
   120  H    0.069002
   121  H    0.079775
   122  H    0.081998
   123  H    0.067331
   124  H    0.084741
   125  H    0.103021
   126  H    0.113240
   127  H    0.088995
   128  H    0.083398
   129  H    0.117291
   130  H    0.127597
   131  H    0.139468
   132  H    0.127022
   133  O   -0.385997
   134  H    0.052000
 Sum of Mulliken charges =   0.00000

 Dipole moment (field-independent basis, Debye):
    X=              3.0300    Y=             -6.9467    Z=             -1.7577  Tot=              7.7799
 Quadrupole moment (field-independent basis, Debye-Ang):
   XX=           -378.0450   YY=           -430.3648   ZZ=           -394.8146
   XY=             12.7593   XZ=             26.8776   YZ=            -39.5195

 Normal termination of Gaussian 09 at Thu Oct  3 13:46:37 2019.
