 Gaussian 09, Revision D.01,
 Gaussian 09:  ES64L-G09RevD.01 24-Apr-2013

 ----------------------------------------------------------------------
 # td=(NStates=1) iop(3/107=0140000000,3/108=0140000000) iop(3/107=0140
 000000,3/108=0140000000) CAM-B3LYP/6-31G(d,p)
 ----------------------------------------------------------------------

 --
 TD
 --
 Symbolic Z-matrix:
 Charge =  0 Multiplicity = 1

                         Standard orientation:
 ---------------------------------------------------------------------
 Center     Atomic      Atomic             Coordinates (Angstroms)
 Number     Number       Type             X           Y           Z
 ---------------------------------------------------------------------
      1         12           0       -5.658269    1.290068    0.157539
      2          6           0       -5.147212   -2.143560   -0.295631
      3          6           0       -3.526717    1.184844    2.838421
      4          6           0       -6.373188    4.510041    0.690871
      5          6           0       -8.191747    1.077368   -2.359052
      6          7           0       -4.302114   -0.297578    1.117646
      7          6           0       -4.266417   -1.547658    0.676400
      8          6           0       -3.199484   -2.313289    1.454437
      9          6           0       -2.832037   -1.279390    2.532151
     10          6           0       -3.595655   -0.065727    2.209842
     11          6           0       -3.443388   -1.703354    3.896113
     12          6           0       -2.012964   -2.618973    0.508573
     13          6           0       -0.893156   -3.500936    1.239739
     14          6           0        0.352961   -3.711951    0.455109
     15          8           0        0.662846   -3.178641   -0.527421
     16          8           0        1.112467   -4.559068    1.140015
     17          7           0       -5.092723    2.588381    1.452460
     18          6           0       -4.083701    2.400219    2.436659
     19          6           0       -3.811353    3.686601    3.101508
     20          6           0       -4.723623    4.578462    2.523559
     21          6           0       -5.460221    3.957072    1.556885
     22          6           0       -2.850226    3.845837    4.307451
     23          6           0       -4.694259    6.036392    2.839618
     24          8           0       -4.081498    6.506411    3.790041
     25          7           0       -7.016192    2.632761   -0.774421
     26          6           0       -7.133694    3.902787   -0.354344
     27          6           0       -8.064950    4.492194   -1.260451
     28          6           0       -8.554705    3.532112   -2.192643
     29          6           0       -7.872529    2.324259   -1.740513
     30          6           0       -8.508866    5.899263   -1.166597
     31          6           0       -9.582219    3.669097   -3.236789
     32          6           0       -8.802372    3.830336   -4.557809
     33          7           0       -6.473151   -0.143946   -1.077924
     34          6           0       -7.500991   -0.077538   -1.985807
     35          6           0       -7.748204   -1.392232   -2.563753
     36          6           0       -6.785561   -2.286827   -1.945239
     37          6           0       -6.105261   -1.491205   -1.005660
     38          6           0       -8.745519   -1.749387   -3.626681
     39          6           0       -6.328825   -3.567401   -1.860545
     40          8           0       -6.591133   -4.540563   -2.600441
     41          6           0       -5.113119   -3.549300   -0.917553
     42          6           0       -5.224931   -4.663372    0.153220
     43          8           0       -5.685355   -4.484470    1.254535
     44          8           0       -4.874918   -5.838631   -0.388820
     45          6           0       -5.177294   -6.939465    0.527589
     46          6           0        2.432147   -4.988971    0.643122
     47          6           0        3.601597   -4.068415    0.890896
     48          6           0        4.142987   -3.166697    0.108688
     49          6           0        3.886669   -3.033862   -1.326019
     50          6           0        5.316736   -2.329351    0.705905
     51          6           0        6.751773   -2.663395    0.190602
     52          6           0        7.756692   -1.751694    0.779958
     53          6           0        9.135180   -1.950960    0.175128
     54          6           0        9.706534   -3.328065    0.329641
     55          6           0       10.091878   -0.852734    0.649708
     56          6           0       11.348346   -0.831278   -0.244529
     57          6           0       12.373285    0.270136    0.092719
     58          6           0       13.576144    0.521884   -0.656438
     59          6           0       14.468517   -0.836736   -0.413076
     60          6           0       14.315793    1.688979   -0.187161
     61          6           0       15.660345    2.120851   -0.977455
     62          6           0       16.095083    3.523738   -0.691538
     63          6           0       17.447773    3.914336   -1.398114
     64          6           0       17.109339    4.121173   -2.957603
     65          6           0       18.119519    5.188091   -0.851228
     66          1           0       -2.623357    1.273121    3.390936
     67          1           0       -6.641903    5.504072    0.618276
     68          1           0       -8.931991    0.952466   -3.156656
     69          1           0       -3.641204   -3.118869    2.022749
     70          1           0       -1.669438   -1.215882    2.748049
     71          1           0       -2.957732   -2.596607    4.245486
     72          1           0       -3.151900   -0.884628    4.593042
     73          1           0       -4.466784   -1.969003    3.807410
     74          1           0       -2.274953   -3.048825   -0.316968
     75          1           0       -1.431463   -1.573533    0.198357
     76          1           0       -0.670576   -3.035828    2.354247
     77          1           0       -1.414129   -4.449293    1.500142
     78          1           0       -1.902766    3.331786    4.182505
     79          1           0       -2.559492    4.999819    4.465704
     80          1           0       -3.513852    3.534674    5.173549
     81          1           0       -5.244244    6.827157    2.189495
     82          1           0      -10.134966    2.862199   -3.323309
     83          1           0      -10.153558    4.502998   -3.236167
     84          1           0       -9.344443    3.828114   -5.505307
     85          1           0       -8.074726    4.726862   -4.676599
     86          1           0       -8.046131    2.914939   -4.733307
     87          1           0       -8.572224   -0.938389   -4.422476
     88          1           0       -8.407426   -2.792347   -4.078821
     89          1           0       -9.743107   -2.021119   -3.028192
     90          1           0       -4.169311   -3.687493   -1.440407
     91          1           0        2.574563   -5.863910    1.148413
     92          1           0        2.235739   -5.120654   -0.484918
     93          1           0        4.111343   -4.050745    2.030950
     94          1           0        2.759582   -3.344428   -1.551777
     95          1           0        3.849611   -2.022389   -1.651465
     96          1           0        4.628617   -3.507936   -1.914102
     97          1           0        5.158713   -1.208377    0.368980
     98          1           0        5.290808   -2.222323    1.877919
     99          1           0        6.787512   -3.826050    0.366152
    100          1           0        6.850141   -2.654529   -1.030233
    101          1           0        7.477376   -0.634565    0.809068
    102          1           0        7.805797   -2.052874    1.815617
    103          1           0        8.718163   -1.848027   -0.782816
    104          1           0        8.863542   -4.152687    0.125750
    105          1           0       10.562945   -3.557436   -0.406477
    106          1           0        9.968838   -3.748747    1.330693
    107          1           0        9.469293    0.058292    0.599999
    108          1           0       10.411005   -1.124044    1.739722
    109          1           0       12.032804   -1.766235   -0.209464
    110          1           0       11.137407   -0.645422   -1.286122
    111          1           0       11.969591    1.319737    0.072273
    112          1           0       12.762063    0.257305    1.138744
    113          1           0       13.332324    0.562803   -1.766438
    114          1           0       14.842356   -0.980865    0.624565
    115          1           0       13.972543   -1.587889   -0.767628
    116          1           0       15.351944   -0.928916   -1.119340
    117          1           0       13.697982    2.528544   -0.174372
    118          1           0       14.672603    1.435604    0.812218
    119          1           0       16.349553    1.284035   -0.877420
    120          1           0       15.291906    2.043287   -1.991889
    121          1           0       15.305422    4.097047   -1.080847
    122          1           0       16.147708    3.810888    0.303974
    123          1           0       18.007382    3.151238   -1.289159
    124          1           0       16.522498    5.130518   -3.051644
    125          1           0       17.989616    4.395968   -3.692514
    126          1           0       16.689419    3.292195   -3.370184
    127          1           0       18.186409    5.133773    0.113480
    128          1           0       18.909582    5.269885   -1.338914
    129          1           0       17.299463    5.906285   -0.908674
    130          1           0       -5.312085   -8.015470   -0.167394
    131          1           0       -6.332040   -6.781811    0.968472
    132          1           0       -4.448248   -7.099031    1.332853
    133          8           0       -7.898768    6.700627   -0.380550
    134          1           0       -9.230208    6.124013   -1.905179
 ---------------------------------------------------------------------

 SCF Done:  E(RCAM-B3LYP) =  -3043.46288919     A.U. after   16 cycles

 Excitation energies and oscillator strengths:

 Excited State   1:      Singlet-A      2.0384 eV  608.24 nm  f=0.1145  <S**2>=0.000
     243 -> 246       -0.33489
     244 -> 245        0.60907
 This state for optimization and/or second-order correction.
 Total Energy, E(TD-HF/TD-KS) =  -3043.38797953
 Copying the excited state density for this state as the 1-particle RhoCI density.

 The electronic state is 1-A.
 Alpha  occ. eigenvalues --  -46.81450 -19.24014 -19.21354 -19.17758 -19.17402
 Alpha  occ. eigenvalues --  -19.16972 -19.16817 -19.15763 -14.38572 -14.36559
 Alpha  occ. eigenvalues --  -14.36449 -14.36144 -10.35422 -10.34443 -10.30602
 Alpha  occ. eigenvalues --  -10.30477 -10.30179 -10.30039 -10.27982 -10.27868
 Alpha  occ. eigenvalues --  -10.27241 -10.27025 -10.26189 -10.26103 -10.25949
 Alpha  occ. eigenvalues --  -10.25906 -10.25593 -10.25417 -10.25124 -10.25034
 Alpha  occ. eigenvalues --  -10.24916 -10.24849 -10.24824 -10.24390 -10.24333
 Alpha  occ. eigenvalues --  -10.23903 -10.23768 -10.23737 -10.23515 -10.23472
 Alpha  occ. eigenvalues --  -10.23357 -10.23195 -10.23125 -10.22907 -10.22563
 Alpha  occ. eigenvalues --  -10.22532 -10.22489 -10.22406 -10.22322 -10.22101
 Alpha  occ. eigenvalues --  -10.21734 -10.21673 -10.21635 -10.21591 -10.21233
 Alpha  occ. eigenvalues --  -10.21225 -10.20871 -10.20603 -10.20470 -10.20169
 Alpha  occ. eigenvalues --  -10.20090 -10.19757 -10.19540 -10.19235 -10.19098
 Alpha  occ. eigenvalues --  -10.16931  -3.09990  -1.84922  -1.84466  -1.84393
 Alpha  occ. eigenvalues --   -1.14756  -1.14407  -1.06348  -1.06165  -1.05770
 Alpha  occ. eigenvalues --   -1.04514  -1.03685  -1.02033  -1.00585  -0.98830
 Alpha  occ. eigenvalues --   -0.97743  -0.89637  -0.86807  -0.86043  -0.86009
 Alpha  occ. eigenvalues --   -0.85605  -0.85089  -0.84904  -0.83665  -0.83409
 Alpha  occ. eigenvalues --   -0.82974  -0.82181  -0.81576  -0.80404  -0.79727
 Alpha  occ. eigenvalues --   -0.78985  -0.78295  -0.77827  -0.77136  -0.76815
 Alpha  occ. eigenvalues --   -0.75201  -0.74903  -0.73939  -0.72382  -0.71864
 Alpha  occ. eigenvalues --   -0.71663  -0.71292  -0.70891  -0.70104  -0.69569
 Alpha  occ. eigenvalues --   -0.69421  -0.68545  -0.67992  -0.67072  -0.66953
 Alpha  occ. eigenvalues --   -0.65627  -0.65438  -0.64342  -0.62454  -0.62308
 Alpha  occ. eigenvalues --   -0.61755  -0.61430  -0.60727  -0.60291  -0.59560
 Alpha  occ. eigenvalues --   -0.59502  -0.58723  -0.58496  -0.57732  -0.57017
 Alpha  occ. eigenvalues --   -0.56517  -0.55653  -0.55055  -0.54732  -0.54501
 Alpha  occ. eigenvalues --   -0.54158  -0.53949  -0.53380  -0.52524  -0.52363
 Alpha  occ. eigenvalues --   -0.51823  -0.51685  -0.51329  -0.51238  -0.50870
 Alpha  occ. eigenvalues --   -0.50681  -0.50096  -0.49822  -0.49547  -0.49509
 Alpha  occ. eigenvalues --   -0.48981  -0.48966  -0.48447  -0.48265  -0.47977
 Alpha  occ. eigenvalues --   -0.47755  -0.47623  -0.47455  -0.47423  -0.47241
 Alpha  occ. eigenvalues --   -0.46916  -0.46846  -0.46470  -0.45973  -0.45864
 Alpha  occ. eigenvalues --   -0.45698  -0.45561  -0.45110  -0.45056  -0.44959
 Alpha  occ. eigenvalues --   -0.44759  -0.44664  -0.43777  -0.43686  -0.43592
 Alpha  occ. eigenvalues --   -0.43403  -0.43362  -0.43264  -0.42749  -0.42723
 Alpha  occ. eigenvalues --   -0.42629  -0.42215  -0.41943  -0.41690  -0.41507
 Alpha  occ. eigenvalues --   -0.41388  -0.41228  -0.40887  -0.40724  -0.40570
 Alpha  occ. eigenvalues --   -0.40201  -0.40092  -0.40062  -0.40012  -0.39759
 Alpha  occ. eigenvalues --   -0.39648  -0.39380  -0.39204  -0.39157  -0.39113
 Alpha  occ. eigenvalues --   -0.39018  -0.38712  -0.38566  -0.38299  -0.38132
 Alpha  occ. eigenvalues --   -0.37853  -0.37554  -0.37407  -0.37229  -0.37073
 Alpha  occ. eigenvalues --   -0.36963  -0.36645  -0.36556  -0.36129  -0.36066
 Alpha  occ. eigenvalues --   -0.35683  -0.35291  -0.35161  -0.34811  -0.34799
 Alpha  occ. eigenvalues --   -0.34441  -0.34126  -0.33762  -0.33411  -0.33145
 Alpha  occ. eigenvalues --   -0.32988  -0.32861  -0.32185  -0.31953  -0.31397
 Alpha  occ. eigenvalues --   -0.31319  -0.31195  -0.30976  -0.30765  -0.29643
 Alpha  occ. eigenvalues --   -0.28211  -0.28174  -0.27771  -0.27518  -0.27335
 Alpha  occ. eigenvalues --   -0.27221  -0.27041  -0.22725  -0.21680
 Alpha virt. eigenvalues --   -0.08333  -0.06973  -0.02635  -0.00923   0.00764
 Alpha virt. eigenvalues --    0.03050   0.03167   0.03390   0.04172   0.04728
 Alpha virt. eigenvalues --    0.05334   0.05593   0.08333   0.08851   0.09340

 Mulliken charges:
               1
     1  Mg   0.842621
     2  C    0.111634
     3  C   -0.170107
     4  C   -0.148174
     5  C   -0.152465
     6  N   -0.601698
     7  C    0.271897
     8  C   -0.141709
     9  C   -0.190695
    10  C    0.359710
    11  C   -0.321246
    12  C   -0.156393
    13  C   -0.275762
    14  C    0.604793
    15  O   -0.435992
    16  O   -0.470102
    17  N   -0.761547
    18  C    0.292543
    19  C    0.026512
    20  C   -0.017625
    21  C    0.343096
    22  C   -0.369823
    23  C    0.236043
    24  O   -0.412164
    25  N   -0.708378
    26  C    0.305695
    27  C   -0.092783
    28  C    0.033186
    29  C    0.303235
    30  C    0.258604
    31  C   -0.210976
    32  C   -0.335993
    33  N   -0.743773
    34  C    0.327776
    35  C   -0.013110
    36  C    0.117648
    37  C    0.253780
    38  C   -0.383382
    39  C    0.310536
    40  O   -0.489542
    41  C   -0.330543
    42  C    0.619586
    43  O   -0.465855
    44  O   -0.425470
    45  C   -0.091135
    46  C    0.018565
    47  C   -0.127827
    48  C    0.158404
    49  C   -0.390845
    50  C   -0.229486
    51  C   -0.165334
    52  C   -0.174994
    53  C   -0.033329
    54  C   -0.318808
    55  C   -0.157580
    56  C   -0.176334
    57  C   -0.148862
    58  C   -0.063736
    59  C   -0.325172
    60  C   -0.168544
    61  C   -0.198769
    62  C   -0.174838
    63  C   -0.064252
    64  C   -0.315413
    65  C   -0.287914
    66  H    0.087235
    67  H    0.124083
    68  H    0.102277
    69  H    0.133503
    70  H    0.097552
    71  H    0.105726
    72  H    0.113684
    73  H    0.135957
    74  H    0.117551
    75  H    0.099769
    76  H    0.115643
    77  H    0.131415
    78  H    0.118319
    79  H    0.149583
    80  H    0.139910
    81  H    0.089873
    82  H    0.123085
    83  H    0.125070
    84  H    0.110884
    85  H    0.113224
    86  H    0.089695
    87  H    0.125997
    88  H    0.148627
    89  H    0.138041
    90  H    0.162523
    91  H    0.122717
    92  H    0.112121
    93  H    0.057137
    94  H    0.131757
    95  H    0.120015
    96  H    0.128785
    97  H    0.079630
    98  H    0.090815
    99  H    0.096791
   100  H    0.066457
   101  H    0.088061
   102  H    0.095934
   103  H    0.092311
   104  H    0.076750
   105  H    0.102710
   106  H    0.102352
   107  H    0.090165
   108  H    0.087739
   109  H    0.093690
   110  H    0.097268
   111  H    0.063008
   112  H    0.074581
   113  H    0.064155
   114  H    0.099040
   115  H    0.110033
   116  H    0.078069
   117  H    0.086419
   118  H    0.089235
   119  H    0.094141
   120  H    0.096724
   121  H    0.097028
   122  H    0.089316
   123  H    0.094811
   124  H    0.086843
   125  H    0.072646
   126  H    0.114811
   127  H    0.104367
   128  H    0.108096
   129  H    0.093561
   130  H    0.102701
   131  H    0.126972
   132  H    0.139719
   133  O   -0.459203
   134  H    0.083110
 Sum of Mulliken charges =   0.00000

 Dipole moment (field-independent basis, Debye):
    X=              1.6245    Y=             -4.5733    Z=             -1.0623  Tot=              4.9682
 Quadrupole moment (field-independent basis, Debye-Ang):
   XX=           -378.8603   YY=           -436.4192   ZZ=           -396.0293
   XY=              1.4112   XZ=             29.4404   YZ=            -35.7133

 Normal termination of Gaussian 09 at Tue Oct  8 07:31:17 2019.
