 Gaussian 09, Revision D.01,
 Gaussian 09:  ES64L-G09RevD.01 24-Apr-2013

 ----------------------------------------------------------------------
 # td=(NStates=1) iop(3/107=0140000000,3/108=0140000000) iop(3/107=0140
 000000,3/108=0140000000) CAM-B3LYP/6-31G(d,p)
 ----------------------------------------------------------------------

 --
 TD
 --
 Symbolic Z-matrix:
 Charge =  0 Multiplicity = 1

                         Standard orientation:
 ---------------------------------------------------------------------
 Center     Atomic      Atomic             Coordinates (Angstroms)
 Number     Number       Type             X           Y           Z
 ---------------------------------------------------------------------
      1         12           0       -5.590306    1.299656    0.126619
      2          6           0       -4.921344   -2.229580   -0.451732
      3          6           0       -3.412769    1.194958    2.704493
      4          6           0       -6.224004    4.605217    0.716992
      5          6           0       -7.923991    1.124541   -2.341167
      6          7           0       -4.287948   -0.316766    0.986071
      7          6           0       -4.130615   -1.570178    0.597516
      8          6           0       -3.160475   -2.268752    1.472475
      9          6           0       -2.805488   -1.266965    2.535994
     10          6           0       -3.475652    0.046331    2.013986
     11          6           0       -3.220704   -1.669645    4.063911
     12          6           0       -1.918818   -2.732799    0.618176
     13          6           0       -0.884141   -3.529152    1.532505
     14          6           0        0.252364   -4.010778    0.611503
     15          8           0        0.526223   -3.705992   -0.531531
     16          8           0        1.055525   -4.816132    1.318908
     17          7           0       -4.939298    2.628292    1.443376
     18          6           0       -3.982814    2.423201    2.384835
     19          6           0       -3.676366    3.657859    3.076473
     20          6           0       -4.391407    4.548272    2.507589
     21          6           0       -5.271039    3.976926    1.522917
     22          6           0       -2.805834    3.815267    4.389704
     23          6           0       -4.648377    5.950866    2.980615
     24          8           0       -4.009016    6.516858    3.878472
     25          7           0       -6.892932    2.562572   -0.622105
     26          6           0       -6.908636    3.943594   -0.346227
     27          6           0       -7.850666    4.550121   -1.177217
     28          6           0       -8.511948    3.648728   -2.036690
     29          6           0       -7.811587    2.368432   -1.710085
     30          6           0       -8.344915    6.053282   -1.126313
     31          6           0       -9.376097    3.930063   -3.141979
     32          6           0       -8.790001    4.103116   -4.512601
     33          7           0       -6.340406   -0.199322   -1.197753
     34          6           0       -7.287898   -0.082555   -2.141988
     35          6           0       -7.438995   -1.390100   -2.753773
     36          6           0       -6.738490   -2.225028   -2.046578
     37          6           0       -6.019736   -1.420611   -1.072373
     38          6           0       -8.480986   -1.626876   -3.821067
     39          6           0       -6.250577   -3.589112   -2.087798
     40          8           0       -6.772873   -4.549137   -2.616754
     41          6           0       -5.045521   -3.608041   -0.981023
     42          6           0       -5.210397   -4.700859    0.144180
     43          8           0       -5.627789   -4.426792    1.309469
     44          8           0       -5.172826   -5.960549   -0.396431
     45          6           0       -5.426263   -7.047983    0.549284
     46          6           0        2.319007   -5.059297    0.851161
     47          6           0        3.524165   -4.099537    1.068635
     48          6           0        4.033666   -3.245631    0.211356
     49          6           0        3.630539   -3.101735   -1.252564
     50          6           0        5.036373   -2.290550    0.653384
     51          6           0        6.390849   -2.425635    0.000172
     52          6           0        7.518371   -1.664224    0.658589
     53          6           0        8.921212   -1.843834   -0.001361
     54          6           0        9.446175   -3.266607    0.180304
     55          6           0        9.912270   -0.777995    0.458305
     56          6           0       11.245966   -0.798512   -0.287874
     57          6           0       12.159561    0.288879    0.231793
     58          6           0       13.481133    0.451672   -0.582027
     59          6           0       14.340107   -0.802207   -0.419156
     60          6           0       14.229236    1.618710   -0.136382
     61          6           0       15.510468    2.089092   -0.934017
     62          6           0       16.088383    3.517514   -0.602889
     63          6           0       17.367208    3.804059   -1.435306
     64          6           0       17.164012    3.841803   -2.972118
     65          6           0       17.883514    5.179502   -0.914069
     66          1           0       -2.651959    1.070614    3.488854
     67          1           0       -6.317289    5.598314    0.944010
     68          1           0       -8.715028    1.179777   -3.049553
     69          1           0       -3.666140   -3.141432    1.825139
     70          1           0       -1.707238   -1.072597    2.663686
     71          1           0       -2.819559   -2.435467    4.439018
     72          1           0       -3.013960   -0.654919    4.861455
     73          1           0       -4.248909   -1.881563    4.141212
     74          1           0       -2.312327   -3.148650   -0.170549
     75          1           0       -1.505939   -1.841606    0.325371
     76          1           0       -0.591693   -2.880662    2.251939
     77          1           0       -1.399124   -4.574188    1.800624
     78          1           0       -1.722111    3.632753    4.069369
     79          1           0       -2.880210    4.814638    4.853827
     80          1           0       -3.003519    3.113466    4.960593
     81          1           0       -5.376634    6.520821    2.485969
     82          1           0      -10.063624    2.944375   -3.010828
     83          1           0      -10.182221    4.731392   -2.796391
     84          1           0       -9.593787    4.206924   -5.362337
     85          1           0       -8.145639    4.873473   -4.404349
     86          1           0       -8.185009    3.218999   -4.909026
     87          1           0       -8.285086   -1.082257   -4.852174
     88          1           0       -8.401737   -2.589168   -4.042551
     89          1           0       -9.453490   -1.470705   -3.461048
     90          1           0       -4.074589   -3.970503   -1.435763
     91          1           0        2.526871   -5.882584    1.320929
     92          1           0        2.269847   -5.207780   -0.282946
     93          1           0        3.564765   -3.883782    2.186178
     94          1           0        2.730944   -3.580688   -1.774037
     95          1           0        3.433907   -1.995031   -1.410881
     96          1           0        4.590415   -3.470995   -1.959416
     97          1           0        4.614384   -1.275811    0.516916
     98          1           0        5.184147   -2.150846    1.707701
     99          1           0        6.311104   -3.605466    0.100769
    100          1           0        6.136131   -2.137792   -0.981957
    101          1           0        7.310963   -0.572203    0.703973
    102          1           0        7.562415   -1.903465    1.599270
    103          1           0        8.735186   -1.680099   -1.099187
    104          1           0        8.807176   -4.089146   -0.280997
    105          1           0       10.474497   -3.614022   -0.271751
    106          1           0        9.338261   -3.693213    1.206568
    107          1           0        9.595479    0.329764    0.274498
    108          1           0        9.909390   -0.954015    1.637218
    109          1           0       11.701047   -1.799750   -0.371383
    110          1           0       11.052185   -0.534518   -1.430968
    111          1           0       11.820884    1.305038   -0.008173
    112          1           0       12.395151    0.250618    1.224341
    113          1           0       13.280031    0.542038   -1.664874
    114          1           0       14.342846   -0.838696    0.704757
    115          1           0       13.777877   -1.664694   -0.698546
    116          1           0       15.392539   -0.956466   -0.938420
    117          1           0       13.692970    2.531456   -0.039756
    118          1           0       14.627340    1.477804    0.999304
    119          1           0       16.295950    1.166783   -0.748363
    120          1           0       15.160071    2.126114   -2.046090
    121          1           0       15.344091    4.445688   -0.982425
    122          1           0       16.359959    3.654020    0.348761
    123          1           0       18.083644    3.038902   -1.294580
    124          1           0       16.378021    4.399358   -3.243935
    125          1           0       18.077144    4.272393   -3.538658
    126          1           0       16.794031    2.932309   -3.365873
    127          1           0       18.085371    4.942510    0.166532
    128          1           0       19.051610    5.366832   -1.226224
    129          1           0       17.301606    6.008351   -1.234532
    130          1           0       -5.057540   -7.853258   -0.022473
    131          1           0       -6.525482   -6.953622    0.713743
    132          1           0       -4.926270   -6.710427    1.477600
    133          8           0       -7.810563    6.959340   -0.474001
    134          1           0       -9.133988    6.273124   -1.983561
 ---------------------------------------------------------------------

 SCF Done:  E(RCAM-B3LYP) =  -3043.42336533     A.U. after   16 cycles

 Excitation energies and oscillator strengths:

 Excited State   1:      Singlet-A      2.0979 eV  591.00 nm  f=0.1388  <S**2>=0.000
     243 -> 246        0.30296
     244 -> 245        0.61931
 This state for optimization and/or second-order correction.
 Total Energy, E(TD-HF/TD-KS) =  -3043.34626972
 Copying the excited state density for this state as the 1-particle RhoCI density.

 The electronic state is 1-A.
 Alpha  occ. eigenvalues --  -46.81532 -19.23132 -19.22208 -19.18320 -19.18233
 Alpha  occ. eigenvalues --  -19.17996 -19.17549 -19.17248 -14.38594 -14.37026
 Alpha  occ. eigenvalues --  -14.36934 -14.36235 -10.36179 -10.35229 -10.32542
 Alpha  occ. eigenvalues --  -10.32109 -10.30134 -10.27776 -10.27775 -10.27026
 Alpha  occ. eigenvalues --  -10.26827 -10.26612 -10.26389 -10.26305 -10.26011
 Alpha  occ. eigenvalues --  -10.25804 -10.25644 -10.25462 -10.25132 -10.25097
 Alpha  occ. eigenvalues --  -10.24795 -10.24793 -10.24559 -10.24128 -10.23759
 Alpha  occ. eigenvalues --  -10.23490 -10.23487 -10.23313 -10.23255 -10.23176
 Alpha  occ. eigenvalues --  -10.22900 -10.22893 -10.22538 -10.22497 -10.22437
 Alpha  occ. eigenvalues --  -10.22359 -10.22309 -10.22114 -10.21830 -10.21645
 Alpha  occ. eigenvalues --  -10.21638 -10.21526 -10.21525 -10.21477 -10.21473
 Alpha  occ. eigenvalues --  -10.21231 -10.21114 -10.21097 -10.21094 -10.21036
 Alpha  occ. eigenvalues --  -10.20633 -10.20618 -10.20370 -10.20228 -10.20061
 Alpha  occ. eigenvalues --  -10.18736  -3.10151  -1.85084  -1.84609  -1.84573
 Alpha  occ. eigenvalues --   -1.15113  -1.12172  -1.07933  -1.06115  -1.05707
 Alpha  occ. eigenvalues --   -1.05384  -1.03271  -1.02969  -1.01060  -1.00265
 Alpha  occ. eigenvalues --   -0.97161  -0.87759  -0.87171  -0.85918  -0.85845
 Alpha  occ. eigenvalues --   -0.85755  -0.85064  -0.84329  -0.84205  -0.84144
 Alpha  occ. eigenvalues --   -0.83436  -0.83183  -0.81713  -0.80792  -0.79855
 Alpha  occ. eigenvalues --   -0.78619  -0.78091  -0.77523  -0.77259  -0.76376
 Alpha  occ. eigenvalues --   -0.75307  -0.74956  -0.74275  -0.73489  -0.72700
 Alpha  occ. eigenvalues --   -0.71440  -0.71060  -0.70801  -0.70188  -0.70168
 Alpha  occ. eigenvalues --   -0.69490  -0.69387  -0.68403  -0.67279  -0.66866
 Alpha  occ. eigenvalues --   -0.65881  -0.65052  -0.64410  -0.63104  -0.62685
 Alpha  occ. eigenvalues --   -0.62131  -0.60905  -0.60719  -0.59449  -0.58888
 Alpha  occ. eigenvalues --   -0.58729  -0.58629  -0.58013  -0.57652  -0.57336
 Alpha  occ. eigenvalues --   -0.56750  -0.56436  -0.55540  -0.55426  -0.54893
 Alpha  occ. eigenvalues --   -0.54464  -0.53771  -0.52986  -0.52194  -0.51953
 Alpha  occ. eigenvalues --   -0.51864  -0.51465  -0.51269  -0.50925  -0.50679
 Alpha  occ. eigenvalues --   -0.50570  -0.50159  -0.49949  -0.49673  -0.49255
 Alpha  occ. eigenvalues --   -0.48957  -0.48890  -0.48742  -0.48277  -0.48194
 Alpha  occ. eigenvalues --   -0.48051  -0.47569  -0.47381  -0.47229  -0.46940
 Alpha  occ. eigenvalues --   -0.46628  -0.46514  -0.46283  -0.46042  -0.45929
 Alpha  occ. eigenvalues --   -0.45719  -0.45592  -0.45375  -0.45288  -0.45168
 Alpha  occ. eigenvalues --   -0.44712  -0.44566  -0.44521  -0.44093  -0.43984
 Alpha  occ. eigenvalues --   -0.43556  -0.43433  -0.43386  -0.43325  -0.43032
 Alpha  occ. eigenvalues --   -0.42723  -0.42617  -0.42372  -0.42204  -0.41962
 Alpha  occ. eigenvalues --   -0.41605  -0.41575  -0.41565  -0.41254  -0.40888
 Alpha  occ. eigenvalues --   -0.40788  -0.40636  -0.40520  -0.40363  -0.40162
 Alpha  occ. eigenvalues --   -0.39972  -0.39832  -0.39376  -0.39282  -0.39158
 Alpha  occ. eigenvalues --   -0.38846  -0.38382  -0.38280  -0.38159  -0.38009
 Alpha  occ. eigenvalues --   -0.37898  -0.37743  -0.37277  -0.37000  -0.36926
 Alpha  occ. eigenvalues --   -0.36805  -0.36695  -0.36458  -0.36262  -0.35611
 Alpha  occ. eigenvalues --   -0.35455  -0.35021  -0.34839  -0.34611  -0.34567
 Alpha  occ. eigenvalues --   -0.34320  -0.34136  -0.34053  -0.33515  -0.33251
 Alpha  occ. eigenvalues --   -0.33226  -0.32796  -0.32566  -0.31904  -0.31674
 Alpha  occ. eigenvalues --   -0.31502  -0.31049  -0.30688  -0.30377  -0.29980
 Alpha  occ. eigenvalues --   -0.29896  -0.28793  -0.28490  -0.28033  -0.27979
 Alpha  occ. eigenvalues --   -0.27835  -0.27607  -0.22757  -0.21532
 Alpha virt. eigenvalues --   -0.08053  -0.06369  -0.01531  -0.00915  -0.00208
 Alpha virt. eigenvalues --    0.01612   0.02549   0.02972   0.03969   0.04086
 Alpha virt. eigenvalues --    0.05038   0.05479   0.07558   0.08081   0.09382

 Mulliken charges:
               1
     1  Mg   0.846839
     2  C    0.065127
     3  C   -0.163928
     4  C   -0.129023
     5  C   -0.186926
     6  N   -0.628871
     7  C    0.322239
     8  C   -0.182341
     9  C   -0.152197
    10  C    0.323932
    11  C   -0.296181
    12  C   -0.163449
    13  C   -0.250819
    14  C    0.590237
    15  O   -0.464881
    16  O   -0.437451
    17  N   -0.734003
    18  C    0.304643
    19  C    0.035205
    20  C   -0.038920
    21  C    0.288602
    22  C   -0.346918
    23  C    0.254748
    24  O   -0.426480
    25  N   -0.726474
    26  C    0.307160
    27  C   -0.056866
    28  C    0.062744
    29  C    0.269061
    30  C    0.254325
    31  C   -0.259790
    32  C   -0.292687
    33  N   -0.674035
    34  C    0.288899
    35  C    0.024234
    36  C   -0.000563
    37  C    0.302170
    38  C   -0.370010
    39  C    0.379472
    40  O   -0.430931
    41  C   -0.327645
    42  C    0.592856
    43  O   -0.485525
    44  O   -0.450216
    45  C   -0.086200
    46  C    0.037411
    47  C   -0.179922
    48  C    0.163485
    49  C   -0.360390
    50  C   -0.241281
    51  C   -0.162575
    52  C   -0.176137
    53  C   -0.045929
    54  C   -0.325050
    55  C   -0.151177
    56  C   -0.178619
    57  C   -0.163236
    58  C   -0.071819
    59  C   -0.298642
    60  C   -0.158110
    61  C   -0.173245
    62  C   -0.143528
    63  C   -0.058059
    64  C   -0.317250
    65  C   -0.304277
    66  H    0.084382
    67  H    0.110064
    68  H    0.077699
    69  H    0.132782
    70  H    0.095370
    71  H    0.126454
    72  H    0.059387
    73  H    0.132069
    74  H    0.108837
    75  H    0.121188
    76  H    0.144802
    77  H    0.127820
    78  H    0.107250
    79  H    0.161980
    80  H    0.129386
    81  H    0.095066
    82  H    0.088497
    83  H    0.108528
    84  H    0.107359
    85  H    0.131890
    86  H    0.111171
    87  H    0.104825
    88  H    0.146839
    89  H    0.138317
    90  H    0.149818
    91  H    0.103002
    92  H    0.099337
    93  H    0.072103
    94  H    0.146509
    95  H    0.115617
    96  H    0.086880
    97  H    0.087234
    98  H    0.094788
    99  H    0.084599
   100  H    0.108072
   101  H    0.088830
   102  H    0.103094
   103  H    0.080247
   104  H    0.100891
   105  H    0.094838
   106  H    0.098986
   107  H    0.081295
   108  H    0.069520
   109  H    0.101992
   110  H    0.076466
   111  H    0.095299
   112  H    0.102580
   113  H    0.078029
   114  H    0.090081
   115  H    0.099914
   116  H    0.089133
   117  H    0.089621
   118  H    0.053179
   119  H    0.074557
   120  H    0.079970
   121  H    0.058766
   122  H    0.102402
   123  H    0.095493
   124  H    0.105016
   125  H    0.089173
   126  H    0.102197
   127  H    0.099252
   128  H    0.066890
   129  H    0.116034
   130  H    0.141918
   131  H    0.145089
   132  H    0.137239
   133  O   -0.413980
   134  H    0.065252
 Sum of Mulliken charges =   0.00000

 Dipole moment (field-independent basis, Debye):
    X=              0.7664    Y=             -4.2076    Z=             -0.9253  Tot=              4.3758
 Quadrupole moment (field-independent basis, Debye-Ang):
   XX=           -400.7811   YY=           -436.4417   ZZ=           -393.7314
   XY=              9.8068   XZ=             23.7730   YZ=            -33.1522

 Normal termination of Gaussian 09 at Fri Oct  4 17:25:05 2019.
