 Gaussian 09, Revision D.01,
 Gaussian 09:  ES64L-G09RevD.01 24-Apr-2013

 ----------------------------------------------------------------------
 # td=(NStates=1) iop(3/107=0140000000,3/108=0140000000) iop(3/107=0140
 000000,3/108=0140000000) CAM-B3LYP/6-31G(d,p)
 ----------------------------------------------------------------------

 --
 TD
 --
 Symbolic Z-matrix:
 Charge =  0 Multiplicity = 1

                         Standard orientation:
 ---------------------------------------------------------------------
 Center     Atomic      Atomic             Coordinates (Angstroms)
 Number     Number       Type             X           Y           Z
 ---------------------------------------------------------------------
      1         12           0       -5.641117    1.161387    0.229844
      2          6           0       -5.011485   -2.188521   -0.366063
      3          6           0       -3.366615    1.265390    2.664412
      4          6           0       -6.241122    4.553816    0.670666
      5          6           0       -7.991222    1.193844   -2.411198
      6          7           0       -4.473560   -0.330890    1.040365
      7          6           0       -4.230781   -1.653121    0.692073
      8          6           0       -3.123189   -2.305656    1.464105
      9          6           0       -2.829193   -1.242326    2.527788
     10          6           0       -3.535308    0.013493    2.063982
     11          6           0       -3.412615   -1.691721    3.917117
     12          6           0       -2.007613   -2.716597    0.679078
     13          6           0       -0.914866   -3.498554    1.548515
     14          6           0        0.239420   -3.892247    0.687531
     15          8           0        0.571883   -3.543748   -0.462007
     16          8           0        1.007294   -4.790256    1.354902
     17          7           0       -4.989965    2.620546    1.513652
     18          6           0       -4.007665    2.459156    2.515292
     19          6           0       -3.668301    3.677124    3.204628
     20          6           0       -4.531480    4.575809    2.649862
     21          6           0       -5.295940    3.917900    1.526139
     22          6           0       -2.758072    3.821962    4.352686
     23          6           0       -4.647241    6.081410    2.846761
     24          8           0       -3.987384    6.617446    3.650931
     25          7           0       -6.843940    2.652799   -0.725037
     26          6           0       -6.988341    3.919482   -0.273248
     27          6           0       -7.931446    4.585498   -1.081606
     28          6           0       -8.495278    3.690881   -2.032580
     29          6           0       -7.790039    2.392155   -1.707752
     30          6           0       -8.275483    6.061698   -1.085198
     31          6           0       -9.407166    3.879598   -3.070029
     32          6           0       -8.715601    4.022838   -4.601553
     33          7           0       -6.409877   -0.119487   -1.204940
     34          6           0       -7.309566   -0.058413   -2.192512
     35          6           0       -7.676678   -1.353548   -2.659036
     36          6           0       -6.798625   -2.195439   -2.007760
     37          6           0       -5.947149   -1.368064   -1.198430
     38          6           0       -8.592912   -1.645982   -3.757677
     39          6           0       -6.197463   -3.545293   -2.013279
     40          8           0       -6.641414   -4.477781   -2.747065
     41          6           0       -5.011125   -3.531057   -0.987247
     42          6           0       -5.338624   -4.674193    0.077491
     43          8           0       -5.603332   -4.520915    1.227265
     44          8           0       -5.028963   -5.820322   -0.495905
     45          6           0       -5.214075   -6.943467    0.451167
     46          6           0        2.322556   -5.146806    0.681033
     47          6           0        3.390724   -4.168092    1.114325
     48          6           0        4.090054   -3.401439    0.286120
     49          6           0        3.929485   -3.287013   -1.250951
     50          6           0        5.075298   -2.444164    0.744048
     51          6           0        6.470299   -2.791198   -0.016733
     52          6           0        7.625734   -1.970743    0.650117
     53          6           0        8.898451   -1.946607   -0.121354
     54          6           0        9.548212   -3.393008    0.028459
     55          6           0       10.011335   -0.998180    0.248041
     56          6           0       11.431795   -0.976471   -0.298271
     57          6           0       12.148804    0.330981    0.170079
     58          6           0       13.512022    0.538922   -0.446113
     59          6           0       14.533326   -0.620238   -0.192446
     60          6           0       14.198996    1.905775   -0.124133
     61          6           0       15.420038    2.241912   -0.957583
     62          6           0       15.993732    3.554954   -0.641126
     63          6           0       17.236741    3.969218   -1.389508
     64          6           0       17.111908    4.017746   -2.913999
     65          6           0       17.743527    5.348241   -0.972036
     66          1           0       -2.467965    1.404186    3.403488
     67          1           0       -6.497711    5.547688    0.888897
     68          1           0       -8.749191    1.067355   -3.331968
     69          1           0       -3.527317   -3.146929    2.043914
     70          1           0       -1.746873   -1.143538    2.646092
     71          1           0       -2.998779   -2.533764    4.351891
     72          1           0       -3.417211   -1.089755    4.843115
     73          1           0       -4.647076   -1.844159    3.740436
     74          1           0       -2.189929   -3.280298   -0.272810
     75          1           0       -1.533015   -1.634040    0.212333
     76          1           0       -0.480381   -2.735984    2.272446
     77          1           0       -1.397958   -4.321125    1.878377
     78          1           0       -1.655691    3.351118    3.877247
     79          1           0       -2.612868    4.752328    4.700195
     80          1           0       -3.001242    3.033336    5.213694
     81          1           0       -5.606128    6.608660    2.450844
     82          1           0      -10.131204    3.124483   -3.056831
     83          1           0       -9.944286    4.878840   -3.131417
     84          1           0       -9.338341    4.180656   -5.421764
     85          1           0       -7.979123    4.795486   -4.430462
     86          1           0       -8.025463    3.112868   -4.610732
     87          1           0       -8.455319   -1.029122   -4.622935
     88          1           0       -8.668728   -2.742486   -3.762284
     89          1           0       -9.538250   -1.124735   -3.447134
     90          1           0       -4.208710   -3.764144   -1.686717
     91          1           0        2.594265   -6.256114    1.006997
     92          1           0        2.040962   -5.166434   -0.253506
     93          1           0        3.669717   -4.228990    2.184241
     94          1           0        2.879940   -3.442209   -1.372943
     95          1           0        4.026934   -2.256219   -1.720094
     96          1           0        4.503730   -3.954389   -1.945040
     97          1           0        4.720999   -1.462072    0.507260
     98          1           0        5.182653   -2.570083    1.828304
     99          1           0        6.748923   -4.004339    0.276275
    100          1           0        6.187657   -2.669048   -1.012853
    101          1           0        7.258941   -0.942395    0.773310
    102          1           0        7.989624   -2.204646    1.703838
    103          1           0        8.564652   -1.890177   -1.129031
    104          1           0        8.932300   -4.150875   -0.418482
    105          1           0       10.330654   -3.632248   -0.583903
    106          1           0        9.716724   -3.655645    0.973817
    107          1           0        9.390916   -0.154516    0.253137
    108          1           0       10.205605   -1.221075    1.344624
    109          1           0       11.897497   -1.954849    0.187727
    110          1           0       11.625130   -0.986342   -1.471902
    111          1           0       11.506886    1.205547   -0.097379
    112          1           0       12.292021    0.347645    1.445248
    113          1           0       13.420065    0.634814   -1.453556
    114          1           0       14.567939   -0.827726    0.796716
    115          1           0       14.413755   -1.565687   -0.492835
    116          1           0       15.445698   -0.267554   -0.468336
    117          1           0       13.617788    2.844749   -0.557651
    118          1           0       14.301094    2.098448    0.877654
    119          1           0       16.076599    1.247145   -0.651704
    120          1           0       14.952893    2.198442   -1.940855
    121          1           0       15.344997    4.391438   -0.963722
    122          1           0       16.087493    3.649884    0.522896
    123          1           0       17.890529    3.104622   -1.241588
    124          1           0       16.373791    4.715417   -3.199995
    125          1           0       18.195718    4.130008   -3.544186
    126          1           0       16.808997    3.075588   -3.240274
    127          1           0       17.876910    5.699695    0.067457
    128          1           0       18.670330    5.551344   -1.280981
    129          1           0       17.178938    6.233445   -1.451872
    130          1           0       -4.856003   -7.856217   -0.101851
    131          1           0       -6.174631   -7.103749    0.974457
    132          1           0       -4.636975   -6.697977    1.409981
    133          8           0       -7.746727    6.810814   -0.361303
    134          1           0       -8.881038    6.397250   -1.900838
 ---------------------------------------------------------------------

 SCF Done:  E(RCAM-B3LYP) =  -3043.43696529     A.U. after   16 cycles

 Excitation energies and oscillator strengths:

 Excited State   1:      Singlet-A      1.9739 eV  628.10 nm  f=0.1998  <S**2>=0.000
     243 -> 246        0.24457
     244 -> 245        0.65749
 This state for optimization and/or second-order correction.
 Total Energy, E(TD-HF/TD-KS) =  -3043.36442421
 Copying the excited state density for this state as the 1-particle RhoCI density.

 The electronic state is 1-A.
 Alpha  occ. eigenvalues --  -46.81810 -19.23905 -19.21366 -19.18211 -19.17407
 Alpha  occ. eigenvalues --  -19.17258 -19.16755 -19.16314 -14.39606 -14.36728
 Alpha  occ. eigenvalues --  -14.36347 -14.35967 -10.35647 -10.35001 -10.31075
 Alpha  occ. eigenvalues --  -10.30525 -10.29885 -10.28557 -10.28265 -10.27705
 Alpha  occ. eigenvalues --  -10.27366 -10.26568 -10.26314 -10.26203 -10.25455
 Alpha  occ. eigenvalues --  -10.25340 -10.25336 -10.25117 -10.25085 -10.24960
 Alpha  occ. eigenvalues --  -10.24688 -10.24591 -10.24512 -10.24484 -10.24336
 Alpha  occ. eigenvalues --  -10.24330 -10.23547 -10.23546 -10.23497 -10.23471
 Alpha  occ. eigenvalues --  -10.23282 -10.23258 -10.23226 -10.23185 -10.23016
 Alpha  occ. eigenvalues --  -10.22610 -10.22484 -10.22201 -10.22039 -10.21856
 Alpha  occ. eigenvalues --  -10.21784 -10.21558 -10.21473 -10.21342 -10.21242
 Alpha  occ. eigenvalues --  -10.21135 -10.21095 -10.21071 -10.20952 -10.20666
 Alpha  occ. eigenvalues --  -10.20458 -10.20327 -10.20210 -10.19366 -10.17286
 Alpha  occ. eigenvalues --  -10.17267  -3.10245  -1.85198  -1.84694  -1.84667
 Alpha  occ. eigenvalues --   -1.15390  -1.11565  -1.09929  -1.09685  -1.06473
 Alpha  occ. eigenvalues --   -1.03623  -1.02155  -1.00932  -0.99719  -0.98734
 Alpha  occ. eigenvalues --   -0.98232  -0.87881  -0.87135  -0.86482  -0.86009
 Alpha  occ. eigenvalues --   -0.85511  -0.85035  -0.84457  -0.83766  -0.83563
 Alpha  occ. eigenvalues --   -0.83055  -0.82872  -0.81774  -0.80009  -0.79538
 Alpha  occ. eigenvalues --   -0.78697  -0.77962  -0.76924  -0.76708  -0.76506
 Alpha  occ. eigenvalues --   -0.75023  -0.74438  -0.74039  -0.72621  -0.72340
 Alpha  occ. eigenvalues --   -0.72004  -0.71708  -0.71271  -0.70671  -0.69714
 Alpha  occ. eigenvalues --   -0.69587  -0.69181  -0.67866  -0.66594  -0.66031
 Alpha  occ. eigenvalues --   -0.65638  -0.64973  -0.63288  -0.62865  -0.62076
 Alpha  occ. eigenvalues --   -0.61105  -0.60938  -0.60582  -0.59112  -0.59081
 Alpha  occ. eigenvalues --   -0.58649  -0.58460  -0.57904  -0.57854  -0.57343
 Alpha  occ. eigenvalues --   -0.56638  -0.56170  -0.55500  -0.55026  -0.54862
 Alpha  occ. eigenvalues --   -0.54345  -0.53722  -0.53127  -0.52562  -0.52493
 Alpha  occ. eigenvalues --   -0.51760  -0.51733  -0.51409  -0.51104  -0.50816
 Alpha  occ. eigenvalues --   -0.50554  -0.50423  -0.49940  -0.49480  -0.49352
 Alpha  occ. eigenvalues --   -0.48834  -0.48797  -0.48177  -0.48128  -0.47884
 Alpha  occ. eigenvalues --   -0.47784  -0.47521  -0.47385  -0.47204  -0.46872
 Alpha  occ. eigenvalues --   -0.46648  -0.46624  -0.46277  -0.46041  -0.45758
 Alpha  occ. eigenvalues --   -0.45705  -0.45376  -0.45216  -0.45094  -0.44680
 Alpha  occ. eigenvalues --   -0.44390  -0.44356  -0.44230  -0.43838  -0.43754
 Alpha  occ. eigenvalues --   -0.43694  -0.43342  -0.42863  -0.42831  -0.42714
 Alpha  occ. eigenvalues --   -0.42683  -0.42598  -0.42319  -0.42287  -0.42042
 Alpha  occ. eigenvalues --   -0.41957  -0.41537  -0.41275  -0.40923  -0.40818
 Alpha  occ. eigenvalues --   -0.40650  -0.40625  -0.40490  -0.40117  -0.40038
 Alpha  occ. eigenvalues --   -0.39927  -0.39903  -0.39664  -0.39381  -0.39322
 Alpha  occ. eigenvalues --   -0.39267  -0.39018  -0.38754  -0.38726  -0.38200
 Alpha  occ. eigenvalues --   -0.38020  -0.37823  -0.37282  -0.37108  -0.36758
 Alpha  occ. eigenvalues --   -0.36656  -0.36430  -0.36225  -0.36113  -0.35533
 Alpha  occ. eigenvalues --   -0.35414  -0.35175  -0.35082  -0.34911  -0.34739
 Alpha  occ. eigenvalues --   -0.34414  -0.34292  -0.34067  -0.33922  -0.33539
 Alpha  occ. eigenvalues --   -0.32971  -0.32347  -0.32269  -0.31917  -0.31536
 Alpha  occ. eigenvalues --   -0.31060  -0.30949  -0.30282  -0.30110  -0.29406
 Alpha  occ. eigenvalues --   -0.28293  -0.27852  -0.27574  -0.27480  -0.27391
 Alpha  occ. eigenvalues --   -0.26951  -0.26640  -0.22448  -0.21125
 Alpha virt. eigenvalues --   -0.08435  -0.05739  -0.01519   0.00178   0.00730
 Alpha virt. eigenvalues --    0.02906   0.03258   0.04040   0.04139   0.04173
 Alpha virt. eigenvalues --    0.04636   0.05844   0.07706   0.08501   0.09295

 Mulliken charges:
               1
     1  Mg   0.817705
     2  C    0.043543
     3  C   -0.206338
     4  C   -0.164680
     5  C   -0.192707
     6  N   -0.643158
     7  C    0.323849
     8  C   -0.122778
     9  C   -0.144970
    10  C    0.335883
    11  C   -0.317935
    12  C   -0.179166
    13  C   -0.243282
    14  C    0.598004
    15  O   -0.495701
    16  O   -0.488754
    17  N   -0.708235
    18  C    0.302435
    19  C    0.103649
    20  C   -0.087375
    21  C    0.323235
    22  C   -0.349785
    23  C    0.244390
    24  O   -0.377708
    25  N   -0.694218
    26  C    0.353026
    27  C   -0.087904
    28  C    0.084148
    29  C    0.288752
    30  C    0.270233
    31  C   -0.303522
    32  C   -0.329768
    33  N   -0.679735
    34  C    0.265285
    35  C    0.016877
    36  C    0.021571
    37  C    0.272189
    38  C   -0.378681
    39  C    0.344917
    40  O   -0.487837
    41  C   -0.334926
    42  C    0.630227
    43  O   -0.456233
    44  O   -0.415598
    45  C   -0.112604
    46  C    0.016154
    47  C   -0.151048
    48  C    0.171943
    49  C   -0.407626
    50  C   -0.241453
    51  C   -0.167362
    52  C   -0.162366
    53  C   -0.076403
    54  C   -0.331067
    55  C   -0.146263
    56  C   -0.164134
    57  C   -0.144799
    58  C   -0.045957
    59  C   -0.326010
    60  C   -0.192440
    61  C   -0.168072
    62  C   -0.149072
    63  C   -0.055850
    64  C   -0.305440
    65  C   -0.315541
    66  H    0.074905
    67  H    0.119927
    68  H    0.086872
    69  H    0.136209
    70  H    0.101337
    71  H    0.121591
    72  H    0.113492
    73  H    0.097128
    74  H    0.125179
    75  H    0.080735
    76  H    0.146500
    77  H    0.150076
    78  H    0.083088
    79  H    0.157852
    80  H    0.121172
    81  H    0.076735
    82  H    0.123501
    83  H    0.110786
    84  H    0.126356
    85  H    0.122035
    86  H    0.108109
    87  H    0.138745
    88  H    0.153013
    89  H    0.112700
    90  H    0.171503
    91  H    0.103202
    92  H    0.136283
    93  H    0.088338
    94  H    0.151980
    95  H    0.106758
    96  H    0.123158
    97  H    0.116490
    98  H    0.090778
    99  H    0.074298
   100  H    0.119235
   101  H    0.082443
   102  H    0.085793
   103  H    0.081145
   104  H    0.085080
   105  H    0.102566
   106  H    0.104492
   107  H    0.085172
   108  H    0.078442
   109  H    0.090579
   110  H    0.078798
   111  H    0.096414
   112  H    0.045483
   113  H    0.089413
   114  H    0.106805
   115  H    0.108006
   116  H    0.099333
   117  H    0.060472
   118  H    0.093801
   119  H    0.068289
   120  H    0.100357
   121  H    0.084375
   122  H    0.083859
   123  H    0.087513
   124  H    0.105556
   125  H    0.074156
   126  H    0.110867
   127  H    0.090714
   128  H    0.116172
   129  H    0.084406
   130  H    0.130773
   131  H    0.145646
   132  H    0.122789
   133  O   -0.387838
   134  H    0.064548
 Sum of Mulliken charges =   0.00000

 Dipole moment (field-independent basis, Debye):
    X=              1.7847    Y=             -3.4743    Z=              0.3657  Tot=              3.9230
 Quadrupole moment (field-independent basis, Debye-Ang):
   XX=           -385.6326   YY=           -427.3800   ZZ=           -390.2438
   XY=             -5.0835   XZ=             12.0666   YZ=            -35.7556

 Normal termination of Gaussian 09 at Wed Oct  9 02:03:56 2019.
