 Gaussian 09, Revision D.01,
 Gaussian 09:  ES64L-G09RevD.01 24-Apr-2013

 ----------------------------------------------------------------------
 # td=(NStates=1) iop(3/107=0140000000,3/108=0140000000) iop(3/107=0140
 000000,3/108=0140000000) CAM-B3LYP/6-31G(d,p)
 ----------------------------------------------------------------------

 --
 TD
 --
 Symbolic Z-matrix:
 Charge =  0 Multiplicity = 1

                         Standard orientation:
 ---------------------------------------------------------------------
 Center     Atomic      Atomic             Coordinates (Angstroms)
 Number     Number       Type             X           Y           Z
 ---------------------------------------------------------------------
      1         12           0       -5.587242    1.233463    0.239847
      2          6           0       -4.959499   -2.135350   -0.422177
      3          6           0       -3.375291    1.153635    2.665610
      4          6           0       -6.157369    4.541825    0.643631
      5          6           0       -7.973440    1.181615   -2.375860
      6          7           0       -4.484667   -0.310795    1.093788
      7          6           0       -4.288158   -1.558866    0.768317
      8          6           0       -3.230819   -2.275643    1.392017
      9          6           0       -2.875158   -1.295554    2.590871
     10          6           0       -3.527457   -0.078138    2.134857
     11          6           0       -3.501048   -1.737496    3.941331
     12          6           0       -2.060254   -2.668159    0.630236
     13          6           0       -0.985946   -3.580756    1.409743
     14          6           0        0.200817   -4.030378    0.573305
     15          8           0        0.374786   -3.577073   -0.499125
     16          8           0        0.969444   -4.781512    1.297328
     17          7           0       -4.959658    2.664200    1.570793
     18          6           0       -4.048607    2.458972    2.524264
     19          6           0       -3.809027    3.656516    3.192527
     20          6           0       -4.494437    4.609469    2.522480
     21          6           0       -5.304200    3.922136    1.541898
     22          6           0       -2.773971    3.804953    4.265957
     23          6           0       -4.595370    6.074684    2.909211
     24          8           0       -3.995662    6.634220    3.763873
     25          7           0       -6.942271    2.589110   -0.666090
     26          6           0       -6.945359    3.985147   -0.338069
     27          6           0       -7.896682    4.650045   -1.222360
     28          6           0       -8.313836    3.739101   -2.103015
     29          6           0       -7.739121    2.466472   -1.766145
     30          6           0       -8.154901    6.089143   -1.207029
     31          6           0       -9.352558    3.880656   -3.231658
     32          6           0       -8.649316    3.850795   -4.603235
     33          7           0       -6.400378   -0.113131   -1.102527
     34          6           0       -7.333701    0.042475   -2.076466
     35          6           0       -7.469561   -1.228952   -2.692525
     36          6           0       -6.668094   -2.185983   -2.024659
     37          6           0       -5.830455   -1.410573   -1.178085
     38          6           0       -8.599956   -1.619207   -3.674970
     39          6           0       -6.215849   -3.588410   -2.096490
     40          8           0       -6.588372   -4.523818   -2.748745
     41          6           0       -4.979103   -3.558105   -0.955305
     42          6           0       -5.375285   -4.632541    0.114023
     43          8           0       -5.890361   -4.389838    1.280679
     44          8           0       -5.127490   -5.825696   -0.398899
     45          6           0       -5.470117   -6.987094    0.499565
     46          6           0        2.207291   -5.092533    0.614139
     47          6           0        3.336992   -4.186780    1.092914
     48          6           0        4.013776   -3.225384    0.270717
     49          6           0        3.718982   -3.054332   -1.150650
     50          6           0        5.157620   -2.471270    0.863903
     51          6           0        6.569072   -2.677563    0.046231
     52          6           0        7.751971   -1.837563    0.715864
     53          6           0        9.032827   -1.976892   -0.039784
     54          6           0        9.595761   -3.300614   -0.033760
     55          6           0       10.086345   -0.893729    0.566562
     56          6           0       11.323005   -0.744261   -0.243572
     57          6           0       12.279398    0.176650    0.361164
     58          6           0       13.521168    0.480840   -0.605908
     59          6           0       14.472891   -0.851497   -0.614723
     60          6           0       14.189949    1.810651   -0.076355
     61          6           0       15.400754    2.150525   -0.890392
     62          6           0       16.007462    3.580639   -0.748288
     63          6           0       17.414863    3.916450   -1.333994
     64          6           0       17.172519    3.911952   -2.830036
     65          6           0       17.914286    5.203972   -0.821663
     66          1           0       -3.077086    1.283604    3.783416
     67          1           0       -6.303164    5.721029    0.723474
     68          1           0       -8.520602    0.931892   -3.211222
     69          1           0       -3.997957   -3.153454    1.993210
     70          1           0       -1.850242   -1.153484    2.665596
     71          1           0       -2.896660   -2.552780    4.352363
     72          1           0       -3.505970   -0.826509    4.697600
     73          1           0       -4.624290   -2.055034    3.640264
     74          1           0       -2.260699   -3.413401   -0.192670
     75          1           0       -1.656091   -1.867581    0.050274
     76          1           0       -0.591716   -3.090783    2.383382
     77          1           0       -1.417684   -4.557651    1.857548
     78          1           0       -1.879451    3.301394    3.874687
     79          1           0       -2.895398    4.866415    4.462175
     80          1           0       -3.037288    3.325006    5.317395
     81          1           0       -5.388732    6.710261    2.434977
     82          1           0       -9.959672    3.043589   -3.199968
     83          1           0       -9.937722    4.939953   -3.259091
     84          1           0       -9.379629    4.050889   -5.250547
     85          1           0       -7.752071    4.704412   -4.817137
     86          1           0       -8.404888    2.796259   -4.897066
     87          1           0       -8.628954   -0.825475   -4.410119
     88          1           0       -8.304214   -2.690906   -4.324316
     89          1           0       -9.622672   -1.747252   -3.080437
     90          1           0       -4.048381   -3.981675   -1.315488
     91          1           0        2.339933   -6.123713    1.018943
     92          1           0        2.019631   -5.129856   -0.400307
     93          1           0        3.569884   -4.263724    2.108135
     94          1           0        2.734505   -3.429312   -1.463965
     95          1           0        3.911472   -1.769670   -1.466027
     96          1           0        4.072619   -3.677131   -2.014881
     97          1           0        4.994776   -1.298428    0.845871
     98          1           0        5.247667   -2.789540    1.831866
     99          1           0        6.771822   -3.860883    0.163639
    100          1           0        6.554592   -2.609365   -1.111312
    101          1           0        7.463079   -0.769585    0.712132
    102          1           0        7.807899   -1.986318    1.779295
    103          1           0        8.976176   -1.691550   -1.135304
    104          1           0        9.123406   -4.088148   -0.526220
    105          1           0       10.677627   -3.456978   -0.637657
    106          1           0        9.771729   -3.609918    0.987690
    107          1           0        9.550193    0.048761    0.508476
    108          1           0       10.075037   -1.441227    1.537191
    109          1           0       11.822702   -1.788536   -0.445329
    110          1           0       11.187024   -0.597031   -1.330107
    111          1           0       11.785588    1.267514    0.360582
    112          1           0       12.582045   -0.078820    1.288720
    113          1           0       13.003839    0.632185   -1.749194
    114          1           0       14.827465   -1.109427    0.523992
    115          1           0       14.093997   -1.700248   -1.011996
    116          1           0       15.457836   -0.653391   -1.090778
    117          1           0       13.496610    2.686598   -0.378640
    118          1           0       14.347000    1.623073    0.999347
    119          1           0       16.339341    1.426636   -0.866494
    120          1           0       15.152918    2.005077   -1.938754
    121          1           0       15.213178    4.324524   -1.130417
    122          1           0       16.023244    3.295462    0.411355
    123          1           0       17.914417    3.080674   -1.273765
    124          1           0       16.442737    4.668497   -3.088685
    125          1           0       18.133724    4.344951   -3.292957
    126          1           0       17.090660    2.824922   -3.011147
    127          1           0       18.017755    5.262086    0.214969
    128          1           0       19.104909    5.274721   -1.355995
    129          1           0       17.237614    6.015836   -1.029296
    130          1           0       -5.045879   -7.819113   -0.123056
    131          1           0       -6.439822   -7.264683    0.521572
    132          1           0       -5.333059   -6.910527    1.533830
    133          8           0       -7.669273    6.916314   -0.435121
    134          1           0       -8.688351    6.414710   -1.948461
 ---------------------------------------------------------------------

 SCF Done:  E(RCAM-B3LYP) =  -3043.34811581     A.U. after   16 cycles

 Excitation energies and oscillator strengths:

 Excited State   1:      Singlet-A      2.0023 eV  619.22 nm  f=0.1895  <S**2>=0.000
     243 -> 246       -0.23892
     244 -> 245        0.65723
 This state for optimization and/or second-order correction.
 Total Energy, E(TD-HF/TD-KS) =  -3043.27453343
 Copying the excited state density for this state as the 1-particle RhoCI density.

 The electronic state is 1-A.
 Alpha  occ. eigenvalues --  -46.81400 -19.24824 -19.23235 -19.18659 -19.17217
 Alpha  occ. eigenvalues --  -19.17199 -19.17000 -19.16553 -14.39200 -14.36866
 Alpha  occ. eigenvalues --  -14.35715 -14.35082 -10.35923 -10.34549 -10.32734
 Alpha  occ. eigenvalues --  -10.29616 -10.29259 -10.28163 -10.27852 -10.27533
 Alpha  occ. eigenvalues --  -10.26543 -10.26541 -10.25499 -10.25354 -10.25303
 Alpha  occ. eigenvalues --  -10.25296 -10.25169 -10.25002 -10.24989 -10.24845
 Alpha  occ. eigenvalues --  -10.24824 -10.24814 -10.24492 -10.24333 -10.24201
 Alpha  occ. eigenvalues --  -10.24081 -10.24065 -10.23892 -10.23837 -10.23651
 Alpha  occ. eigenvalues --  -10.23651 -10.23349 -10.23259 -10.22907 -10.22773
 Alpha  occ. eigenvalues --  -10.22742 -10.22730 -10.22502 -10.22427 -10.22389
 Alpha  occ. eigenvalues --  -10.22184 -10.21863 -10.21644 -10.21550 -10.21521
 Alpha  occ. eigenvalues --  -10.21505 -10.21197 -10.21107 -10.21093 -10.21059
 Alpha  occ. eigenvalues --  -10.20873 -10.20672 -10.20395 -10.20303 -10.20083
 Alpha  occ. eigenvalues --  -10.19915  -3.09861  -1.84815  -1.84355  -1.84227
 Alpha  occ. eigenvalues --   -1.16389  -1.13329  -1.08746  -1.08085  -1.07400
 Alpha  occ. eigenvalues --   -1.06285  -1.01865  -1.01392  -1.01192  -0.99053
 Alpha  occ. eigenvalues --   -0.97923  -0.88284  -0.86318  -0.86111  -0.85317
 Alpha  occ. eigenvalues --   -0.85082  -0.84916  -0.84135  -0.83750  -0.83249
 Alpha  occ. eigenvalues --   -0.82830  -0.82010  -0.81367  -0.80444  -0.80122
 Alpha  occ. eigenvalues --   -0.79650  -0.78535  -0.77944  -0.76932  -0.76070
 Alpha  occ. eigenvalues --   -0.74943  -0.73824  -0.73450  -0.73169  -0.72073
 Alpha  occ. eigenvalues --   -0.71739  -0.71319  -0.70500  -0.70146  -0.69868
 Alpha  occ. eigenvalues --   -0.69283  -0.68156  -0.67852  -0.66859  -0.65998
 Alpha  occ. eigenvalues --   -0.65207  -0.64358  -0.64252  -0.62511  -0.62066
 Alpha  occ. eigenvalues --   -0.61973  -0.61417  -0.60440  -0.60167  -0.59155
 Alpha  occ. eigenvalues --   -0.59030  -0.58719  -0.58380  -0.57659  -0.57288
 Alpha  occ. eigenvalues --   -0.57167  -0.56075  -0.55512  -0.55214  -0.54266
 Alpha  occ. eigenvalues --   -0.53541  -0.53150  -0.52974  -0.52675  -0.52058
 Alpha  occ. eigenvalues --   -0.51775  -0.51707  -0.51508  -0.50997  -0.50803
 Alpha  occ. eigenvalues --   -0.50668  -0.50115  -0.49843  -0.49835  -0.49165
 Alpha  occ. eigenvalues --   -0.48648  -0.48412  -0.48142  -0.47902  -0.47693
 Alpha  occ. eigenvalues --   -0.47647  -0.47572  -0.47277  -0.47166  -0.46660
 Alpha  occ. eigenvalues --   -0.46447  -0.46386  -0.46234  -0.45958  -0.45749
 Alpha  occ. eigenvalues --   -0.45504  -0.45173  -0.44818  -0.44623  -0.44488
 Alpha  occ. eigenvalues --   -0.44303  -0.44234  -0.44116  -0.43831  -0.43608
 Alpha  occ. eigenvalues --   -0.43247  -0.43171  -0.43052  -0.42608  -0.42415
 Alpha  occ. eigenvalues --   -0.42304  -0.42054  -0.41924  -0.41882  -0.41606
 Alpha  occ. eigenvalues --   -0.41520  -0.41355  -0.41114  -0.40974  -0.40806
 Alpha  occ. eigenvalues --   -0.40507  -0.40454  -0.40361  -0.40170  -0.39893
 Alpha  occ. eigenvalues --   -0.39766  -0.39749  -0.39608  -0.39509  -0.39383
 Alpha  occ. eigenvalues --   -0.39046  -0.38677  -0.38548  -0.38377  -0.38263
 Alpha  occ. eigenvalues --   -0.37985  -0.37965  -0.37753  -0.37626  -0.37416
 Alpha  occ. eigenvalues --   -0.37248  -0.36680  -0.36651  -0.36569  -0.35379
 Alpha  occ. eigenvalues --   -0.35251  -0.35052  -0.34746  -0.34443  -0.34237
 Alpha  occ. eigenvalues --   -0.34110  -0.33944  -0.33713  -0.33613  -0.33532
 Alpha  occ. eigenvalues --   -0.32892  -0.32173  -0.31564  -0.31490  -0.31132
 Alpha  occ. eigenvalues --   -0.30837  -0.30209  -0.30123  -0.29384  -0.29249
 Alpha  occ. eigenvalues --   -0.28703  -0.28422  -0.28048  -0.27660  -0.27022
 Alpha  occ. eigenvalues --   -0.26557  -0.26320  -0.22736  -0.21078
 Alpha virt. eigenvalues --   -0.08110  -0.06055  -0.01791  -0.00007   0.00787
 Alpha virt. eigenvalues --    0.00952   0.02408   0.03352   0.04359   0.04917
 Alpha virt. eigenvalues --    0.05576   0.05988   0.07997   0.08332   0.09266

 Mulliken charges:
               1
     1  Mg   0.815973
     2  C    0.079699
     3  C   -0.213828
     4  C   -0.183493
     5  C   -0.132633
     6  N   -0.607300
     7  C    0.364564
     8  C   -0.163886
     9  C   -0.135904
    10  C    0.317464
    11  C   -0.291954
    12  C   -0.184395
    13  C   -0.283986
    14  C    0.607819
    15  O   -0.454816
    16  O   -0.434294
    17  N   -0.697852
    18  C    0.273704
    19  C    0.028921
    20  C   -0.061235
    21  C    0.320499
    22  C   -0.388745
    23  C    0.251335
    24  O   -0.394103
    25  N   -0.667674
    26  C    0.266069
    27  C   -0.024438
    28  C    0.035019
    29  C    0.301277
    30  C    0.289728
    31  C   -0.242556
    32  C   -0.304075
    33  N   -0.747737
    34  C    0.376390
    35  C   -0.053641
    36  C    0.042444
    37  C    0.243089
    38  C   -0.360848
    39  C    0.380992
    40  O   -0.426307
    41  C   -0.340918
    42  C    0.608535
    43  O   -0.521786
    44  O   -0.421839
    45  C   -0.111459
    46  C   -0.012236
    47  C   -0.144407
    48  C    0.170933
    49  C   -0.368596
    50  C   -0.226037
    51  C   -0.183784
    52  C   -0.163908
    53  C   -0.083199
    54  C   -0.285055
    55  C   -0.158349
    56  C   -0.174835
    57  C   -0.144442
    58  C   -0.056476
    59  C   -0.313812
    60  C   -0.158379
    61  C   -0.200862
    62  C   -0.160861
    63  C   -0.041336
    64  C   -0.294829
    65  C   -0.276323
    66  H    0.082679
    67  H    0.148609
    68  H    0.057654
    69  H    0.124514
    70  H    0.117350
    71  H    0.116236
    72  H    0.103938
    73  H    0.113587
    74  H    0.113881
    75  H    0.137827
    76  H    0.121716
    77  H    0.120228
    78  H    0.128464
    79  H    0.156016
    80  H    0.097753
    81  H    0.071956
    82  H    0.126930
    83  H    0.096941
    84  H    0.124655
    85  H    0.092455
    86  H    0.104019
    87  H    0.122070
    88  H    0.115391
    89  H    0.131587
    90  H    0.150153
    91  H    0.113408
    92  H    0.130964
    93  H    0.088548
    94  H    0.137546
    95  H    0.071527
    96  H    0.121340
    97  H    0.091221
    98  H    0.109562
    99  H    0.077235
   100  H    0.102656
   101  H    0.092783
   102  H    0.096072
   103  H    0.074360
   104  H    0.113540
   105  H    0.062776
   106  H    0.094183
   107  H    0.094782
   108  H    0.089406
   109  H    0.073309
   110  H    0.090936
   111  H    0.063350
   112  H    0.102611
   113  H    0.050775
   114  H    0.069965
   115  H    0.122092
   116  H    0.101515
   117  H    0.097555
   118  H    0.099680
   119  H    0.067403
   120  H    0.091844
   121  H    0.072830
   122  H    0.068574
   123  H    0.090895
   124  H    0.101821
   125  H    0.078546
   126  H    0.104875
   127  H    0.114198
   128  H    0.052658
   129  H    0.105624
   130  H    0.128536
   131  H    0.149960
   132  H    0.154324
   133  O   -0.433323
   134  H    0.065906
 Sum of Mulliken charges =   0.00000

 Dipole moment (field-independent basis, Debye):
    X=              2.2072    Y=             -7.0735    Z=             -2.0242  Tot=              7.6814
 Quadrupole moment (field-independent basis, Debye-Ang):
   XX=           -388.0174   YY=           -425.1768   ZZ=           -397.0590
   XY=              3.2012   XZ=             28.2948   YZ=            -37.1754

 Normal termination of Gaussian 09 at Thu Oct  3 22:03:56 2019.
