 Gaussian 09, Revision D.01,
 Gaussian 09:  ES64L-G09RevD.01 24-Apr-2013

 ----------------------------------------------------------------------
 # td=(NStates=1) iop(3/107=0140000000,3/108=0140000000) iop(3/107=0140
 000000,3/108=0140000000) CAM-B3LYP/6-31G(d,p)
 ----------------------------------------------------------------------

 --
 TD
 --
 Symbolic Z-matrix:
 Charge =  0 Multiplicity = 1

                         Standard orientation:
 ---------------------------------------------------------------------
 Center     Atomic      Atomic             Coordinates (Angstroms)
 Number     Number       Type             X           Y           Z
 ---------------------------------------------------------------------
      1         12           0       -5.604846    1.199047    0.141182
      2          6           0       -5.027268   -2.164012   -0.296457
      3          6           0       -3.381062    1.254052    2.730125
      4          6           0       -6.405197    4.481788    0.685880
      5          6           0       -7.996104    1.111735   -2.403255
      6          7           0       -4.444624   -0.262376    1.139669
      7          6           0       -4.300905   -1.557877    0.695329
      8          6           0       -3.248170   -2.367615    1.558599
      9          6           0       -2.989923   -1.280200    2.514016
     10          6           0       -3.652958   -0.003300    2.137706
     11          6           0       -3.246446   -1.697888    4.000979
     12          6           0       -2.054421   -2.634158    0.655373
     13          6           0       -1.004824   -3.527177    1.374972
     14          6           0        0.210282   -3.760063    0.612572
     15          8           0        0.562584   -3.331608   -0.465134
     16          8           0        1.043459   -4.663951    1.270389
     17          7           0       -5.022463    2.571682    1.524150
     18          6           0       -4.005317    2.381774    2.509409
     19          6           0       -3.845325    3.686731    3.155537
     20          6           0       -4.695892    4.569322    2.669801
     21          6           0       -5.343982    3.929210    1.533278
     22          6           0       -2.803354    3.785474    4.282403
     23          6           0       -4.765096    6.089971    2.960902
     24          8           0       -4.067217    6.606757    3.747284
     25          7           0       -6.934727    2.552119   -0.754440
     26          6           0       -6.999958    3.924447   -0.350473
     27          6           0       -7.947519    4.589515   -1.306987
     28          6           0       -8.470069    3.587965   -2.143574
     29          6           0       -7.778080    2.372447   -1.711954
     30          6           0       -8.352785    5.992512   -1.164665
     31          6           0       -9.519898    3.808821   -3.174144
     32          6           0       -9.040895    3.947773   -4.599481
     33          7           0       -6.384420   -0.160665   -1.084400
     34          6           0       -7.319151   -0.118329   -2.179273
     35          6           0       -7.524403   -1.416798   -2.783602
     36          6           0       -6.722326   -2.303290   -2.048824
     37          6           0       -6.000292   -1.439261   -1.100682
     38          6           0       -8.429114   -1.760178   -3.887333
     39          6           0       -6.137427   -3.609275   -2.022444
     40          8           0       -6.477676   -4.583243   -2.710726
     41          6           0       -4.987409   -3.634427   -0.957516
     42          6           0       -5.178103   -4.638877    0.186460
     43          8           0       -5.595297   -4.490239    1.312599
     44          8           0       -5.030156   -5.891409   -0.368662
     45          6           0       -5.212892   -7.055626    0.497381
     46          6           0        2.385955   -4.997501    0.610746
     47          6           0        3.402002   -4.014305    0.927065
     48          6           0        4.032172   -3.120765    0.177129
     49          6           0        3.650447   -3.017194   -1.341725
     50          6           0        5.124428   -2.341955    0.700719
     51          6           0        6.570889   -2.538737    0.109309
     52          6           0        7.671665   -1.712016    0.704403
     53          6           0        9.142877   -1.989885    0.096975
     54          6           0        9.604092   -3.426282    0.354962
     55          6           0       10.116251   -0.822934    0.566819
     56          6           0       11.388786   -0.835345   -0.165897
     57          6           0       12.316185    0.257293    0.282087
     58          6           0       13.549131    0.480632   -0.664328
     59          6           0       14.515863   -0.851300   -0.625940
     60          6           0       14.276761    1.788538   -0.266518
     61          6           0       15.516589    2.083464   -1.154170
     62          6           0       16.088090    3.492608   -0.694145
     63          6           0       17.342288    3.903320   -1.361107
     64          6           0       17.192168    4.111940   -2.956165
     65          6           0       17.910223    5.176805   -0.787183
     66          1           0       -2.502867    1.067456    3.548347
     67          1           0       -6.644821    5.408774    0.892170
     68          1           0       -8.856325    1.242933   -3.088990
     69          1           0       -3.515954   -3.323078    1.981031
     70          1           0       -1.948713   -1.055831    2.556417
     71          1           0       -2.793374   -2.770648    4.179740
     72          1           0       -3.010725   -0.957726    4.808676
     73          1           0       -4.364660   -1.905078    4.218391
     74          1           0       -2.435015   -3.043626   -0.266413
     75          1           0       -1.391017   -1.588770    0.536213
     76          1           0       -0.586305   -3.200811    2.419020
     77          1           0       -1.458411   -4.538637    1.664051
     78          1           0       -1.782720    3.768116    3.983082
     79          1           0       -3.005838    4.757101    4.802335
     80          1           0       -2.981636    2.956539    5.110720
     81          1           0       -5.336825    6.658850    2.264121
     82          1           0      -10.265056    2.856090   -3.086156
     83          1           0      -10.254346    4.496002   -2.821238
     84          1           0       -9.818110    3.880296   -5.150768
     85          1           0       -8.508259    4.915155   -4.612963
     86          1           0       -8.450215    3.262605   -4.967090
     87          1           0       -8.227080   -1.345552   -4.812481
     88          1           0       -8.422506   -2.633625   -4.220579
     89          1           0       -9.503304   -1.508915   -3.472672
     90          1           0       -4.072310   -3.867690   -1.321043
     91          1           0        2.566682   -6.056306    0.994991
     92          1           0        2.276719   -4.976825   -0.448963
     93          1           0        3.760434   -3.908413    1.874521
     94          1           0        2.708468   -3.156070   -1.551682
     95          1           0        4.020337   -1.878164   -1.581849
     96          1           0        4.359755   -3.579327   -2.010640
     97          1           0        4.858891   -1.263548    0.613319
     98          1           0        5.151807   -2.198982    1.735367
     99          1           0        6.888042   -3.627387    0.299338
    100          1           0        6.460415   -2.250012   -0.877978
    101          1           0        7.439515   -0.682667    0.532737
    102          1           0        7.652755   -1.936967    1.825788
    103          1           0        8.870438   -1.766302   -0.953495
    104          1           0        8.998728   -4.119060    0.108664
    105          1           0       10.648422   -3.401156   -0.104971
    106          1           0        9.747320   -3.544879    1.632837
    107          1           0        9.443963    0.049602    0.273441
    108          1           0       10.042173   -0.610998    1.822334
    109          1           0       11.845401   -1.913437    0.254078
    110          1           0       11.362541   -0.845662   -1.201997
    111          1           0       11.627777    1.212220    0.403236
    112          1           0       12.642496    0.062903    1.347116
    113          1           0       12.981506    0.528316   -1.766446
    114          1           0       14.794123   -0.914632    0.553860
    115          1           0       14.024069   -1.743882   -1.027043
    116          1           0       15.497173   -0.867582   -1.239590
    117          1           0       13.323048    2.549071   -0.312880
    118          1           0       14.623057    1.740613    0.665241
    119          1           0       16.320204    1.380880   -1.047486
    120          1           0       15.288823    2.013310   -2.129067
    121          1           0       15.172391    4.027221   -0.676634
    122          1           0       16.134166    3.229139    0.329184
    123          1           0       18.199567    3.306196   -1.107332
    124          1           0       16.495742    4.923638   -3.175961
    125          1           0       18.207964    4.533359   -3.301814
    126          1           0       16.876962    3.316777   -3.471712
    127          1           0       18.333329    5.021068    0.187721
    128          1           0       18.795409    5.749125   -1.584211
    129          1           0       17.005091    5.782230   -0.837168
    130          1           0       -4.913804   -7.886448   -0.109019
    131          1           0       -6.309093   -7.141955    0.839745
    132          1           0       -4.343500   -7.000669    1.466710
    133          8           0       -7.889821    6.818125   -0.398349
    134          1           0       -9.071631    6.276980   -1.813012
 ---------------------------------------------------------------------

 SCF Done:  E(RCAM-B3LYP) =  -3043.39334014     A.U. after   16 cycles

 Excitation energies and oscillator strengths:

 Excited State   1:      Singlet-A      1.9162 eV  647.03 nm  f=0.2619  <S**2>=0.000
     243 -> 246        0.18944
     244 -> 245        0.67653
 This state for optimization and/or second-order correction.
 Total Energy, E(TD-HF/TD-KS) =  -3043.32292045
 Copying the excited state density for this state as the 1-particle RhoCI density.

 The electronic state is 1-A.
 Alpha  occ. eigenvalues --  -46.81190 -19.22266 -19.20160 -19.18095 -19.18025
 Alpha  occ. eigenvalues --  -19.16895 -19.16817 -19.16703 -14.39171 -14.37251
 Alpha  occ. eigenvalues --  -14.36463 -14.36412 -10.35603 -10.34399 -10.31615
 Alpha  occ. eigenvalues --  -10.30689 -10.29530 -10.29247 -10.27568 -10.27434
 Alpha  occ. eigenvalues --  -10.27282 -10.26920 -10.26789 -10.26215 -10.26062
 Alpha  occ. eigenvalues --  -10.25968 -10.25834 -10.25684 -10.25630 -10.25316
 Alpha  occ. eigenvalues --  -10.24808 -10.24789 -10.24701 -10.24535 -10.24422
 Alpha  occ. eigenvalues --  -10.24109 -10.23851 -10.23803 -10.23695 -10.23588
 Alpha  occ. eigenvalues --  -10.23270 -10.22920 -10.22919 -10.22692 -10.22685
 Alpha  occ. eigenvalues --  -10.22629 -10.22588 -10.22577 -10.22155 -10.21812
 Alpha  occ. eigenvalues --  -10.21592 -10.21522 -10.21382 -10.21349 -10.21318
 Alpha  occ. eigenvalues --  -10.21275 -10.21110 -10.21090 -10.21009 -10.20859
 Alpha  occ. eigenvalues --  -10.20812 -10.19885 -10.19875 -10.19652 -10.19426
 Alpha  occ. eigenvalues --  -10.19425  -3.09822  -1.84756  -1.84302  -1.84228
 Alpha  occ. eigenvalues --   -1.12754  -1.10941  -1.10079  -1.06649  -1.05494
 Alpha  occ. eigenvalues --   -1.04651  -1.02204  -1.01975  -0.99833  -0.98876
 Alpha  occ. eigenvalues --   -0.97685  -0.87816  -0.86852  -0.86389  -0.85520
 Alpha  occ. eigenvalues --   -0.85286  -0.84991  -0.84550  -0.84320  -0.83441
 Alpha  occ. eigenvalues --   -0.82810  -0.82420  -0.81832  -0.80580  -0.80000
 Alpha  occ. eigenvalues --   -0.79500  -0.78789  -0.78303  -0.77151  -0.76267
 Alpha  occ. eigenvalues --   -0.75432  -0.74805  -0.73835  -0.72656  -0.72503
 Alpha  occ. eigenvalues --   -0.71884  -0.70846  -0.70289  -0.70048  -0.69619
 Alpha  occ. eigenvalues --   -0.69607  -0.68789  -0.67734  -0.67576  -0.66667
 Alpha  occ. eigenvalues --   -0.65812  -0.65043  -0.64358  -0.62886  -0.62215
 Alpha  occ. eigenvalues --   -0.62033  -0.60546  -0.60227  -0.59341  -0.58830
 Alpha  occ. eigenvalues --   -0.58483  -0.58313  -0.57935  -0.57496  -0.57124
 Alpha  occ. eigenvalues --   -0.56589  -0.56084  -0.55658  -0.55619  -0.54676
 Alpha  occ. eigenvalues --   -0.54020  -0.53643  -0.53266  -0.52867  -0.52381
 Alpha  occ. eigenvalues --   -0.51864  -0.51222  -0.51054  -0.50775  -0.50746
 Alpha  occ. eigenvalues --   -0.50526  -0.50171  -0.49812  -0.49516  -0.48887
 Alpha  occ. eigenvalues --   -0.48838  -0.48672  -0.48448  -0.48320  -0.48079
 Alpha  occ. eigenvalues --   -0.47879  -0.47785  -0.47436  -0.47382  -0.47295
 Alpha  occ. eigenvalues --   -0.46880  -0.46816  -0.46274  -0.46076  -0.45996
 Alpha  occ. eigenvalues --   -0.45811  -0.45662  -0.45459  -0.45122  -0.44810
 Alpha  occ. eigenvalues --   -0.44503  -0.44184  -0.44078  -0.43944  -0.43666
 Alpha  occ. eigenvalues --   -0.43577  -0.43514  -0.43443  -0.43158  -0.43105
 Alpha  occ. eigenvalues --   -0.42885  -0.42666  -0.42089  -0.41992  -0.41913
 Alpha  occ. eigenvalues --   -0.41790  -0.41765  -0.41311  -0.41083  -0.40888
 Alpha  occ. eigenvalues --   -0.40792  -0.40697  -0.40289  -0.40152  -0.40096
 Alpha  occ. eigenvalues --   -0.39971  -0.39710  -0.39407  -0.39154  -0.38998
 Alpha  occ. eigenvalues --   -0.38908  -0.38606  -0.38514  -0.38303  -0.38121
 Alpha  occ. eigenvalues --   -0.37793  -0.37600  -0.37167  -0.36964  -0.36796
 Alpha  occ. eigenvalues --   -0.36636  -0.36616  -0.36461  -0.35869  -0.35729
 Alpha  occ. eigenvalues --   -0.35239  -0.35063  -0.34868  -0.34469  -0.34444
 Alpha  occ. eigenvalues --   -0.34275  -0.33763  -0.33695  -0.33167  -0.33156
 Alpha  occ. eigenvalues --   -0.32706  -0.32576  -0.32148  -0.31783  -0.31428
 Alpha  occ. eigenvalues --   -0.31267  -0.31161  -0.30647  -0.30409  -0.30177
 Alpha  occ. eigenvalues --   -0.29062  -0.28485  -0.28204  -0.28016  -0.27853
 Alpha  occ. eigenvalues --   -0.27655  -0.27155  -0.23834  -0.20290
 Alpha virt. eigenvalues --   -0.08279  -0.06141  -0.02044  -0.00294   0.00550
 Alpha virt. eigenvalues --    0.02418   0.02988   0.03176   0.03768   0.04961
 Alpha virt. eigenvalues --    0.05071   0.06017   0.07957   0.08524   0.09382

 Mulliken charges:
               1
     1  Mg   0.825795
     2  C    0.075412
     3  C   -0.210724
     4  C   -0.136838
     5  C   -0.180222
     6  N   -0.651645
     7  C    0.251124
     8  C   -0.116906
     9  C   -0.158446
    10  C    0.397055
    11  C   -0.322827
    12  C   -0.160674
    13  C   -0.279168
    14  C    0.615655
    15  O   -0.470850
    16  O   -0.513279
    17  N   -0.704618
    18  C    0.359329
    19  C    0.040418
    20  C   -0.056495
    21  C    0.251975
    22  C   -0.385101
    23  C    0.271747
    24  O   -0.372840
    25  N   -0.688259
    26  C    0.282170
    27  C   -0.040286
    28  C    0.037019
    29  C    0.328478
    30  C    0.265706
    31  C   -0.277951
    32  C   -0.284549
    33  N   -0.710796
    34  C    0.258939
    35  C    0.024664
    36  C    0.041764
    37  C    0.278115
    38  C   -0.349471
    39  C    0.362015
    40  O   -0.468530
    41  C   -0.290917
    42  C    0.607949
    43  O   -0.450509
    44  O   -0.454348
    45  C   -0.068321
    46  C    0.001399
    47  C   -0.089724
    48  C    0.148299
    49  C   -0.366216
    50  C   -0.261255
    51  C   -0.159274
    52  C   -0.186027
    53  C   -0.059942
    54  C   -0.275910
    55  C   -0.163361
    56  C   -0.146810
    57  C   -0.166872
    58  C   -0.058332
    59  C   -0.308598
    60  C   -0.164715
    61  C   -0.196785
    62  C   -0.170440
    63  C   -0.063171
    64  C   -0.312380
    65  C   -0.283865
    66  H    0.092869
    67  H    0.090795
    68  H    0.086142
    69  H    0.130387
    70  H    0.110306
    71  H    0.096817
    72  H    0.110161
    73  H    0.114042
    74  H    0.117823
    75  H    0.099089
    76  H    0.144172
    77  H    0.137252
    78  H    0.133705
    79  H    0.145312
    80  H    0.101081
    81  H    0.094986
    82  H    0.080779
    83  H    0.125779
    84  H    0.120687
    85  H    0.112586
    86  H    0.123650
    87  H    0.128024
    88  H    0.145235
    89  H    0.114487
    90  H    0.163774
    91  H    0.116367
    92  H    0.126530
    93  H    0.064175
    94  H    0.155637
    95  H    0.072580
    96  H    0.112286
    97  H    0.091530
    98  H    0.098971
    99  H    0.088194
   100  H    0.103010
   101  H    0.086888
   102  H    0.075709
   103  H    0.086147
   104  H    0.117084
   105  H    0.099562
   106  H    0.056394
   107  H    0.080134
   108  H    0.066818
   109  H    0.073380
   110  H    0.104154
   111  H    0.071586
   112  H    0.088768
   113  H    0.051319
   114  H    0.082512
   115  H    0.111017
   116  H    0.097174
   117  H    0.072731
   118  H    0.106850
   119  H    0.097307
   120  H    0.101541
   121  H    0.098742
   122  H    0.091343
   123  H    0.092642
   124  H    0.101806
   125  H    0.089720
   126  H    0.112750
   127  H    0.105793
   128  H    0.047260
   129  H    0.103659
   130  H    0.140879
   131  H    0.137169
   132  H    0.083344
   133  O   -0.429892
   134  H    0.061708
 Sum of Mulliken charges =   0.00000

 Dipole moment (field-independent basis, Debye):
    X=              1.3496    Y=             -3.5875    Z=             -1.4267  Tot=              4.0899
 Quadrupole moment (field-independent basis, Debye-Ang):
   XX=           -377.1236   YY=           -438.1237   ZZ=           -391.3350
   XY=             -3.4134   XZ=             25.9872   YZ=            -28.8783

 Normal termination of Gaussian 09 at Sat Oct  5 13:16:44 2019.
