 Gaussian 09, Revision D.01,
 Gaussian 09:  ES64L-G09RevD.01 24-Apr-2013

 ----------------------------------------------------------------------
 # td=(NStates=1) iop(3/107=0140000000,3/108=0140000000) iop(3/107=0140
 000000,3/108=0140000000) CAM-B3LYP/6-31G(d,p)
 ----------------------------------------------------------------------

 --
 TD
 --
 Symbolic Z-matrix:
 Charge =  0 Multiplicity = 1

                         Standard orientation:
 ---------------------------------------------------------------------
 Center     Atomic      Atomic             Coordinates (Angstroms)
 Number     Number       Type             X           Y           Z
 ---------------------------------------------------------------------
      1         12           0       -5.685976    1.262669    0.258235
      2          6           0       -4.919179   -2.110969   -0.454606
      3          6           0       -3.483828    1.126365    2.910918
      4          6           0       -6.192706    4.503871    0.603980
      5          6           0       -8.002726    1.191164   -2.306711
      6          7           0       -4.265531   -0.256479    0.979829
      7          6           0       -4.234770   -1.559291    0.589352
      8          6           0       -3.333321   -2.279148    1.438677
      9          6           0       -3.030379   -1.339940    2.651836
     10          6           0       -3.711318   -0.088650    2.178499
     11          6           0       -3.385361   -1.842359    4.095695
     12          6           0       -1.989488   -2.689956    0.703960
     13          6           0       -1.019546   -3.592373    1.398134
     14          6           0        0.239823   -3.940374    0.703505
     15          8           0        0.661230   -3.484722   -0.304318
     16          8           0        1.086390   -4.818242    1.384864
     17          7           0       -4.973308    2.622022    1.541305
     18          6           0       -4.069658    2.357471    2.568068
     19          6           0       -3.835083    3.651620    3.190096
     20          6           0       -4.612719    4.571581    2.610953
     21          6           0       -5.280864    3.927899    1.515767
     22          6           0       -2.975192    3.779421    4.473551
     23          6           0       -4.842593    5.952238    3.026643
     24          8           0       -4.239614    6.500197    4.012043
     25          7           0       -6.907778    2.603518   -0.683221
     26          6           0       -6.940280    3.920479   -0.399079
     27          6           0       -7.858108    4.645325   -1.250060
     28          6           0       -8.408862    3.660159   -2.067543
     29          6           0       -7.764231    2.403165   -1.774874
     30          6           0       -8.190475    6.002271   -1.374026
     31          6           0       -9.366562    3.803125   -3.224786
     32          6           0       -8.785667    3.964804   -4.613179
     33          7           0       -6.428615   -0.180830   -1.067169
     34          6           0       -7.447837   -0.027960   -2.011510
     35          6           0       -7.533510   -1.339166   -2.772837
     36          6           0       -6.624213   -2.155810   -2.097522
     37          6           0       -5.948887   -1.422839   -1.144516
     38          6           0       -8.548771   -1.613124   -3.778602
     39          6           0       -6.130661   -3.636950   -2.155905
     40          8           0       -6.364878   -4.577224   -2.809975
     41          6           0       -4.947115   -3.548417   -0.943744
     42          6           0       -5.178574   -4.637181    0.104564
     43          8           0       -5.555322   -4.409045    1.170347
     44          8           0       -5.038341   -5.877912   -0.447000
     45          6           0       -5.435140   -6.887908    0.411054
     46          6           0        2.308561   -5.044146    0.703813
     47          6           0        3.411202   -4.117686    1.107127
     48          6           0        3.951240   -3.244760    0.274782
     49          6           0        3.694041   -3.002429   -1.240249
     50          6           0        5.239072   -2.409018    0.735866
     51          6           0        6.604913   -2.593093   -0.038352
     52          6           0        7.672796   -1.784695    0.542786
     53          6           0        9.025013   -1.936088   -0.086581
     54          6           0        9.503967   -3.438671   -0.037394
     55          6           0        9.976793   -0.945494    0.437869
     56          6           0       11.299061   -0.780356   -0.384047
     57          6           0       12.252845    0.335899    0.225114
     58          6           0       13.551242    0.460267   -0.609089
     59          6           0       14.428020   -0.716327   -0.370340
     60          6           0       14.173894    1.766545   -0.177787
     61          6           0       15.442695    2.206226   -1.012059
     62          6           0       15.968435    3.490145   -0.604709
     63          6           0       17.280441    3.966327   -1.376694
     64          6           0       17.077098    4.081948   -2.872858
     65          6           0       17.994826    5.196385   -0.778798
     66          1           0       -2.835663    1.030245    3.650781
     67          1           0       -6.330190    5.690771    0.834431
     68          1           0       -8.677722    0.981003   -3.239637
     69          1           0       -3.603179   -2.902101    2.055967
     70          1           0       -1.949536   -1.166484    2.787469
     71          1           0       -2.636795   -2.734837    4.397041
     72          1           0       -3.276884   -1.020352    4.878158
     73          1           0       -4.438788   -2.163615    3.999813
     74          1           0       -2.049541   -3.128394   -0.262319
     75          1           0       -1.367706   -1.831067    0.143439
     76          1           0       -0.687270   -3.337216    2.488991
     77          1           0       -1.270745   -4.575126    1.624679
     78          1           0       -1.856821    3.378586    4.398560
     79          1           0       -2.825193    4.822390    4.719829
     80          1           0       -3.391154    3.224947    5.150587
     81          1           0       -5.751647    6.546654    2.468418
     82          1           0       -9.981245    2.863756   -3.307401
     83          1           0      -10.129818    4.479706   -3.021855
     84          1           0       -9.568936    4.328665   -5.496486
     85          1           0       -8.063369    4.595040   -4.794562
     86          1           0       -8.353246    3.032914   -4.728787
     87          1           0       -8.185259   -1.004212   -4.806943
     88          1           0       -8.627982   -2.736909   -3.948079
     89          1           0       -9.581878   -1.227017   -3.327172
     90          1           0       -3.927898   -3.814623   -1.422291
     91          1           0        2.433793   -6.221982    0.923418
     92          1           0        2.313984   -5.166750   -0.384873
     93          1           0        3.931001   -4.005585    2.148353
     94          1           0        2.751930   -3.435531   -1.654173
     95          1           0        3.843985   -1.931931   -1.504617
     96          1           0        4.560852   -3.622323   -1.857737
     97          1           0        5.054373   -1.357821    0.744929
     98          1           0        5.364660   -2.704066    1.825400
     99          1           0        6.852210   -3.689273    0.147220
    100          1           0        6.480413   -2.581488   -1.193669
    101          1           0        7.462368   -0.727231    0.330554
    102          1           0        7.720393   -2.067235    1.685880
    103          1           0        8.976817   -1.887183   -1.062542
    104          1           0        8.768373   -4.180944   -0.459510
    105          1           0       10.395909   -3.556540   -0.516364
    106          1           0        9.840338   -3.564966    1.166566
    107          1           0        9.668730    0.128594    0.490012
    108          1           0       10.261248   -1.068454    1.467457
    109          1           0       12.002044   -1.853413   -0.363376
    110          1           0       11.084739   -0.630529   -1.464885
    111          1           0       11.856848    1.308997    0.034764
    112          1           0       12.538495    0.248694    1.271423
    113          1           0       13.449172    0.692885   -1.817065
    114          1           0       14.744226   -0.651160    0.619211
    115          1           0       14.031136   -1.565472   -0.586289
    116          1           0       15.409514   -0.544259   -0.965237
    117          1           0       13.281873    2.600362   -0.014532
    118          1           0       14.673283    1.706935    1.089236
    119          1           0       16.321604    1.336180   -1.042142
    120          1           0       15.035963    2.286484   -2.020986
    121          1           0       15.183155    4.317802   -0.503622
    122          1           0       16.354912    3.636712    0.561933
    123          1           0       17.890921    3.039539   -1.206355
    124          1           0       16.437155    4.775245   -3.055306
    125          1           0       18.100692    4.510082   -3.178181
    126          1           0       16.781711    3.148093   -3.311615
    127          1           0       17.901378    5.279203    0.339497
    128          1           0       18.753291    5.189401   -1.202983
    129          1           0       17.427580    6.143253   -1.224058
    130          1           0       -5.272377   -7.651445   -0.221467
    131          1           0       -6.490818   -6.850152    0.763283
    132          1           0       -5.018336   -6.804652    1.365499
    133          8           0       -7.655806    6.956316   -0.670617
    134          1           0       -9.092145    6.217457   -2.047378
 ---------------------------------------------------------------------

 SCF Done:  E(RCAM-B3LYP) =  -3043.33483475     A.U. after   15 cycles

 Excitation energies and oscillator strengths:

 Excited State   1:      Singlet-A      2.0719 eV  598.42 nm  f=0.1609  <S**2>=0.000
     243 -> 246       -0.27806
     244 -> 245        0.64025
 This state for optimization and/or second-order correction.
 Total Energy, E(TD-HF/TD-KS) =  -3043.25869525
 Copying the excited state density for this state as the 1-particle RhoCI density.

 The electronic state is 1-A.
 Alpha  occ. eigenvalues --  -46.82011 -19.22528 -19.21255 -19.19868 -19.18302
 Alpha  occ. eigenvalues --  -19.17260 -19.17148 -19.16419 -14.39350 -14.37378
 Alpha  occ. eigenvalues --  -14.36894 -14.36729 -10.34979 -10.34691 -10.33676
 Alpha  occ. eigenvalues --  -10.31589 -10.30390 -10.28192 -10.27851 -10.27278
 Alpha  occ. eigenvalues --  -10.27226 -10.26727 -10.26528 -10.26346 -10.26194
 Alpha  occ. eigenvalues --  -10.25864 -10.25734 -10.25679 -10.25588 -10.25549
 Alpha  occ. eigenvalues --  -10.25236 -10.25022 -10.24747 -10.24636 -10.24582
 Alpha  occ. eigenvalues --  -10.24573 -10.24245 -10.24207 -10.24075 -10.24004
 Alpha  occ. eigenvalues --  -10.23298 -10.23272 -10.23094 -10.23057 -10.23052
 Alpha  occ. eigenvalues --  -10.23028 -10.23005 -10.22661 -10.22409 -10.22352
 Alpha  occ. eigenvalues --  -10.22297 -10.21824 -10.21777 -10.21595 -10.21508
 Alpha  occ. eigenvalues --  -10.21468 -10.21392 -10.21254 -10.20980 -10.20964
 Alpha  occ. eigenvalues --  -10.20864 -10.20604 -10.20020 -10.19284 -10.18828
 Alpha  occ. eigenvalues --  -10.18339  -3.10522  -1.85472  -1.85000  -1.84910
 Alpha  occ. eigenvalues --   -1.16061  -1.13876  -1.11432  -1.08288  -1.04841
 Alpha  occ. eigenvalues --   -1.03518  -1.02078  -1.01982  -1.00621  -1.00226
 Alpha  occ. eigenvalues --   -0.99404  -0.88444  -0.86900  -0.86349  -0.86028
 Alpha  occ. eigenvalues --   -0.85347  -0.84710  -0.84616  -0.84105  -0.83730
 Alpha  occ. eigenvalues --   -0.83676  -0.83441  -0.82888  -0.80632  -0.80088
 Alpha  occ. eigenvalues --   -0.79845  -0.78712  -0.78395  -0.78170  -0.76285
 Alpha  occ. eigenvalues --   -0.75341  -0.75286  -0.73935  -0.73538  -0.72493
 Alpha  occ. eigenvalues --   -0.72451  -0.71521  -0.70563  -0.70187  -0.70117
 Alpha  occ. eigenvalues --   -0.69492  -0.69275  -0.67979  -0.67528  -0.67181
 Alpha  occ. eigenvalues --   -0.66509  -0.64569  -0.64256  -0.63493  -0.62278
 Alpha  occ. eigenvalues --   -0.61993  -0.61904  -0.60201  -0.59954  -0.59163
 Alpha  occ. eigenvalues --   -0.58858  -0.58786  -0.57887  -0.57607  -0.56949
 Alpha  occ. eigenvalues --   -0.56291  -0.55720  -0.55519  -0.55184  -0.54749
 Alpha  occ. eigenvalues --   -0.54371  -0.54143  -0.53361  -0.52630  -0.52357
 Alpha  occ. eigenvalues --   -0.52067  -0.51808  -0.51628  -0.51127  -0.50838
 Alpha  occ. eigenvalues --   -0.50719  -0.50081  -0.50008  -0.49457  -0.49250
 Alpha  occ. eigenvalues --   -0.48915  -0.48779  -0.48472  -0.48253  -0.48173
 Alpha  occ. eigenvalues --   -0.48030  -0.47948  -0.47865  -0.47511  -0.47171
 Alpha  occ. eigenvalues --   -0.47031  -0.46750  -0.46546  -0.46348  -0.46185
 Alpha  occ. eigenvalues --   -0.45868  -0.45756  -0.45645  -0.45183  -0.44995
 Alpha  occ. eigenvalues --   -0.44712  -0.44621  -0.44583  -0.44365  -0.44239
 Alpha  occ. eigenvalues --   -0.43887  -0.43555  -0.43303  -0.43242  -0.43076
 Alpha  occ. eigenvalues --   -0.42833  -0.42733  -0.42426  -0.42259  -0.42204
 Alpha  occ. eigenvalues --   -0.41903  -0.41817  -0.41426  -0.41317  -0.40965
 Alpha  occ. eigenvalues --   -0.40898  -0.40831  -0.40588  -0.40531  -0.40395
 Alpha  occ. eigenvalues --   -0.40194  -0.39870  -0.39776  -0.39572  -0.39417
 Alpha  occ. eigenvalues --   -0.39356  -0.39265  -0.38584  -0.38458  -0.38406
 Alpha  occ. eigenvalues --   -0.38283  -0.38034  -0.37471  -0.37321  -0.37091
 Alpha  occ. eigenvalues --   -0.36980  -0.36676  -0.35808  -0.35596  -0.35477
 Alpha  occ. eigenvalues --   -0.35314  -0.35227  -0.34740  -0.34687  -0.34266
 Alpha  occ. eigenvalues --   -0.33978  -0.33756  -0.33416  -0.33294  -0.32796
 Alpha  occ. eigenvalues --   -0.32399  -0.32193  -0.32088  -0.32036  -0.31848
 Alpha  occ. eigenvalues --   -0.31704  -0.31412  -0.30687  -0.30229  -0.30225
 Alpha  occ. eigenvalues --   -0.28990  -0.28642  -0.28508  -0.28199  -0.27751
 Alpha  occ. eigenvalues --   -0.27619  -0.27401  -0.23528  -0.21930
 Alpha virt. eigenvalues --   -0.08678  -0.07095  -0.02094  -0.01569   0.00015
 Alpha virt. eigenvalues --    0.03033   0.03422   0.03855   0.04207   0.04428
 Alpha virt. eigenvalues --    0.04550   0.05321   0.07328   0.07899   0.08735

 Mulliken charges:
               1
     1  Mg   0.831629
     2  C    0.112933
     3  C   -0.148103
     4  C   -0.194541
     5  C   -0.174679
     6  N   -0.622782
     7  C    0.286184
     8  C   -0.077833
     9  C   -0.207192
    10  C    0.350937
    11  C   -0.315712
    12  C   -0.203618
    13  C   -0.253122
    14  C    0.578076
    15  O   -0.444226
    16  O   -0.482047
    17  N   -0.757371
    18  C    0.320190
    19  C    0.007500
    20  C    0.023100
    21  C    0.339327
    22  C   -0.371378
    23  C    0.223927
    24  O   -0.437361
    25  N   -0.721804
    26  C    0.337246
    27  C    0.063032
    28  C    0.013251
    29  C    0.314410
    30  C    0.191124
    31  C   -0.263607
    32  C   -0.289352
    33  N   -0.730321
    34  C    0.246904
    35  C    0.028872
    36  C   -0.027292
    37  C    0.327641
    38  C   -0.382996
    39  C    0.398504
    40  O   -0.389295
    41  C   -0.365964
    42  C    0.613105
    43  O   -0.428721
    44  O   -0.442914
    45  C   -0.083318
    46  C    0.006646
    47  C   -0.125264
    48  C    0.148584
    49  C   -0.356430
    50  C   -0.234111
    51  C   -0.182562
    52  C   -0.139261
    53  C   -0.043349
    54  C   -0.312820
    55  C   -0.171939
    56  C   -0.177556
    57  C   -0.170873
    58  C   -0.051009
    59  C   -0.279101
    60  C   -0.143657
    61  C   -0.160839
    62  C   -0.152316
    63  C   -0.070990
    64  C   -0.298127
    65  C   -0.273594
    66  H    0.074861
    67  H    0.132592
    68  H    0.092353
    69  H    0.111122
    70  H    0.123422
    71  H    0.099849
    72  H    0.117163
    73  H    0.128282
    74  H    0.123015
    75  H    0.113853
    76  H    0.129219
    77  H    0.147670
    78  H    0.093409
    79  H    0.161740
    80  H    0.139612
    81  H    0.086349
    82  H    0.105571
    83  H    0.117140
    84  H    0.084873
    85  H    0.131124
    86  H    0.113543
    87  H    0.114122
    88  H    0.145000
    89  H    0.125153
    90  H    0.143775
    91  H    0.083449
    92  H    0.128011
    93  H    0.074796
    94  H    0.135906
    95  H    0.116083
    96  H    0.086065
    97  H    0.104763
    98  H    0.080224
    99  H    0.093670
   100  H    0.083608
   101  H    0.089057
   102  H    0.079192
   103  H    0.094365
   104  H    0.104529
   105  H    0.114657
   106  H    0.059071
   107  H    0.089209
   108  H    0.094424
   109  H    0.047676
   110  H    0.096515
   111  H    0.093110
   112  H    0.103723
   113  H    0.055380
   114  H    0.108412
   115  H    0.110110
   116  H    0.077451
   117  H    0.072572
   118  H    0.017367
   119  H    0.078667
   120  H    0.101885
   121  H    0.078807
   122  H    0.050698
   123  H    0.076533
   124  H    0.117979
   125  H    0.080256
   126  H    0.105085
   127  H    0.102826
   128  H    0.106965
   129  H    0.071827
   130  H    0.126558
   131  H    0.109943
   132  H    0.125132
   133  O   -0.464139
   134  H    0.078996
 Sum of Mulliken charges =   0.00000

 Dipole moment (field-independent basis, Debye):
    X=             -0.1177    Y=             -5.7147    Z=             -1.7229  Tot=              5.9699
 Quadrupole moment (field-independent basis, Debye-Ang):
   XX=           -376.4285   YY=           -454.8982   ZZ=           -392.4012
   XY=             28.4085   XZ=             13.6317   YZ=            -30.4011

 Normal termination of Gaussian 09 at Thu Oct  3 20:22:57 2019.
