 Gaussian 09, Revision D.01,
 Gaussian 09:  ES64L-G09RevD.01 24-Apr-2013

 ----------------------------------------------------------------------
 # td=(NStates=1) iop(3/107=0140000000,3/108=0140000000) iop(3/107=0140
 000000,3/108=0140000000) CAM-B3LYP/6-31G(d,p)
 ----------------------------------------------------------------------

 --
 TD
 --
 Symbolic Z-matrix:
 Charge =  0 Multiplicity = 1

                         Standard orientation:
 ---------------------------------------------------------------------
 Center     Atomic      Atomic             Coordinates (Angstroms)
 Number     Number       Type             X           Y           Z
 ---------------------------------------------------------------------
      1         12           0       -5.577364    1.211692    0.204926
      2          6           0       -4.985623   -2.087056   -0.313843
      3          6           0       -3.275031    1.291051    2.608514
      4          6           0       -6.283403    4.573425    0.610944
      5          6           0       -7.905144    1.099743   -2.374473
      6          7           0       -4.240789   -0.219608    1.029432
      7          6           0       -4.248201   -1.588875    0.804323
      8          6           0       -3.210211   -2.293490    1.624911
      9          6           0       -2.763643   -1.114338    2.640995
     10          6           0       -3.374311    0.097637    2.129323
     11          6           0       -3.449028   -1.526312    4.039026
     12          6           0       -1.962713   -2.718194    0.681364
     13          6           0       -1.018855   -3.575750    1.435585
     14          6           0        0.187762   -3.990798    0.540882
     15          8           0        0.266573   -3.585696   -0.516855
     16          8           0        1.101788   -4.669551    1.338030
     17          7           0       -4.887579    2.697552    1.366568
     18          6           0       -3.928157    2.495279    2.430959
     19          6           0       -3.723604    3.804131    3.067442
     20          6           0       -4.637552    4.637883    2.514148
     21          6           0       -5.374769    3.959688    1.480781
     22          6           0       -2.792346    3.964829    4.219892
     23          6           0       -4.751512    6.087164    2.807327
     24          8           0       -4.232179    6.663663    3.748531
     25          7           0       -6.881093    2.538115   -0.625150
     26          6           0       -6.919102    3.935038   -0.405067
     27          6           0       -7.929914    4.614724   -1.286718
     28          6           0       -8.425048    3.503751   -2.088334
     29          6           0       -7.756829    2.358293   -1.722415
     30          6           0       -8.269072    5.900067   -1.340446
     31          6           0       -9.477525    3.639322   -3.214625
     32          6           0       -8.670674    3.848286   -4.598261
     33          7           0       -6.313627   -0.241345   -1.026581
     34          6           0       -7.296950   -0.074770   -2.055870
     35          6           0       -7.481209   -1.434425   -2.604000
     36          6           0       -6.584121   -2.241611   -1.964161
     37          6           0       -5.904941   -1.471502   -1.067859
     38          6           0       -8.430359   -1.788471   -3.797017
     39          6           0       -6.068973   -3.606542   -1.861881
     40          8           0       -6.399290   -4.602566   -2.494695
     41          6           0       -4.953114   -3.596638   -0.831701
     42          6           0       -5.283713   -4.701752    0.167785
     43          8           0       -5.649328   -4.444387    1.343921
     44          8           0       -4.900741   -5.867441   -0.254631
     45          6           0       -5.107598   -6.977129    0.672351
     46          6           0        2.280395   -5.035013    0.543654
     47          6           0        3.480845   -4.106948    0.800151
     48          6           0        3.929088   -3.146120    0.092727
     49          6           0        3.662493   -3.071142   -1.439365
     50          6           0        5.081734   -2.369192    0.576931
     51          6           0        6.479696   -2.746907    0.032915
     52          6           0        7.564848   -1.754749    0.625556
     53          6           0        8.918646   -1.999474   -0.020223
     54          6           0        9.545844   -3.456472    0.155112
     55          6           0        9.956904   -0.898498    0.423584
     56          6           0       11.328408   -0.759366   -0.233066
     57          6           0       12.223991    0.319142    0.280638
     58          6           0       13.452428    0.556374   -0.491411
     59          6           0       14.392260   -0.669275   -0.497500
     60          6           0       14.149015    1.794039   -0.029854
     61          6           0       15.311491    2.163213   -0.987459
     62          6           0       15.887544    3.572024   -0.661003
     63          6           0       17.164798    3.845000   -1.299955
     64          6           0       17.025416    3.963892   -2.854300
     65          6           0       17.772020    5.262267   -0.814323
     66          1           0       -2.603175    1.264574    3.435711
     67          1           0       -6.310274    5.836153    0.659260
     68          1           0       -8.737204    1.040579   -3.133826
     69          1           0       -3.680224   -3.263703    2.108710
     70          1           0       -1.780192   -1.404434    2.787059
     71          1           0       -2.940286   -2.475770    4.454363
     72          1           0       -3.107376   -0.627093    4.723204
     73          1           0       -4.440303   -1.755224    3.968105
     74          1           0       -2.176772   -3.447207   -0.324956
     75          1           0       -1.561389   -1.756895    0.353187
     76          1           0       -0.514013   -3.162026    2.267659
     77          1           0       -1.483880   -4.582099    1.937104
     78          1           0       -1.801638    3.490173    3.869740
     79          1           0       -2.681207    4.990639    4.647438
     80          1           0       -3.141938    3.201711    4.987360
     81          1           0       -5.394733    6.706679    2.117851
     82          1           0      -10.128710    2.742907   -3.271091
     83          1           0      -10.094815    4.635360   -2.996880
     84          1           0       -9.165465    3.950153   -5.543566
     85          1           0       -8.282360    4.840904   -4.452084
     86          1           0       -8.008506    2.953126   -4.708350
     87          1           0       -8.325853   -1.006405   -4.591259
     88          1           0       -8.318594   -2.742350   -4.053425
     89          1           0       -9.546499   -1.885962   -3.359206
     90          1           0       -4.032765   -3.915930   -1.300203
     91          1           0        2.592826   -6.060115    0.784502
     92          1           0        2.250707   -4.948376   -0.566280
     93          1           0        3.931507   -4.106524    1.853347
     94          1           0        2.643837   -3.243363   -1.848666
     95          1           0        3.935857   -2.227549   -1.698187
     96          1           0        4.188869   -3.722703   -2.128522
     97          1           0        4.866719   -1.418123    0.341201
     98          1           0        5.178877   -2.365594    1.669204
     99          1           0        6.715404   -3.684809    0.309614
    100          1           0        6.559843   -2.614723   -1.026214
    101          1           0        7.277150   -0.745647    0.259997
    102          1           0        7.480034   -1.951202    1.711171
    103          1           0        8.623648   -1.902667   -1.040396
    104          1           0        9.070824   -4.239870   -0.532600
    105          1           0       10.612740   -3.309125    0.142581
    106          1           0        9.348603   -3.795503    1.260551
    107          1           0        9.400815   -0.105843    0.497151
    108          1           0       10.165002   -1.213838    1.535368
    109          1           0       11.948717   -1.725918   -0.241130
    110          1           0       11.259923   -0.456640   -1.438361
    111          1           0       11.558006    1.126166    0.302862
    112          1           0       12.490802    0.181033    1.486391
    113          1           0       13.082232    0.648255   -1.609670
    114          1           0       14.566141   -1.000149    0.558367
    115          1           0       14.004874   -1.735867   -0.781079
    116          1           0       15.229576   -0.569385   -1.086294
    117          1           0       13.332772    2.759016    0.094794
    118          1           0       14.549311    1.549968    0.958220
    119          1           0       16.247577    1.425353   -0.878073
    120          1           0       14.936538    2.102084   -2.026672
    121          1           0       15.100235    4.376594   -0.995155
    122          1           0       16.181601    3.728841    0.404830
    123          1           0       18.008133    3.245767   -0.914412
    124          1           0       16.493692    4.705927   -3.332517
    125          1           0       17.973238    3.894612   -3.205900
    126          1           0       16.727655    2.966418   -3.365836
    127          1           0       17.635941    5.284065    0.500549
    128          1           0       18.826229    5.434534   -1.197730
    129          1           0       17.142983    6.049177   -1.187286
    130          1           0       -5.130682   -7.916062    0.060931
    131          1           0       -6.205615   -6.815577    1.057833
    132          1           0       -4.297215   -6.811668    1.378833
    133          8           0       -7.834495    6.817787   -0.577107
    134          1           0       -9.190663    6.210676   -1.931915
 ---------------------------------------------------------------------

 SCF Done:  E(RCAM-B3LYP) =  -3043.46101995     A.U. after   16 cycles

 Excitation energies and oscillator strengths:

 Excited State   1:      Singlet-A      2.0331 eV  609.81 nm  f=0.1322  <S**2>=0.000
     243 -> 246       -0.29930
     244 -> 245        0.62714
 This state for optimization and/or second-order correction.
 Total Energy, E(TD-HF/TD-KS) =  -3043.38630325
 Copying the excited state density for this state as the 1-particle RhoCI density.

 The electronic state is 1-A.
 Alpha  occ. eigenvalues --  -46.80473 -19.23969 -19.23140 -19.19059 -19.17060
 Alpha  occ. eigenvalues --  -19.16674 -19.16539 -19.15134 -14.38766 -14.37417
 Alpha  occ. eigenvalues --  -14.36777 -14.35782 -10.35514 -10.35160 -10.31265
 Alpha  occ. eigenvalues --  -10.29824 -10.29417 -10.28526 -10.28226 -10.27903
 Alpha  occ. eigenvalues --  -10.26995 -10.26979 -10.26653 -10.26401 -10.26240
 Alpha  occ. eigenvalues --  -10.26011 -10.25718 -10.25313 -10.25213 -10.25031
 Alpha  occ. eigenvalues --  -10.24905 -10.24854 -10.24766 -10.24464 -10.24422
 Alpha  occ. eigenvalues --  -10.24207 -10.24170 -10.24081 -10.23724 -10.23546
 Alpha  occ. eigenvalues --  -10.23345 -10.22906 -10.22813 -10.22465 -10.22301
 Alpha  occ. eigenvalues --  -10.22260 -10.22175 -10.22151 -10.22138 -10.22050
 Alpha  occ. eigenvalues --  -10.22032 -10.21959 -10.21874 -10.21835 -10.21713
 Alpha  occ. eigenvalues --  -10.21403 -10.21368 -10.20926 -10.20859 -10.20764
 Alpha  occ. eigenvalues --  -10.20724 -10.20524 -10.20475 -10.20401 -10.19526
 Alpha  occ. eigenvalues --  -10.19272  -3.09163  -1.84102  -1.83637  -1.83573
 Alpha  occ. eigenvalues --   -1.15749  -1.15262  -1.07698  -1.06763  -1.05985
 Alpha  occ. eigenvalues --   -1.03206  -1.02813  -1.01075  -0.98867  -0.98140
 Alpha  occ. eigenvalues --   -0.97242  -0.88890  -0.86982  -0.86166  -0.86028
 Alpha  occ. eigenvalues --   -0.84997  -0.84693  -0.84358  -0.83644  -0.83557
 Alpha  occ. eigenvalues --   -0.83425  -0.82763  -0.81507  -0.80503  -0.80102
 Alpha  occ. eigenvalues --   -0.78935  -0.78183  -0.78019  -0.77202  -0.76176
 Alpha  occ. eigenvalues --   -0.75289  -0.74992  -0.74030  -0.73768  -0.72779
 Alpha  occ. eigenvalues --   -0.72253  -0.71276  -0.70814  -0.70745  -0.69886
 Alpha  occ. eigenvalues --   -0.69491  -0.69122  -0.67788  -0.66369  -0.66277
 Alpha  occ. eigenvalues --   -0.65463  -0.64998  -0.64222  -0.63308  -0.62987
 Alpha  occ. eigenvalues --   -0.61671  -0.60288  -0.59899  -0.59152  -0.58732
 Alpha  occ. eigenvalues --   -0.58629  -0.57998  -0.57904  -0.57541  -0.57371
 Alpha  occ. eigenvalues --   -0.56151  -0.55598  -0.55473  -0.54968  -0.54694
 Alpha  occ. eigenvalues --   -0.54273  -0.53698  -0.53279  -0.52928  -0.52737
 Alpha  occ. eigenvalues --   -0.52227  -0.51971  -0.51634  -0.51265  -0.51026
 Alpha  occ. eigenvalues --   -0.50934  -0.50103  -0.49867  -0.49786  -0.49296
 Alpha  occ. eigenvalues --   -0.49036  -0.48464  -0.48267  -0.47972  -0.47626
 Alpha  occ. eigenvalues --   -0.47514  -0.47206  -0.47117  -0.47010  -0.46784
 Alpha  occ. eigenvalues --   -0.46412  -0.46289  -0.46034  -0.45894  -0.45738
 Alpha  occ. eigenvalues --   -0.45602  -0.45406  -0.45027  -0.44989  -0.44940
 Alpha  occ. eigenvalues --   -0.44472  -0.44402  -0.43826  -0.43769  -0.43498
 Alpha  occ. eigenvalues --   -0.43147  -0.43113  -0.42910  -0.42807  -0.42626
 Alpha  occ. eigenvalues --   -0.42346  -0.42092  -0.42022  -0.41898  -0.41802
 Alpha  occ. eigenvalues --   -0.41590  -0.41554  -0.41342  -0.41118  -0.40930
 Alpha  occ. eigenvalues --   -0.40850  -0.40583  -0.40307  -0.40188  -0.40099
 Alpha  occ. eigenvalues --   -0.39790  -0.39753  -0.39612  -0.39269  -0.39255
 Alpha  occ. eigenvalues --   -0.38930  -0.38879  -0.38772  -0.38485  -0.38338
 Alpha  occ. eigenvalues --   -0.38049  -0.37840  -0.37721  -0.37445  -0.37213
 Alpha  occ. eigenvalues --   -0.36622  -0.36494  -0.36320  -0.36272  -0.35697
 Alpha  occ. eigenvalues --   -0.35602  -0.35397  -0.35096  -0.34868  -0.34541
 Alpha  occ. eigenvalues --   -0.34476  -0.34248  -0.34141  -0.33711  -0.33435
 Alpha  occ. eigenvalues --   -0.32936  -0.32863  -0.32455  -0.32307  -0.32237
 Alpha  occ. eigenvalues --   -0.31753  -0.31575  -0.31142  -0.30496  -0.30107
 Alpha  occ. eigenvalues --   -0.28786  -0.28347  -0.27911  -0.27816  -0.27257
 Alpha  occ. eigenvalues --   -0.27156  -0.26371  -0.23138  -0.21962
 Alpha virt. eigenvalues --   -0.08796  -0.07216  -0.01662  -0.00404   0.00492
 Alpha virt. eigenvalues --    0.02820   0.03487   0.04013   0.04487   0.04727
 Alpha virt. eigenvalues --    0.05066   0.06212   0.07940   0.08381   0.09231

 Mulliken charges:
               1
     1  Mg   0.807702
     2  C    0.050742
     3  C   -0.189689
     4  C   -0.180955
     5  C   -0.193755
     6  N   -0.634089
     7  C    0.317250
     8  C   -0.178775
     9  C   -0.174506
    10  C    0.387062
    11  C   -0.303315
    12  C   -0.155177
    13  C   -0.276731
    14  C    0.603626
    15  O   -0.389357
    16  O   -0.475266
    17  N   -0.712934
    18  C    0.277994
    19  C    0.085754
    20  C   -0.063007
    21  C    0.349529
    22  C   -0.378886
    23  C    0.245177
    24  O   -0.421788
    25  N   -0.688022
    26  C    0.287829
    27  C    0.083945
    28  C    0.036854
    29  C    0.307328
    30  C    0.141728
    31  C   -0.259439
    32  C   -0.309258
    33  N   -0.761949
    34  C    0.293076
    35  C   -0.043291
    36  C    0.090420
    37  C    0.359155
    38  C   -0.356976
    39  C    0.350645
    40  O   -0.466492
    41  C   -0.304980
    42  C    0.607533
    43  O   -0.508756
    44  O   -0.414671
    45  C   -0.089374
    46  C   -0.019059
    47  C   -0.125220
    48  C    0.134633
    49  C   -0.378339
    50  C   -0.234090
    51  C   -0.179151
    52  C   -0.182627
    53  C   -0.052880
    54  C   -0.319811
    55  C   -0.161276
    56  C   -0.165696
    57  C   -0.141625
    58  C   -0.040524
    59  C   -0.319613
    60  C   -0.143316
    61  C   -0.175290
    62  C   -0.130220
    63  C   -0.066249
    64  C   -0.321558
    65  C   -0.298084
    66  H    0.072694
    67  H    0.158528
    68  H    0.095167
    69  H    0.126662
    70  H    0.113800
    71  H    0.099818
    72  H    0.092402
    73  H    0.144708
    74  H    0.093958
    75  H    0.125691
    76  H    0.139866
    77  H    0.105824
    78  H    0.110332
    79  H    0.160044
    80  H    0.125144
    81  H    0.075268
    82  H    0.112822
    83  H    0.103332
    84  H    0.113115
    85  H    0.123826
    86  H    0.110426
    87  H    0.127023
    88  H    0.156386
    89  H    0.110105
    90  H    0.163646
    91  H    0.115089
    92  H    0.130175
    93  H    0.059928
    94  H    0.129184
    95  H    0.110496
    96  H    0.117051
    97  H    0.103965
    98  H    0.091988
    99  H    0.112053
   100  H    0.093030
   101  H    0.090530
   102  H    0.087820
   103  H    0.085586
   104  H    0.100642
   105  H    0.113758
   106  H    0.081343
   107  H    0.092787
   108  H    0.073116
   109  H    0.088306
   110  H    0.053735
   111  H    0.097549
   112  H    0.047347
   113  H    0.064710
   114  H    0.096792
   115  H    0.086915
   116  H    0.116438
   117  H    0.060715
   118  H    0.098134
   119  H    0.078050
   120  H    0.100709
   121  H    0.072993
   122  H    0.080126
   123  H    0.095382
   124  H    0.116894
   125  H    0.111811
   126  H    0.078518
   127  H    0.046820
   128  H    0.100086
   129  H    0.110425
   130  H    0.139160
   131  H    0.141926
   132  H    0.141308
   133  O   -0.465501
   134  H    0.059608
 Sum of Mulliken charges =   0.00000

 Dipole moment (field-independent basis, Debye):
    X=              3.6533    Y=             -7.2566    Z=             -2.0010  Tot=              8.3671
 Quadrupole moment (field-independent basis, Debye-Ang):
   XX=           -381.9102   YY=           -442.1926   ZZ=           -393.7956
   XY=             26.7287   XZ=             16.4205   YZ=            -32.8074

 Normal termination of Gaussian 09 at Fri Oct  4 00:28:34 2019.
