 Gaussian 09, Revision D.01,
 Gaussian 09:  ES64L-G09RevD.01 24-Apr-2013

 ----------------------------------------------------------------------
 # td=(NStates=1) iop(3/107=0140000000,3/108=0140000000) iop(3/107=0140
 000000,3/108=0140000000) CAM-B3LYP/6-31G(d,p)
 ----------------------------------------------------------------------

 --
 TD
 --
 Symbolic Z-matrix:
 Charge =  0 Multiplicity = 1

                         Standard orientation:
 ---------------------------------------------------------------------
 Center     Atomic      Atomic             Coordinates (Angstroms)
 Number     Number       Type             X           Y           Z
 ---------------------------------------------------------------------
      1         12           0       -5.673008    1.201500    0.184298
      2          6           0       -5.014873   -2.245065   -0.310621
      3          6           0       -3.526769    1.128421    2.699688
      4          6           0       -6.252099    4.453926    0.662633
      5          6           0       -8.080141    1.077040   -2.349168
      6          7           0       -4.370383   -0.326892    1.003483
      7          6           0       -4.210806   -1.587618    0.664849
      8          6           0       -3.195269   -2.276609    1.469310
      9          6           0       -2.989530   -1.285227    2.585198
     10          6           0       -3.661633   -0.066426    2.117849
     11          6           0       -3.592253   -1.721375    3.945630
     12          6           0       -1.892661   -2.587626    0.576639
     13          6           0       -0.893506   -3.448519    1.258167
     14          6           0        0.358223   -3.783327    0.527124
     15          8           0        0.474198   -3.383534   -0.632835
     16          8           0        1.155139   -4.638244    1.105991
     17          7           0       -4.981649    2.581040    1.443231
     18          6           0       -4.108742    2.387705    2.529814
     19          6           0       -3.810896    3.616496    3.191814
     20          6           0       -4.589424    4.581205    2.542084
     21          6           0       -5.371455    3.868837    1.573089
     22          6           0       -2.918906    3.755822    4.355315
     23          6           0       -4.750598    6.011516    2.975881
     24          8           0       -4.094095    6.578836    3.779525
     25          7           0       -6.950175    2.608107   -0.713217
     26          6           0       -7.076749    3.963729   -0.439446
     27          6           0       -8.089379    4.549141   -1.234129
     28          6           0       -8.582061    3.550735   -2.034562
     29          6           0       -7.912782    2.362172   -1.697261
     30          6           0       -8.605450    5.925963   -1.228627
     31          6           0       -9.619307    3.754860   -3.117585
     32          6           0       -8.934850    3.820523   -4.549863
     33          7           0       -6.314308   -0.102988   -1.038192
     34          6           0       -7.425888   -0.104634   -2.038207
     35          6           0       -7.476095   -1.313385   -2.760377
     36          6           0       -6.677865   -2.192443   -2.093909
     37          6           0       -6.004956   -1.393808   -1.107412
     38          6           0       -8.462088   -1.579541   -3.870641
     39          6           0       -6.294890   -3.597025   -1.972553
     40          8           0       -6.562261   -4.701138   -2.522401
     41          6           0       -5.055444   -3.578665   -0.864645
     42          6           0       -5.325418   -4.619920    0.205242
     43          8           0       -5.826235   -4.426809    1.272130
     44          8           0       -5.093647   -5.876192   -0.272694
     45          6           0       -5.274526   -6.881625    0.606575
     46          6           0        2.411435   -4.968635    0.567447
     47          6           0        3.513645   -4.050818    0.920283
     48          6           0        4.107373   -3.138986    0.166997
     49          6           0        3.760985   -2.997784   -1.393474
     50          6           0        5.171328   -2.287319    0.820285
     51          6           0        6.537624   -2.559581    0.121642
     52          6           0        7.717467   -1.721355    0.674299
     53          6           0        9.096595   -1.881523    0.019117
     54          6           0        9.731425   -3.287722    0.362608
     55          6           0       10.066141   -0.778952    0.468259
     56          6           0       11.411395   -0.853794   -0.227174
     57          6           0       12.408687    0.312131    0.215276
     58          6           0       13.693593    0.475626   -0.537434
     59          6           0       14.560427   -0.726836   -0.169620
     60          6           0       14.288074    1.881274   -0.182087
     61          6           0       15.580273    2.143491   -1.106693
     62          6           0       16.110621    3.449782   -0.734061
     63          6           0       17.484057    3.821673   -1.472840
     64          6           0       17.357181    3.888739   -2.927968
     65          6           0       18.148512    5.113038   -0.864672
     66          1           0       -2.869481    0.945038    3.623803
     67          1           0       -6.490601    5.483532    0.901571
     68          1           0       -8.911999    0.929172   -3.060395
     69          1           0       -3.553060   -3.173118    1.921110
     70          1           0       -2.018216   -1.071754    2.565717
     71          1           0       -3.090429   -2.669438    4.327070
     72          1           0       -3.573609   -0.941929    4.672523
     73          1           0       -4.723141   -1.956849    3.686152
     74          1           0       -2.326966   -3.048309   -0.365360
     75          1           0       -1.299590   -1.777255    0.229441
     76          1           0       -0.535718   -3.253286    2.252725
     77          1           0       -1.368700   -4.461879    1.520430
     78          1           0       -1.965598    3.698747    3.996703
     79          1           0       -3.074062    4.565956    5.066920
     80          1           0       -3.128379    2.949104    5.009921
     81          1           0       -5.410995    6.590158    2.290641
     82          1           0      -10.404223    2.812881   -2.988293
     83          1           0      -10.235777    4.650469   -2.957027
     84          1           0       -9.742257    4.073904   -5.299866
     85          1           0       -8.226440    4.624733   -4.438902
     86          1           0       -8.474037    3.062454   -4.976087
     87          1           0       -8.277803   -0.978572   -4.546712
     88          1           0       -8.573501   -2.648034   -4.314685
     89          1           0       -9.382784   -1.172068   -3.702016
     90          1           0       -4.151847   -3.957523   -1.461138
     91          1           0        2.683317   -6.000339    0.842335
     92          1           0        2.325979   -4.987927   -0.490216
     93          1           0        3.802645   -4.024160    1.943256
     94          1           0        2.778624   -3.327925   -1.764057
     95          1           0        4.034018   -1.882811   -1.839428
     96          1           0        4.538619   -3.682669   -1.863103
     97          1           0        4.993360   -1.169237    0.904703
     98          1           0        5.392972   -2.583409    1.877204
     99          1           0        6.672347   -3.755588    0.084927
    100          1           0        6.442972   -2.266290   -0.948468
    101          1           0        7.547057   -0.483573    0.712481
    102          1           0        7.705972   -2.058694    1.785055
    103          1           0        8.948107   -1.737371   -1.111568
    104          1           0        9.146520   -4.167958    0.064411
    105          1           0       10.734050   -3.417146   -0.125744
    106          1           0        9.738891   -3.315060    1.569899
    107          1           0        9.645352    0.330339    0.435870
    108          1           0       10.233752   -0.865267    1.565612
    109          1           0       11.872217   -1.903841   -0.029044
    110          1           0       11.500758   -0.710786   -1.277350
    111          1           0       11.789691    1.299164    0.348097
    112          1           0       12.504384    0.164460    1.307321
    113          1           0       13.731992    0.508357   -1.673227
    114          1           0       14.556844   -0.893391    0.921779
    115          1           0       13.865611   -1.612651   -0.454514
    116          1           0       15.690986   -0.798272   -0.467762
    117          1           0       13.782043    2.818716   -0.172491
    118          1           0       14.799083    1.614053    0.941122
    119          1           0       16.497155    1.448244   -1.081187
    120          1           0       15.376688    2.093755   -2.148038
    121          1           0       15.487992    4.384831   -0.926602
    122          1           0       16.272909    3.445808    0.290293
    123          1           0       18.247764    3.073070   -1.438508
    124          1           0       17.007897    4.901440   -3.443521
    125          1           0       18.317486    3.851133   -3.348778
    126          1           0       16.846868    2.908342   -3.360490
    127          1           0       18.250278    5.005857    0.210456
    128          1           0       19.213543    5.078288   -1.134595
    129          1           0       17.646325    6.138145   -0.826841
    130          1           0       -4.829862   -7.803400    0.127404
    131          1           0       -6.470496   -6.914275    0.654848
    132          1           0       -4.848189   -6.637971    1.554700
    133          8           0       -8.022544    6.783151   -0.539325
    134          1           0       -9.544553    5.972228   -2.000838
 ---------------------------------------------------------------------

 SCF Done:  E(RCAM-B3LYP) =  -3043.52619602     A.U. after   15 cycles

 Excitation energies and oscillator strengths:

 Excited State   1:      Singlet-A      2.0826 eV  595.35 nm  f=0.0884  <S**2>=0.000
     243 -> 245        0.31784
     243 -> 246       -0.25670
     244 -> 245        0.52149
     244 -> 246        0.21829
 This state for optimization and/or second-order correction.
 Total Energy, E(TD-HF/TD-KS) =  -3043.44966366
 Copying the excited state density for this state as the 1-particle RhoCI density.

 The electronic state is 1-A.
 Alpha  occ. eigenvalues --  -46.80790 -19.23233 -19.21240 -19.17812 -19.17755
 Alpha  occ. eigenvalues --  -19.17439 -19.17120 -19.16017 -14.37886 -14.37464
 Alpha  occ. eigenvalues --  -14.37000 -14.36697 -10.34787 -10.34294 -10.32792
 Alpha  occ. eigenvalues --  -10.31671 -10.30302 -10.27453 -10.27138 -10.26930
 Alpha  occ. eigenvalues --  -10.26869 -10.26778 -10.26715 -10.26555 -10.26121
 Alpha  occ. eigenvalues --  -10.26095 -10.26090 -10.26068 -10.25568 -10.25545
 Alpha  occ. eigenvalues --  -10.24802 -10.24425 -10.24052 -10.23907 -10.23853
 Alpha  occ. eigenvalues --  -10.23675 -10.23595 -10.23406 -10.23404 -10.23369
 Alpha  occ. eigenvalues --  -10.23295 -10.23275 -10.23185 -10.23173 -10.23029
 Alpha  occ. eigenvalues --  -10.22817 -10.22800 -10.22511 -10.22443 -10.22382
 Alpha  occ. eigenvalues --  -10.22361 -10.22141 -10.22121 -10.22070 -10.21750
 Alpha  occ. eigenvalues --  -10.21658 -10.21443 -10.21399 -10.21249 -10.21237
 Alpha  occ. eigenvalues --  -10.20748 -10.20672 -10.20392 -10.20368 -10.20302
 Alpha  occ. eigenvalues --  -10.19664  -3.09630  -1.84539  -1.84116  -1.84067
 Alpha  occ. eigenvalues --   -1.15340  -1.14621  -1.08807  -1.05994  -1.05676
 Alpha  occ. eigenvalues --   -1.04801  -1.04219  -1.02202  -0.99921  -0.99759
 Alpha  occ. eigenvalues --   -0.98654  -0.87627  -0.86482  -0.86087  -0.85783
 Alpha  occ. eigenvalues --   -0.85245  -0.85168  -0.84647  -0.84269  -0.83973
 Alpha  occ. eigenvalues --   -0.83180  -0.83025  -0.82448  -0.80621  -0.79709
 Alpha  occ. eigenvalues --   -0.79046  -0.78573  -0.78132  -0.77093  -0.76659
 Alpha  occ. eigenvalues --   -0.76428  -0.75181  -0.74506  -0.73220  -0.71962
 Alpha  occ. eigenvalues --   -0.70867  -0.70859  -0.70464  -0.69886  -0.69628
 Alpha  occ. eigenvalues --   -0.69171  -0.69099  -0.67742  -0.67687  -0.66647
 Alpha  occ. eigenvalues --   -0.66147  -0.64499  -0.64045  -0.63081  -0.62111
 Alpha  occ. eigenvalues --   -0.62065  -0.60679  -0.60049  -0.59661  -0.59297
 Alpha  occ. eigenvalues --   -0.58233  -0.58213  -0.58062  -0.57907  -0.57605
 Alpha  occ. eigenvalues --   -0.56768  -0.56470  -0.56044  -0.55334  -0.54727
 Alpha  occ. eigenvalues --   -0.54188  -0.53393  -0.53254  -0.52640  -0.52547
 Alpha  occ. eigenvalues --   -0.52324  -0.51461  -0.51399  -0.50594  -0.50303
 Alpha  occ. eigenvalues --   -0.50150  -0.49830  -0.49560  -0.49416  -0.49316
 Alpha  occ. eigenvalues --   -0.49183  -0.48669  -0.48519  -0.48183  -0.48048
 Alpha  occ. eigenvalues --   -0.47818  -0.47477  -0.47192  -0.46943  -0.46850
 Alpha  occ. eigenvalues --   -0.46389  -0.46193  -0.45825  -0.45802  -0.45685
 Alpha  occ. eigenvalues --   -0.45591  -0.45492  -0.45179  -0.45088  -0.44943
 Alpha  occ. eigenvalues --   -0.44680  -0.44376  -0.44244  -0.44021  -0.43753
 Alpha  occ. eigenvalues --   -0.43551  -0.43478  -0.43310  -0.43109  -0.42891
 Alpha  occ. eigenvalues --   -0.42780  -0.42533  -0.42120  -0.41940  -0.41849
 Alpha  occ. eigenvalues --   -0.41774  -0.41642  -0.41523  -0.41170  -0.40756
 Alpha  occ. eigenvalues --   -0.40744  -0.40574  -0.40367  -0.40135  -0.39905
 Alpha  occ. eigenvalues --   -0.39581  -0.39511  -0.39274  -0.39081  -0.39006
 Alpha  occ. eigenvalues --   -0.38911  -0.38846  -0.38659  -0.38475  -0.38261
 Alpha  occ. eigenvalues --   -0.38005  -0.37905  -0.37566  -0.37541  -0.37309
 Alpha  occ. eigenvalues --   -0.36982  -0.36714  -0.36309  -0.36015  -0.35967
 Alpha  occ. eigenvalues --   -0.35540  -0.35291  -0.34973  -0.34942  -0.34717
 Alpha  occ. eigenvalues --   -0.34513  -0.34268  -0.34074  -0.33334  -0.33186
 Alpha  occ. eigenvalues --   -0.33026  -0.32917  -0.32551  -0.31796  -0.31775
 Alpha  occ. eigenvalues --   -0.31645  -0.30866  -0.30085  -0.29913  -0.29815
 Alpha  occ. eigenvalues --   -0.29277  -0.28299  -0.28138  -0.28068  -0.27912
 Alpha  occ. eigenvalues --   -0.27830  -0.27753  -0.22576  -0.22129
 Alpha virt. eigenvalues --   -0.08597  -0.06875  -0.01579  -0.00793   0.00651
 Alpha virt. eigenvalues --    0.03302   0.03357   0.03771   0.04227   0.04397
 Alpha virt. eigenvalues --    0.05079   0.05670   0.07831   0.08175   0.09228

 Mulliken charges:
               1
     1  Mg   0.829922
     2  C    0.103516
     3  C   -0.216813
     4  C   -0.194792
     5  C   -0.168898
     6  N   -0.625789
     7  C    0.324854
     8  C   -0.170343
     9  C   -0.129409
    10  C    0.345861
    11  C   -0.309582
    12  C   -0.175832
    13  C   -0.269834
    14  C    0.595251
    15  O   -0.488427
    16  O   -0.429940
    17  N   -0.689552
    18  C    0.314343
    19  C    0.035982
    20  C   -0.048468
    21  C    0.340256
    22  C   -0.367193
    23  C    0.256311
    24  O   -0.389720
    25  N   -0.669753
    26  C    0.274919
    27  C    0.005663
    28  C    0.041442
    29  C    0.272408
    30  C    0.253106
    31  C   -0.252853
    32  C   -0.308456
    33  N   -0.721845
    34  C    0.225243
    35  C    0.028379
    36  C    0.060111
    37  C    0.298818
    38  C   -0.359318
    39  C    0.360128
    40  O   -0.471351
    41  C   -0.367844
    42  C    0.614274
    43  O   -0.463090
    44  O   -0.419501
    45  C   -0.076256
    46  C    0.005324
    47  C   -0.143141
    48  C    0.156984
    49  C   -0.376668
    50  C   -0.235595
    51  C   -0.177912
    52  C   -0.155901
    53  C   -0.042645
    54  C   -0.307811
    55  C   -0.167583
    56  C   -0.179820
    57  C   -0.190908
    58  C   -0.043659
    59  C   -0.310175
    60  C   -0.163066
    61  C   -0.189058
    62  C   -0.158886
    63  C   -0.057809
    64  C   -0.293967
    65  C   -0.332910
    66  H    0.066619
    67  H    0.110131
    68  H    0.088020
    69  H    0.122270
    70  H    0.112227
    71  H    0.107314
    72  H    0.120378
    73  H    0.117300
    74  H    0.117934
    75  H    0.130344
    76  H    0.131258
    77  H    0.124290
    78  H    0.141258
    79  H    0.149568
    80  H    0.119851
    81  H    0.072633
    82  H    0.082625
    83  H    0.117097
    84  H    0.102029
    85  H    0.121743
    86  H    0.128320
    87  H    0.138586
    88  H    0.143124
    89  H    0.132775
    90  H    0.151506
    91  H    0.115598
    92  H    0.119724
    93  H    0.078858
    94  H    0.157258
    95  H    0.092779
    96  H    0.115473
    97  H    0.104663
    98  H    0.098712
    99  H    0.083360
   100  H    0.096882
   101  H    0.063731
   102  H    0.073858
   103  H    0.081482
   104  H    0.105040
   105  H    0.106464
   106  H    0.084108
   107  H    0.074685
   108  H    0.091893
   109  H    0.085466
   110  H    0.105058
   111  H    0.071196
   112  H    0.095760
   113  H    0.085950
   114  H    0.102517
   115  H    0.095223
   116  H    0.096441
   117  H    0.109674
   118  H    0.057959
   119  H    0.081485
   120  H    0.099267
   121  H    0.077845
   122  H    0.098895
   123  H    0.089210
   124  H    0.080504
   125  H    0.105585
   126  H    0.079773
   127  H    0.099950
   128  H    0.098919
   129  H    0.099596
   130  H    0.114591
   131  H    0.103294
   132  H    0.118368
   133  O   -0.435563
   134  H    0.058549
 Sum of Mulliken charges =   0.00000

 Dipole moment (field-independent basis, Debye):
    X=              2.0957    Y=             -3.9387    Z=             -0.4751  Tot=              4.4868
 Quadrupole moment (field-independent basis, Debye-Ang):
   XX=           -370.8511   YY=           -448.0616   ZZ=           -387.8549
   XY=             -5.0623   XZ=             28.3654   YZ=            -28.0732

 Normal termination of Gaussian 09 at Wed Oct  9 06:44:42 2019.
