 Gaussian 09, Revision D.01,
 Gaussian 09:  ES64L-G09RevD.01 24-Apr-2013

 ----------------------------------------------------------------------
 # td=(NStates=1) iop(3/107=0140000000,3/108=0140000000) iop(3/107=0140
 000000,3/108=0140000000) CAM-B3LYP/6-31G(d,p)
 ----------------------------------------------------------------------

 --
 TD
 --
 Symbolic Z-matrix:
 Charge =  0 Multiplicity = 1

                         Standard orientation:
 ---------------------------------------------------------------------
 Center     Atomic      Atomic             Coordinates (Angstroms)
 Number     Number       Type             X           Y           Z
 ---------------------------------------------------------------------
      1         12           0       -5.753601    1.218474    0.224942
      2          6           0       -5.045964   -2.127168   -0.326436
      3          6           0       -3.435363    1.040518    2.827553
      4          6           0       -6.175387    4.525652    0.620237
      5          6           0       -8.166022    1.152877   -2.307241
      6          7           0       -4.373166   -0.260108    1.128355
      7          6           0       -4.329009   -1.561935    0.694244
      8          6           0       -3.269303   -2.359377    1.416032
      9          6           0       -3.029740   -1.438207    2.625566
     10          6           0       -3.629202   -0.100369    2.172321
     11          6           0       -3.820771   -1.900592    3.913631
     12          6           0       -2.001152   -2.656691    0.601028
     13          6           0       -1.001246   -3.555982    1.320597
     14          6           0        0.245333   -3.833888    0.579355
     15          8           0        0.562354   -3.511186   -0.516287
     16          8           0        1.111277   -4.721212    1.281003
     17          7           0       -4.943992    2.473681    1.624460
     18          6           0       -4.092247    2.322790    2.562898
     19          6           0       -3.693108    3.597675    3.261806
     20          6           0       -4.545742    4.561578    2.555491
     21          6           0       -5.332542    3.825863    1.556531
     22          6           0       -2.858804    3.650756    4.418976
     23          6           0       -4.647630    5.961220    2.864581
     24          8           0       -4.063563    6.622551    3.696535
     25          7           0       -6.941678    2.655935   -0.759263
     26          6           0       -6.834996    4.034118   -0.395927
     27          6           0       -7.889011    4.605989   -1.179185
     28          6           0       -8.418423    3.690865   -2.038612
     29          6           0       -7.833726    2.450943   -1.699278
     30          6           0       -8.199044    6.044829   -1.117259
     31          6           0       -9.437614    3.876415   -3.164507
     32          6           0       -8.772598    4.000571   -4.555423
     33          7           0       -6.391381   -0.071717   -0.990613
     34          6           0       -7.359166   -0.010333   -2.012972
     35          6           0       -7.597159   -1.238488   -2.728927
     36          6           0       -6.632005   -2.129054   -2.164358
     37          6           0       -6.058775   -1.364268   -1.053575
     38          6           0       -8.524847   -1.422697   -3.800964
     39          6           0       -6.150204   -3.511084   -2.064857
     40          8           0       -6.478161   -4.513832   -2.687686
     41          6           0       -4.945254   -3.503241   -0.948657
     42          6           0       -5.226248   -4.602273    0.000496
     43          8           0       -5.662294   -4.508572    1.173519
     44          8           0       -5.051016   -5.849678   -0.501914
     45          6           0       -5.390066   -6.951616    0.346125
     46          6           0        2.338031   -5.062333    0.778603
     47          6           0        3.444371   -4.060423    0.944966
     48          6           0        4.108000   -3.264643    0.176598
     49          6           0        3.837229   -3.214862   -1.345234
     50          6           0        5.099724   -2.400726    0.695754
     51          6           0        6.609724   -2.628332    0.040448
     52          6           0        7.655525   -1.702831    0.619501
     53          6           0        9.114321   -1.948840   -0.061231
     54          6           0        9.677387   -3.311914    0.222634
     55          6           0        9.979046   -0.846662    0.392580
     56          6           0       11.246136   -0.792108   -0.304802
     57          6           0       12.155681    0.372980    0.246236
     58          6           0       13.582323    0.475514   -0.529077
     59          6           0       14.442572   -0.755211   -0.414800
     60          6           0       14.343845    1.807707   -0.124616
     61          6           0       15.497304    2.242169   -1.024692
     62          6           0       16.154070    3.488102   -0.639935
     63          6           0       17.391061    3.774071   -1.388883
     64          6           0       17.103330    3.972301   -2.833207
     65          6           0       18.012891    5.173418   -0.774988
     66          1           0       -2.663564    1.136163    3.697155
     67          1           0       -6.513385    5.455428    0.970815
     68          1           0       -8.930949    0.933212   -3.013533
     69          1           0       -3.793173   -3.340369    1.773299
     70          1           0       -1.835744   -1.250627    2.849516
     71          1           0       -3.351347   -2.715691    4.325496
     72          1           0       -3.952513   -0.954449    4.622967
     73          1           0       -4.931911   -2.197605    3.690797
     74          1           0       -2.232608   -3.209184   -0.244752
     75          1           0       -1.323213   -1.789044    0.313702
     76          1           0       -0.732555   -3.139190    2.226115
     77          1           0       -1.472266   -4.636919    1.498602
     78          1           0       -1.780692    3.016698    4.270861
     79          1           0       -2.687174    4.600881    4.896377
     80          1           0       -3.593625    2.978050    5.275468
     81          1           0       -5.270055    6.388574    2.114650
     82          1           0      -10.375915    3.143433   -3.193107
     83          1           0       -9.975654    4.795489   -2.983677
     84          1           0       -9.377456    4.352092   -5.195927
     85          1           0       -8.043479    4.683117   -4.502442
     86          1           0       -8.300370    3.042421   -4.599050
     87          1           0       -8.556905   -0.589907   -4.590238
     88          1           0       -8.229250   -2.512426   -4.295108
     89          1           0       -9.602997   -1.611271   -3.434055
     90          1           0       -4.098981   -3.723999   -1.502392
     91          1           0        2.492108   -6.127063    1.278505
     92          1           0        2.220776   -5.238216   -0.351289
     93          1           0        3.690559   -3.901180    2.056316
     94          1           0        2.945525   -3.738081   -1.721751
     95          1           0        3.953652   -2.024311   -1.428759
     96          1           0        4.524546   -3.808557   -1.884848
     97          1           0        4.872054   -1.456581    0.386220
     98          1           0        5.412931   -2.531476    1.760543
     99          1           0        6.925035   -3.775518    0.291087
    100          1           0        6.657762   -2.714553   -1.071787
    101          1           0        7.459681   -0.488270    0.632375
    102          1           0        8.023012   -2.000877    1.700012
    103          1           0        8.868369   -1.750392   -1.288880
    104          1           0        8.966556   -4.300069    0.237316
    105          1           0       10.489214   -3.638637   -0.624594
    106          1           0       10.029816   -3.418799    1.365442
    107          1           0        9.015552    0.127999    0.071327
    108          1           0       10.228732   -1.098123    1.351535
    109          1           0       11.806243   -1.720546   -0.169078
    110          1           0       10.923387   -0.869733   -1.394390
    111          1           0       11.757824    1.223823   -0.010539
    112          1           0       12.290483    0.229238    1.523484
    113          1           0       13.327873    0.651426   -1.568870
    114          1           0       14.502252   -0.735162    0.703184
    115          1           0       13.962261   -1.645220   -0.640324
    116          1           0       15.464132   -0.567953   -0.765806
    117          1           0       13.680484    2.739035   -0.299447
    118          1           0       14.806719    1.952070    0.826335
    119          1           0       16.250723    1.287730   -0.902952
    120          1           0       15.105625    2.415339   -2.150872
    121          1           0       15.448929    4.206113   -0.601516
    122          1           0       16.313948    3.509672    0.564581
    123          1           0       18.114409    3.180852   -1.182714
    124          1           0       16.302351    4.845287   -2.889903
    125          1           0       18.022430    4.277551   -3.582153
    126          1           0       16.706649    2.981871   -3.115651
    127          1           0       18.318023    5.003692    0.138225
    128          1           0       19.066620    5.624407   -1.218377
    129          1           0       17.273076    5.935293   -0.814665
    130          1           0       -5.100780   -7.785618   -0.331331
    131          1           0       -6.499965   -7.066721    0.699110
    132          1           0       -4.714001   -7.180003    1.324765
    133          8           0       -7.644943    6.948982   -0.496575
    134          1           0       -9.047494    6.236103   -1.910928
 ---------------------------------------------------------------------

 SCF Done:  E(RCAM-B3LYP) =  -3043.31750172     A.U. after   16 cycles

 Excitation energies and oscillator strengths:

 Excited State   1:      Singlet-A      1.9504 eV  635.70 nm  f=0.2290  <S**2>=0.000
     243 -> 246       -0.21674
     244 -> 245        0.66140
 This state for optimization and/or second-order correction.
 Total Energy, E(TD-HF/TD-KS) =  -3043.24582698
 Copying the excited state density for this state as the 1-particle RhoCI density.

 The electronic state is 1-A.
 Alpha  occ. eigenvalues --  -46.82025 -19.23402 -19.20160 -19.18612 -19.17969
 Alpha  occ. eigenvalues --  -19.17908 -19.17093 -19.16389 -14.38503 -14.38281
 Alpha  occ. eigenvalues --  -14.37771 -14.37075 -10.35687 -10.35042 -10.33304
 Alpha  occ. eigenvalues --  -10.31050 -10.29106 -10.28714 -10.27759 -10.27743
 Alpha  occ. eigenvalues --  -10.27563 -10.27549 -10.27525 -10.27036 -10.26947
 Alpha  occ. eigenvalues --  -10.26809 -10.26288 -10.26055 -10.26041 -10.25814
 Alpha  occ. eigenvalues --  -10.25771 -10.25628 -10.25466 -10.25285 -10.24519
 Alpha  occ. eigenvalues --  -10.24460 -10.24438 -10.24376 -10.24337 -10.24321
 Alpha  occ. eigenvalues --  -10.24034 -10.23725 -10.23495 -10.23354 -10.23314
 Alpha  occ. eigenvalues --  -10.23291 -10.23107 -10.23020 -10.22909 -10.22833
 Alpha  occ. eigenvalues --  -10.22165 -10.22157 -10.22027 -10.21641 -10.21592
 Alpha  occ. eigenvalues --  -10.21565 -10.21315 -10.21195 -10.20971 -10.20904
 Alpha  occ. eigenvalues --  -10.20373 -10.20343 -10.20056 -10.19651 -10.19548
 Alpha  occ. eigenvalues --  -10.19424  -3.10763  -1.85682  -1.85305  -1.85131
 Alpha  occ. eigenvalues --   -1.13549  -1.13180  -1.07729  -1.06548  -1.06062
 Alpha  occ. eigenvalues --   -1.05399  -1.03122  -1.02214  -1.01260  -1.00913
 Alpha  occ. eigenvalues --   -1.00178  -0.89085  -0.86642  -0.86455  -0.86393
 Alpha  occ. eigenvalues --   -0.86186  -0.85815  -0.85724  -0.84834  -0.83556
 Alpha  occ. eigenvalues --   -0.83338  -0.82918  -0.81916  -0.81208  -0.79991
 Alpha  occ. eigenvalues --   -0.79656  -0.78784  -0.77922  -0.77659  -0.76646
 Alpha  occ. eigenvalues --   -0.76010  -0.75057  -0.73622  -0.73222  -0.72572
 Alpha  occ. eigenvalues --   -0.71289  -0.70801  -0.70502  -0.70215  -0.69683
 Alpha  occ. eigenvalues --   -0.69624  -0.69349  -0.67245  -0.67117  -0.67021
 Alpha  occ. eigenvalues --   -0.66522  -0.64961  -0.64838  -0.62241  -0.61940
 Alpha  occ. eigenvalues --   -0.61874  -0.61514  -0.60117  -0.59164  -0.58980
 Alpha  occ. eigenvalues --   -0.58347  -0.58157  -0.58041  -0.57169  -0.57058
 Alpha  occ. eigenvalues --   -0.56660  -0.56581  -0.55667  -0.55269  -0.54617
 Alpha  occ. eigenvalues --   -0.54404  -0.54212  -0.53266  -0.52802  -0.52431
 Alpha  occ. eigenvalues --   -0.52072  -0.51775  -0.51338  -0.51039  -0.50961
 Alpha  occ. eigenvalues --   -0.50478  -0.50307  -0.49846  -0.49414  -0.49235
 Alpha  occ. eigenvalues --   -0.49103  -0.48815  -0.48579  -0.48403  -0.48114
 Alpha  occ. eigenvalues --   -0.47828  -0.47605  -0.47431  -0.47207  -0.46976
 Alpha  occ. eigenvalues --   -0.46844  -0.46659  -0.46521  -0.46229  -0.46000
 Alpha  occ. eigenvalues --   -0.45933  -0.45643  -0.45542  -0.45458  -0.45148
 Alpha  occ. eigenvalues --   -0.44948  -0.44766  -0.44507  -0.44254  -0.44184
 Alpha  occ. eigenvalues --   -0.43893  -0.43752  -0.43510  -0.43343  -0.43311
 Alpha  occ. eigenvalues --   -0.42796  -0.42632  -0.42525  -0.42192  -0.42041
 Alpha  occ. eigenvalues --   -0.41708  -0.41557  -0.41421  -0.41353  -0.41271
 Alpha  occ. eigenvalues --   -0.40987  -0.40731  -0.40632  -0.40504  -0.40433
 Alpha  occ. eigenvalues --   -0.40124  -0.40061  -0.39831  -0.39667  -0.39491
 Alpha  occ. eigenvalues --   -0.39010  -0.38829  -0.38782  -0.38329  -0.38230
 Alpha  occ. eigenvalues --   -0.37642  -0.37456  -0.37234  -0.37139  -0.36616
 Alpha  occ. eigenvalues --   -0.36569  -0.36235  -0.36040  -0.35960  -0.35707
 Alpha  occ. eigenvalues --   -0.35687  -0.35069  -0.35016  -0.34733  -0.34242
 Alpha  occ. eigenvalues --   -0.33719  -0.33672  -0.33455  -0.33330  -0.33139
 Alpha  occ. eigenvalues --   -0.32238  -0.31956  -0.31763  -0.31631  -0.31244
 Alpha  occ. eigenvalues --   -0.30890  -0.30797  -0.30687  -0.30619  -0.30233
 Alpha  occ. eigenvalues --   -0.29912  -0.28953  -0.28840  -0.27798  -0.27346
 Alpha  occ. eigenvalues --   -0.27122  -0.26954  -0.23649  -0.21932
 Alpha virt. eigenvalues --   -0.09671  -0.06908  -0.02324  -0.01258   0.00436
 Alpha virt. eigenvalues --    0.01688   0.03079   0.03354   0.03700   0.04803
 Alpha virt. eigenvalues --    0.04967   0.05277   0.06501   0.07430   0.07792

 Mulliken charges:
               1
     1  Mg   0.847063
     2  C    0.076937
     3  C   -0.214990
     4  C   -0.151347
     5  C   -0.153876
     6  N   -0.624828
     7  C    0.312919
     8  C   -0.162783
     9  C   -0.156311
    10  C    0.401385
    11  C   -0.307456
    12  C   -0.166118
    13  C   -0.258391
    14  C    0.584783
    15  O   -0.432153
    16  O   -0.477361
    17  N   -0.676330
    18  C    0.307648
    19  C    0.094046
    20  C   -0.059201
    21  C    0.286011
    22  C   -0.381254
    23  C    0.256091
    24  O   -0.435413
    25  N   -0.708374
    26  C    0.299941
    27  C   -0.035337
    28  C    0.015875
    29  C    0.334772
    30  C    0.260614
    31  C   -0.274271
    32  C   -0.287956
    33  N   -0.735807
    34  C    0.263308
    35  C    0.093043
    36  C    0.012727
    37  C    0.278110
    38  C   -0.423063
    39  C    0.359743
    40  O   -0.446217
    41  C   -0.322727
    42  C    0.622939
    43  O   -0.497197
    44  O   -0.430794
    45  C   -0.078497
    46  C    0.024139
    47  C   -0.149588
    48  C    0.184562
    49  C   -0.350532
    50  C   -0.238766
    51  C   -0.191835
    52  C   -0.147502
    53  C   -0.051110
    54  C   -0.302973
    55  C   -0.091459
    56  C   -0.194441
    57  C   -0.146272
    58  C   -0.064705
    59  C   -0.310328
    60  C   -0.183119
    61  C   -0.170821
    62  C   -0.147571
    63  C   -0.034879
    64  C   -0.284817
    65  C   -0.324155
    66  H    0.079043
    67  H    0.140673
    68  H    0.100584
    69  H    0.135677
    70  H    0.078909
    71  H    0.126711
    72  H    0.098950
    73  H    0.121500
    74  H    0.118106
    75  H    0.118830
    76  H    0.144769
    77  H    0.130064
    78  H    0.104689
    79  H    0.164950
    80  H    0.098203
    81  H    0.063710
    82  H    0.093713
    83  H    0.110829
    84  H    0.117880
    85  H    0.124834
    86  H    0.108895
    87  H    0.132449
    88  H    0.136159
    89  H    0.140684
    90  H    0.173102
    91  H    0.096564
    92  H    0.082285
    93  H    0.050587
    94  H    0.134317
    95  H    0.089160
    96  H    0.122627
    97  H    0.111165
    98  H    0.110293
    99  H    0.076660
   100  H    0.101862
   101  H    0.072766
   102  H    0.077057
   103  H    0.045620
   104  H    0.089329
   105  H    0.098573
   106  H    0.089613
   107  H    0.030804
   108  H    0.091563
   109  H    0.101396
   110  H    0.083306
   111  H    0.111809
   112  H    0.052882
   113  H    0.087706
   114  H    0.095211
   115  H    0.111889
   116  H    0.105719
   117  H    0.071109
   118  H    0.094807
   119  H    0.058703
   120  H    0.079454
   121  H    0.103124
   122  H    0.054296
   123  H    0.099894
   124  H    0.084240
   125  H    0.081450
   126  H    0.107197
   127  H    0.113702
   128  H    0.061188
   129  H    0.102819
   130  H    0.125338
   131  H    0.130940
   132  H    0.103288
   133  O   -0.430401
   134  H    0.040446
 Sum of Mulliken charges =   0.00000

 Dipole moment (field-independent basis, Debye):
    X=             -0.6727    Y=             -5.1993    Z=             -1.4821  Tot=              5.4481
 Quadrupole moment (field-independent basis, Debye-Ang):
   XX=           -368.7756   YY=           -455.0263   ZZ=           -395.8874
   XY=              7.6400   XZ=             30.7197   YZ=            -28.7931

 Normal termination of Gaussian 09 at Tue Oct  8 05:13:53 2019.
