 Gaussian 09, Revision D.01,
 Gaussian 09:  ES64L-G09RevD.01 24-Apr-2013

 ----------------------------------------------------------------------
 # td=(NStates=1) iop(3/107=0140000000,3/108=0140000000) iop(3/107=0140
 000000,3/108=0140000000) CAM-B3LYP/6-31G(d,p)
 ----------------------------------------------------------------------

 --
 TD
 --
 Symbolic Z-matrix:
 Charge =  0 Multiplicity = 1

                         Standard orientation:
 ---------------------------------------------------------------------
 Center     Atomic      Atomic             Coordinates (Angstroms)
 Number     Number       Type             X           Y           Z
 ---------------------------------------------------------------------
      1         12           0       -5.709070    1.193083    0.200170
      2          6           0       -5.039473   -2.168074   -0.339503
      3          6           0       -3.458518    1.226196    2.718511
      4          6           0       -6.229082    4.608339    0.652919
      5          6           0       -8.108195    1.019446   -2.278369
      6          7           0       -4.356391   -0.245378    0.969621
      7          6           0       -4.255039   -1.563648    0.634106
      8          6           0       -3.235657   -2.294392    1.401588
      9          6           0       -3.022091   -1.178940    2.654052
     10          6           0       -3.664565   -0.048806    2.159311
     11          6           0       -3.543533   -1.713398    3.887945
     12          6           0       -1.950827   -2.695593    0.725961
     13          6           0       -0.967397   -3.549197    1.424791
     14          6           0        0.192703   -3.827528    0.611683
     15          8           0        0.430915   -3.411655   -0.488903
     16          8           0        1.043470   -4.564414    1.384787
     17          7           0       -5.045958    2.686667    1.477508
     18          6           0       -4.000562    2.421533    2.398963
     19          6           0       -3.724701    3.696139    3.053843
     20          6           0       -4.567112    4.650529    2.535512
     21          6           0       -5.306634    4.034949    1.546810
     22          6           0       -2.661449    3.860469    4.097582
     23          6           0       -4.723303    5.930458    2.948385
     24          8           0       -4.040518    6.462606    3.914670
     25          7           0       -6.925771    2.570331   -0.698658
     26          6           0       -6.958036    3.929099   -0.342079
     27          6           0       -7.998182    4.531208   -1.190282
     28          6           0       -8.482677    3.560387   -2.085631
     29          6           0       -7.800579    2.350304   -1.720542
     30          6           0       -8.412532    5.910415   -1.235917
     31          6           0       -9.453720    3.647304   -3.174595
     32          6           0       -8.887100    3.953955   -4.487885
     33          7           0       -6.368567   -0.145819   -1.119211
     34          6           0       -7.401862   -0.105037   -2.096404
     35          6           0       -7.561816   -1.380068   -2.761358
     36          6           0       -6.645303   -2.276565   -2.097026
     37          6           0       -5.998508   -1.455567   -1.180258
     38          6           0       -8.584269   -1.841413   -3.826671
     39          6           0       -6.121447   -3.635012   -2.062805
     40          8           0       -6.437912   -4.604528   -2.718910
     41          6           0       -5.006576   -3.598737   -0.875033
     42          6           0       -5.284044   -4.688096    0.126985
     43          8           0       -5.691890   -4.426687    1.234787
     44          8           0       -5.000688   -5.852117   -0.251390
     45          6           0       -5.123615   -7.019786    0.553128
     46          6           0        2.404748   -4.904226    0.756789
     47          6           0        3.509491   -3.965172    1.120876
     48          6           0        4.113696   -3.159825    0.238449
     49          6           0        3.758100   -2.913153   -1.262112
     50          6           0        5.208676   -2.283828    0.897858
     51          6           0        6.507216   -2.532854    0.148390
     52          6           0        7.655046   -1.633526    0.712955
     53          6           0        9.016227   -1.878405   -0.041522
     54          6           0        9.560474   -3.292708    0.363722
     55          6           0       10.032990   -0.778826    0.414933
     56          6           0       11.346544   -0.777797   -0.373221
     57          6           0       12.250599    0.342073    0.127839
     58          6           0       13.501630    0.441498   -0.606676
     59          6           0       14.476946   -0.729473   -0.416143
     60          6           0       14.246432    1.695842   -0.247887
     61          6           0       15.555013    1.958835   -1.064863
     62          6           0       16.065587    3.388400   -0.658260
     63          6           0       17.421207    3.778095   -1.403339
     64          6           0       17.270450    3.908359   -2.958480
     65          6           0       17.850390    5.144633   -0.841586
     66          1           0       -2.832394    1.408184    3.390399
     67          1           0       -6.410516    5.726379    0.726793
     68          1           0       -9.116943    0.980073   -2.908512
     69          1           0       -3.638735   -3.295056    1.935365
     70          1           0       -1.966874   -1.094513    2.786750
     71          1           0       -3.018239   -2.580184    4.372687
     72          1           0       -3.429370   -0.816625    4.739639
     73          1           0       -4.575735   -1.871118    3.865057
     74          1           0       -1.990163   -3.183926   -0.531111
     75          1           0       -1.392707   -1.734991    0.270717
     76          1           0       -0.759631   -3.004590    2.370433
     77          1           0       -1.391101   -4.655096    1.771565
     78          1           0       -1.539504    3.647444    3.783447
     79          1           0       -2.417293    4.926921    4.437556
     80          1           0       -2.880584    3.167266    4.896426
     81          1           0       -5.108332    6.610597    2.404482
     82          1           0      -10.091643    2.768355   -3.277788
     83          1           0      -10.278274    4.492295   -2.879403
     84          1           0       -9.560335    3.866359   -5.348599
     85          1           0       -8.245928    4.744951   -4.609567
     86          1           0       -8.150697    3.060124   -4.780497
     87          1           0       -8.523479   -1.201074   -4.749922
     88          1           0       -8.130213   -3.040565   -4.102408
     89          1           0       -9.605331   -1.811884   -3.287898
     90          1           0       -4.070753   -4.000228   -1.466246
     91          1           0        2.752955   -5.788679    1.036662
     92          1           0        2.556465   -4.875497   -0.456580
     93          1           0        3.753138   -3.932976    2.368606
     94          1           0        2.695696   -3.144510   -1.332920
     95          1           0        3.899331   -1.746814   -1.540018
     96          1           0        4.546184   -3.490784   -1.870160
     97          1           0        5.063046   -1.095464    0.547243
     98          1           0        5.205290   -2.646847    1.859183
     99          1           0        6.884766   -3.472044    0.392029
    100          1           0        6.596335   -2.545151   -0.961486
    101          1           0        7.431840   -0.602988    0.503054
    102          1           0        7.910263   -1.801494    1.745013
    103          1           0        8.816686   -1.768222   -1.040666
    104          1           0        8.933457   -4.052938    0.282532
    105          1           0       10.456033   -3.362735   -0.194548
    106          1           0        9.825270   -3.504005    1.337551
    107          1           0        9.418971    0.092472    0.220014
    108          1           0       10.317585   -0.612866    1.564259
    109          1           0       11.929201   -1.806729   -0.186235
    110          1           0       11.144507   -0.925410   -1.476361
    111          1           0       11.774087    1.378066    0.155612
    112          1           0       12.374027   -0.065337    1.358037
    113          1           0       13.095696    0.649936   -1.626263
    114          1           0       14.619591   -0.744073    0.635369
    115          1           0       14.190820   -1.648208   -0.667927
    116          1           0       15.431635   -0.647334   -1.264256
    117          1           0       13.455648    2.669668   -0.211446
    118          1           0       14.339027    1.476071    0.754157
    119          1           0       16.387939    1.049881   -0.922677
    120          1           0       15.270418    2.168905   -2.247329
    121          1           0       15.257167    4.010915   -0.916730
    122          1           0       16.227297    3.493489    0.514479
    123          1           0       18.151661    2.941434   -1.270405
    124          1           0       16.374766    4.630396   -3.000361
    125          1           0       18.089054    4.283543   -3.378198
    126          1           0       16.930742    3.016358   -3.363077
    127          1           0       18.080624    5.072047    0.171675
    128          1           0       18.742306    5.551618   -1.555507
    129          1           0       16.858846    5.866247   -0.928281
    130          1           0       -4.739491   -7.715788   -0.255757
    131          1           0       -6.124174   -6.966255    0.802348
    132          1           0       -4.428787   -6.984609    1.464460
    133          8           0       -7.961358    6.797992   -0.506892
    134          1           0       -9.316205    6.307565   -1.919149
 ---------------------------------------------------------------------

 SCF Done:  E(RCAM-B3LYP) =  -3043.34173968     A.U. after   16 cycles

 Excitation energies and oscillator strengths:

 Excited State   1:      Singlet-A      1.9763 eV  627.36 nm  f=0.1641  <S**2>=0.000
     243 -> 246        0.25856
     244 -> 245        0.64366
 This state for optimization and/or second-order correction.
 Total Energy, E(TD-HF/TD-KS) =  -3043.26911305
 Copying the excited state density for this state as the 1-particle RhoCI density.

 The electronic state is 1-A.
 Alpha  occ. eigenvalues --  -46.81162 -19.22828 -19.22791 -19.18141 -19.18061
 Alpha  occ. eigenvalues --  -19.16261 -19.15358 -19.14891 -14.39435 -14.37124
 Alpha  occ. eigenvalues --  -14.36994 -14.36360 -10.35292 -10.34098 -10.32294
 Alpha  occ. eigenvalues --  -10.30281 -10.28884 -10.27898 -10.27856 -10.27528
 Alpha  occ. eigenvalues --  -10.27047 -10.26854 -10.26709 -10.26606 -10.26481
 Alpha  occ. eigenvalues --  -10.26385 -10.26134 -10.26009 -10.25983 -10.25693
 Alpha  occ. eigenvalues --  -10.25549 -10.25499 -10.25195 -10.25184 -10.24603
 Alpha  occ. eigenvalues --  -10.24231 -10.24176 -10.24155 -10.24077 -10.23686
 Alpha  occ. eigenvalues --  -10.23680 -10.23669 -10.23579 -10.23143 -10.23044
 Alpha  occ. eigenvalues --  -10.23021 -10.22933 -10.22624 -10.22535 -10.22267
 Alpha  occ. eigenvalues --  -10.22002 -10.21742 -10.21707 -10.21656 -10.21571
 Alpha  occ. eigenvalues --  -10.21340 -10.21267 -10.21248 -10.21225 -10.21127
 Alpha  occ. eigenvalues --  -10.20845 -10.20755 -10.20657 -10.19966 -10.18861
 Alpha  occ. eigenvalues --  -10.17815  -3.09775  -1.84712  -1.84238  -1.84196
 Alpha  occ. eigenvalues --   -1.16964  -1.12919  -1.07898  -1.05337  -1.04975
 Alpha  occ. eigenvalues --   -1.04705  -1.01643  -1.00773  -0.99599  -0.98980
 Alpha  occ. eigenvalues --   -0.98115  -0.88305  -0.86580  -0.86450  -0.86168
 Alpha  occ. eigenvalues --   -0.85810  -0.85506  -0.84214  -0.83872  -0.83466
 Alpha  occ. eigenvalues --   -0.83210  -0.82660  -0.82541  -0.81172  -0.80320
 Alpha  occ. eigenvalues --   -0.79454  -0.78810  -0.78438  -0.77943  -0.76194
 Alpha  occ. eigenvalues --   -0.75594  -0.75065  -0.74215  -0.73459  -0.72320
 Alpha  occ. eigenvalues --   -0.72016  -0.71263  -0.70830  -0.70090  -0.69911
 Alpha  occ. eigenvalues --   -0.69030  -0.68511  -0.67956  -0.67019  -0.66287
 Alpha  occ. eigenvalues --   -0.65958  -0.64080  -0.63895  -0.62601  -0.61794
 Alpha  occ. eigenvalues --   -0.61239  -0.60917  -0.60107  -0.59583  -0.59193
 Alpha  occ. eigenvalues --   -0.58296  -0.58140  -0.57955  -0.57905  -0.57328
 Alpha  occ. eigenvalues --   -0.56737  -0.56213  -0.55812  -0.54871  -0.54280
 Alpha  occ. eigenvalues --   -0.54020  -0.53818  -0.53655  -0.52986  -0.52599
 Alpha  occ. eigenvalues --   -0.52190  -0.51648  -0.51294  -0.51055  -0.50837
 Alpha  occ. eigenvalues --   -0.50760  -0.49935  -0.49802  -0.49414  -0.49027
 Alpha  occ. eigenvalues --   -0.48888  -0.48661  -0.48529  -0.48072  -0.48019
 Alpha  occ. eigenvalues --   -0.47791  -0.47444  -0.47290  -0.47013  -0.46949
 Alpha  occ. eigenvalues --   -0.46691  -0.46516  -0.46342  -0.46153  -0.45830
 Alpha  occ. eigenvalues --   -0.45423  -0.45301  -0.45140  -0.44998  -0.44856
 Alpha  occ. eigenvalues --   -0.44431  -0.44191  -0.43978  -0.43742  -0.43700
 Alpha  occ. eigenvalues --   -0.43355  -0.43143  -0.43101  -0.42905  -0.42832
 Alpha  occ. eigenvalues --   -0.42355  -0.42277  -0.42169  -0.42074  -0.41868
 Alpha  occ. eigenvalues --   -0.41464  -0.41410  -0.41253  -0.40950  -0.40585
 Alpha  occ. eigenvalues --   -0.40517  -0.40378  -0.40250  -0.40007  -0.39844
 Alpha  occ. eigenvalues --   -0.39715  -0.39614  -0.39234  -0.39220  -0.39065
 Alpha  occ. eigenvalues --   -0.38977  -0.38748  -0.38587  -0.38255  -0.37972
 Alpha  occ. eigenvalues --   -0.37788  -0.37754  -0.37528  -0.37341  -0.36808
 Alpha  occ. eigenvalues --   -0.36387  -0.36364  -0.36129  -0.35980  -0.35564
 Alpha  occ. eigenvalues --   -0.35420  -0.35325  -0.34760  -0.34669  -0.34135
 Alpha  occ. eigenvalues --   -0.33954  -0.33535  -0.33409  -0.33345  -0.33209
 Alpha  occ. eigenvalues --   -0.32631  -0.32233  -0.32085  -0.31881  -0.31822
 Alpha  occ. eigenvalues --   -0.31353  -0.30769  -0.30019  -0.29952  -0.29617
 Alpha  occ. eigenvalues --   -0.28754  -0.28244  -0.27986  -0.27733  -0.27269
 Alpha  occ. eigenvalues --   -0.26994  -0.26073  -0.23406  -0.21622
 Alpha virt. eigenvalues --   -0.08891  -0.07143  -0.02479  -0.01034   0.00235
 Alpha virt. eigenvalues --    0.02370   0.03304   0.03360   0.03938   0.04388
 Alpha virt. eigenvalues --    0.04766   0.05867   0.07645   0.07965   0.08485

 Mulliken charges:
               1
     1  Mg   0.821628
     2  C    0.096215
     3  C   -0.111672
     4  C   -0.185403
     5  C   -0.203362
     6  N   -0.642060
     7  C    0.336339
     8  C   -0.174509
     9  C   -0.164975
    10  C    0.367088
    11  C   -0.300172
    12  C   -0.160731
    13  C   -0.248804
    14  C    0.642484
    15  O   -0.455857
    16  O   -0.491182
    17  N   -0.729308
    18  C    0.301624
    19  C    0.046053
    20  C    0.055716
    21  C    0.320824
    22  C   -0.394306
    23  C    0.203641
    24  O   -0.466918
    25  N   -0.701229
    26  C    0.312005
    27  C   -0.030192
    28  C    0.062429
    29  C    0.286977
    30  C    0.215661
    31  C   -0.247441
    32  C   -0.303549
    33  N   -0.720615
    34  C    0.321029
    35  C    0.006845
    36  C    0.061037
    37  C    0.274481
    38  C   -0.368159
    39  C    0.354998
    40  O   -0.450397
    41  C   -0.348180
    42  C    0.602199
    43  O   -0.495635
    44  O   -0.401340
    45  C   -0.083922
    46  C   -0.000009
    47  C   -0.157883
    48  C    0.137952
    49  C   -0.370194
    50  C   -0.184863
    51  C   -0.192986
    52  C   -0.178416
    53  C   -0.075755
    54  C   -0.318355
    55  C   -0.157286
    56  C   -0.170845
    57  C   -0.150095
    58  C   -0.051563
    59  C   -0.294541
    60  C   -0.151049
    61  C   -0.166469
    62  C   -0.160578
    63  C   -0.064764
    64  C   -0.300579
    65  C   -0.279229
    66  H    0.037133
    67  H    0.146652
    68  H    0.098147
    69  H    0.122092
    70  H    0.118218
    71  H    0.114687
    72  H    0.072656
    73  H    0.140419
    74  H    0.072865
    75  H    0.109819
    76  H    0.144003
    77  H    0.118629
    78  H    0.102741
    79  H    0.165418
    80  H    0.127654
    81  H    0.086704
    82  H    0.111882
    83  H    0.090200
    84  H    0.113149
    85  H    0.132338
    86  H    0.080811
    87  H    0.132198
    88  H    0.129407
    89  H    0.135816
    90  H    0.148199
    91  H    0.129640
    92  H    0.108267
    93  H    0.064675
    94  H    0.161029
    95  H    0.102567
    96  H    0.121724
    97  H    0.079111
    98  H    0.101717
    99  H    0.104057
   100  H    0.091587
   101  H    0.079744
   102  H    0.095445
   103  H    0.090511
   104  H    0.099969
   105  H    0.099437
   106  H    0.104546
   107  H    0.087897
   108  H    0.070799
   109  H    0.078280
   110  H    0.085322
   111  H    0.088691
   112  H    0.036226
   113  H    0.081336
   114  H    0.108604
   115  H    0.114052
   116  H    0.072190
   117  H    0.049362
   118  H    0.101060
   119  H    0.083676
   120  H    0.072811
   121  H    0.100788
   122  H    0.071237
   123  H    0.080878
   124  H    0.082362
   125  H    0.110278
   126  H    0.107119
   127  H    0.113768
   128  H    0.075261
   129  H    0.074855
   130  H    0.141114
   131  H    0.151323
   132  H    0.124414
   133  O   -0.429826
   134  H    0.058408
 Sum of Mulliken charges =   0.00000

 Dipole moment (field-independent basis, Debye):
    X=              2.2471    Y=             -7.6140    Z=             -1.8331  Tot=              8.1476
 Quadrupole moment (field-independent basis, Debye-Ang):
   XX=           -383.7850   YY=           -440.7215   ZZ=           -399.1537
   XY=             12.1068   XZ=             23.7522   YZ=            -36.7173

 Normal termination of Gaussian 09 at Fri Oct  4 12:56:13 2019.
