 Gaussian 09, Revision D.01,
 Gaussian 09:  ES64L-G09RevD.01 24-Apr-2013

 ----------------------------------------------------------------------
 # td=(NStates=1) iop(3/107=0140000000,3/108=0140000000) iop(3/107=0140
 000000,3/108=0140000000) CAM-B3LYP/6-31G(d,p)
 ----------------------------------------------------------------------

 --
 TD
 --
 Symbolic Z-matrix:
 Charge =  0 Multiplicity = 1

                         Standard orientation:
 ---------------------------------------------------------------------
 Center     Atomic      Atomic             Coordinates (Angstroms)
 Number     Number       Type             X           Y           Z
 ---------------------------------------------------------------------
      1         12           0       -5.663441    1.176556    0.146383
      2          6           0       -5.050180   -2.158993   -0.338080
      3          6           0       -3.516568    1.149356    2.783961
      4          6           0       -6.179098    4.535344    0.588521
      5          6           0       -8.038966    1.141666   -2.360345
      6          7           0       -4.472692   -0.273553    1.052944
      7          6           0       -4.395326   -1.636453    0.670652
      8          6           0       -3.305852   -2.413040    1.442228
      9          6           0       -2.988455   -1.352220    2.616802
     10          6           0       -3.633921   -0.097949    2.138350
     11          6           0       -3.444274   -1.815025    4.019320
     12          6           0       -2.066296   -2.712475    0.632574
     13          6           0       -1.053872   -3.479939    1.434683
     14          6           0        0.192982   -3.827716    0.606079
     15          8           0        0.410961   -3.430412   -0.497505
     16          8           0        1.037357   -4.588982    1.305625
     17          7           0       -4.922968    2.606068    1.439455
     18          6           0       -4.059498    2.399904    2.497305
     19          6           0       -3.827033    3.617058    3.183815
     20          6           0       -4.631325    4.642887    2.600368
     21          6           0       -5.280904    3.900554    1.475034
     22          6           0       -2.958803    3.724860    4.464938
     23          6           0       -4.618093    6.087983    2.990057
     24          8           0       -4.025926    6.544994    3.887648
     25          7           0       -6.970554    2.635773   -0.655946
     26          6           0       -6.956581    3.910169   -0.422079
     27          6           0       -8.030131    4.562388   -1.168605
     28          6           0       -8.358962    3.662784   -2.113871
     29          6           0       -7.791920    2.376640   -1.803834
     30          6           0       -8.337692    6.049470   -1.299300
     31          6           0       -9.547992    3.887646   -3.149128
     32          6           0       -8.954525    4.082290   -4.538850
     33          7           0       -6.372503   -0.226975   -1.143088
     34          6           0       -7.299833   -0.118000   -2.162560
     35          6           0       -7.594181   -1.359617   -2.796986
     36          6           0       -6.629340   -2.195622   -2.047417
     37          6           0       -5.948680   -1.486908   -1.123365
     38          6           0       -8.519034   -1.811445   -3.918795
     39          6           0       -6.179435   -3.628846   -1.998470
     40          8           0       -6.507451   -4.597000   -2.599931
     41          6           0       -4.990191   -3.609832   -0.931636
     42          6           0       -5.331121   -4.582383    0.138985
     43          8           0       -5.677394   -4.329612    1.280728
     44          8           0       -5.117975   -5.825255   -0.445862
     45          6           0       -5.511095   -6.954763    0.468641
     46          6           0        2.279674   -4.942820    0.625169
     47          6           0        3.464250   -4.035935    1.038089
     48          6           0        4.175704   -3.223808    0.252732
     49          6           0        3.853466   -2.862165   -1.178040
     50          6           0        5.256889   -2.380458    0.845379
     51          6           0        6.534982   -2.524500    0.126342
     52          6           0        7.761117   -1.668654    0.514168
     53          6           0        9.064378   -1.929812   -0.159656
     54          6           0        9.619251   -3.366343    0.104037
     55          6           0       10.003319   -0.852953    0.302390
     56          6           0       11.411437   -0.798853   -0.321802
     57          6           0       12.263537    0.425447    0.175746
     58          6           0       13.615580    0.493524   -0.457108
     59          6           0       14.472655   -0.731649   -0.274849
     60          6           0       14.359351    1.728215   -0.107302
     61          6           0       15.549097    2.086702   -1.023561
     62          6           0       16.193800    3.429271   -0.566953
     63          6           0       17.547243    3.742640   -1.414516
     64          6           0       17.109824    3.910270   -2.948197
     65          6           0       18.140458    5.030543   -0.889233
     66          1           0       -2.863555    1.187702    3.678577
     67          1           0       -6.565478    5.493259    0.848150
     68          1           0       -8.662995    1.198401   -3.263541
     69          1           0       -3.592257   -3.249133    1.843944
     70          1           0       -1.953285   -1.245350    2.704394
     71          1           0       -2.792142   -2.686118    4.200780
     72          1           0       -3.173318   -0.965258    4.822317
     73          1           0       -4.484965   -1.880137    3.964208
     74          1           0       -2.337164   -3.368821   -0.325798
     75          1           0       -1.330671   -1.945738    0.126430
     76          1           0       -0.735753   -2.851308    2.253375
     77          1           0       -1.490888   -4.366163    1.939264
     78          1           0       -2.020902    3.399886    4.132990
     79          1           0       -3.055815    4.742771    5.082060
     80          1           0       -3.361152    2.911237    5.213210
     81          1           0       -5.155594    6.788396    2.174142
     82          1           0      -10.240974    3.152614   -3.256495
     83          1           0      -10.057520    4.568192   -2.750454
     84          1           0       -9.719487    4.096019   -5.204015
     85          1           0       -8.345796    5.178980   -4.632209
     86          1           0       -8.234268    3.197900   -4.709354
     87          1           0       -8.440240   -1.281802   -4.786871
     88          1           0       -8.499775   -2.865476   -4.061100
     89          1           0       -9.341029   -1.501047   -3.372322
     90          1           0       -4.016919   -3.809050   -1.418464
     91          1           0        2.763191   -5.928390    0.930135
     92          1           0        2.020630   -5.031882   -0.255608
     93          1           0        3.727318   -4.279272    2.075441
     94          1           0        2.911219   -3.309405   -1.493220
     95          1           0        3.884650   -1.749816   -1.103471
     96          1           0        4.456861   -3.309488   -1.913811
     97          1           0        5.082347   -1.324676    0.952431
     98          1           0        5.222627   -2.600005    1.994809
     99          1           0        6.926277   -3.644890    0.211445
    100          1           0        6.413614   -2.214499   -0.933771
    101          1           0        7.452425   -0.624432    0.444853
    102          1           0        7.740906   -1.813037    1.743460
    103          1           0        8.761699   -1.888697   -1.308196
    104          1           0        8.787907   -4.055834    0.071179
    105          1           0       10.652105   -3.455770   -0.422212
    106          1           0       10.027346   -3.151071    1.145889
    107          1           0        9.398155    0.150992    0.126668
    108          1           0       10.127692   -0.878237    1.400200
    109          1           0       11.978442   -1.736264   -0.047662
    110          1           0       11.372554   -0.975283   -1.392541
    111          1           0       11.704303    1.441348    0.221607
    112          1           0       12.405955    0.351085    1.177590
    113          1           0       13.407449    0.587748   -1.639282
    114          1           0       14.690761   -1.066089    0.712482
    115          1           0       14.121892   -1.637312   -0.724826
    116          1           0       15.414561   -0.789044   -0.514274
    117          1           0       13.657273    2.487450   -0.011586
    118          1           0       14.948273    1.647784    0.929293
    119          1           0       16.202392    1.287755   -0.955682
    120          1           0       15.376810    2.314418   -2.070660
    121          1           0       15.542910    4.144097   -1.012883
    122          1           0       16.303265    3.541003    0.533668
    123          1           0       18.376417    2.969795   -1.383667
    124          1           0       16.548367    4.671425   -2.870124
    125          1           0       18.066568    4.083464   -3.629676
    126          1           0       16.782643    2.940011   -3.279129
    127          1           0       18.277116    4.652580   -0.058376
    128          1           0       19.148078    5.541017   -1.424688
    129          1           0       17.494352    5.928128   -1.014050
    130          1           0       -5.456446   -7.826138   -0.256047
    131          1           0       -6.430108   -6.901927    0.833747
    132          1           0       -4.840590   -7.011459    1.415355
    133          8           0       -7.882157    6.817296   -0.457748
    134          1           0       -8.784162    6.416129   -2.132759
 ---------------------------------------------------------------------

 SCF Done:  E(RCAM-B3LYP) =  -3043.43132368     A.U. after   15 cycles

 Excitation energies and oscillator strengths:

 Excited State   1:      Singlet-A      2.1210 eV  584.56 nm  f=0.1906  <S**2>=0.000
     243 -> 245        0.11624
     243 -> 246        0.25465
     244 -> 245        0.64017
 This state for optimization and/or second-order correction.
 Total Energy, E(TD-HF/TD-KS) =  -3043.35337881
 Copying the excited state density for this state as the 1-particle RhoCI density.

 The electronic state is 1-A.
 Alpha  occ. eigenvalues --  -46.81132 -19.22367 -19.22352 -19.17826 -19.17806
 Alpha  occ. eigenvalues --  -19.17579 -19.17307 -19.16652 -14.38857 -14.36459
 Alpha  occ. eigenvalues --  -14.36401 -14.35361 -10.34985 -10.34884 -10.31151
 Alpha  occ. eigenvalues --  -10.30631 -10.30590 -10.27916 -10.27193 -10.26739
 Alpha  occ. eigenvalues --  -10.26675 -10.26461 -10.26136 -10.25955 -10.25887
 Alpha  occ. eigenvalues --  -10.25857 -10.25109 -10.24914 -10.24660 -10.24211
 Alpha  occ. eigenvalues --  -10.24161 -10.23629 -10.23590 -10.23505 -10.23445
 Alpha  occ. eigenvalues --  -10.23299 -10.23225 -10.23208 -10.22969 -10.22962
 Alpha  occ. eigenvalues --  -10.22936 -10.22896 -10.22638 -10.22443 -10.22230
 Alpha  occ. eigenvalues --  -10.22129 -10.22121 -10.22042 -10.21889 -10.21876
 Alpha  occ. eigenvalues --  -10.21742 -10.21623 -10.21597 -10.21485 -10.21369
 Alpha  occ. eigenvalues --  -10.21364 -10.21171 -10.21049 -10.20821 -10.20671
 Alpha  occ. eigenvalues --  -10.20612 -10.20563 -10.19756 -10.19326 -10.19188
 Alpha  occ. eigenvalues --  -10.18178  -3.09637  -1.84590  -1.84098  -1.84046
 Alpha  occ. eigenvalues --   -1.14291  -1.11447  -1.09960  -1.07975  -1.06872
 Alpha  occ. eigenvalues --   -1.05609  -1.04257  -1.00496  -0.99797  -0.99487
 Alpha  occ. eigenvalues --   -0.97831  -0.88167  -0.86731  -0.86111  -0.85938
 Alpha  occ. eigenvalues --   -0.85484  -0.84777  -0.83957  -0.83394  -0.82937
 Alpha  occ. eigenvalues --   -0.82722  -0.82033  -0.81690  -0.80410  -0.79479
 Alpha  occ. eigenvalues --   -0.79082  -0.78694  -0.77839  -0.77025  -0.76857
 Alpha  occ. eigenvalues --   -0.75708  -0.74703  -0.73921  -0.72650  -0.72548
 Alpha  occ. eigenvalues --   -0.72106  -0.71932  -0.71642  -0.70267  -0.69606
 Alpha  occ. eigenvalues --   -0.69259  -0.69017  -0.67507  -0.67145  -0.66149
 Alpha  occ. eigenvalues --   -0.65599  -0.64729  -0.63504  -0.62440  -0.62110
 Alpha  occ. eigenvalues --   -0.61386  -0.60590  -0.60356  -0.59706  -0.59392
 Alpha  occ. eigenvalues --   -0.59131  -0.57940  -0.57896  -0.57835  -0.57441
 Alpha  occ. eigenvalues --   -0.56799  -0.55857  -0.55207  -0.55158  -0.54955
 Alpha  occ. eigenvalues --   -0.53812  -0.53515  -0.52725  -0.52553  -0.52231
 Alpha  occ. eigenvalues --   -0.51782  -0.51220  -0.51144  -0.50870  -0.50669
 Alpha  occ. eigenvalues --   -0.50136  -0.49960  -0.49849  -0.49734  -0.49331
 Alpha  occ. eigenvalues --   -0.48902  -0.48562  -0.48360  -0.47987  -0.47872
 Alpha  occ. eigenvalues --   -0.47695  -0.47565  -0.47360  -0.47303  -0.47187
 Alpha  occ. eigenvalues --   -0.47076  -0.46766  -0.46592  -0.46458  -0.46353
 Alpha  occ. eigenvalues --   -0.46176  -0.45918  -0.45624  -0.45530  -0.45252
 Alpha  occ. eigenvalues --   -0.44884  -0.44728  -0.44440  -0.44277  -0.44006
 Alpha  occ. eigenvalues --   -0.43616  -0.43556  -0.43027  -0.42996  -0.42892
 Alpha  occ. eigenvalues --   -0.42616  -0.42488  -0.42311  -0.42077  -0.41799
 Alpha  occ. eigenvalues --   -0.41660  -0.41561  -0.41420  -0.41295  -0.41167
 Alpha  occ. eigenvalues --   -0.41072  -0.40777  -0.40479  -0.40382  -0.39974
 Alpha  occ. eigenvalues --   -0.39733  -0.39637  -0.39486  -0.39287  -0.38992
 Alpha  occ. eigenvalues --   -0.38640  -0.38550  -0.38366  -0.38310  -0.38086
 Alpha  occ. eigenvalues --   -0.37914  -0.37824  -0.37488  -0.37433  -0.37243
 Alpha  occ. eigenvalues --   -0.36809  -0.36748  -0.36406  -0.35988  -0.35536
 Alpha  occ. eigenvalues --   -0.35179  -0.35104  -0.34946  -0.34527  -0.34211
 Alpha  occ. eigenvalues --   -0.33927  -0.33833  -0.33545  -0.33270  -0.33011
 Alpha  occ. eigenvalues --   -0.32593  -0.32349  -0.32246  -0.32063  -0.31960
 Alpha  occ. eigenvalues --   -0.31384  -0.31133  -0.31002  -0.30905  -0.30081
 Alpha  occ. eigenvalues --   -0.28933  -0.28240  -0.28039  -0.27782  -0.27660
 Alpha  occ. eigenvalues --   -0.26930  -0.26360  -0.22425  -0.21898
 Alpha virt. eigenvalues --   -0.08550  -0.05840  -0.00651  -0.00409   0.01046
 Alpha virt. eigenvalues --    0.03516   0.03802   0.04239   0.04647   0.04737
 Alpha virt. eigenvalues --    0.05159   0.06235   0.08309   0.08897   0.09780

 Mulliken charges:
               1
     1  Mg   0.816625
     2  C    0.096165
     3  C   -0.226544
     4  C   -0.176650
     5  C   -0.167275
     6  N   -0.655708
     7  C    0.288721
     8  C   -0.107632
     9  C   -0.175862
    10  C    0.379169
    11  C   -0.292478
    12  C   -0.175064
    13  C   -0.276546
    14  C    0.604859
    15  O   -0.459271
    16  O   -0.466469
    17  N   -0.708479
    18  C    0.352999
    19  C    0.019077
    20  C   -0.044258
    21  C    0.319930
    22  C   -0.370310
    23  C    0.253565
    24  O   -0.374765
    25  N   -0.668448
    26  C    0.311689
    27  C   -0.069231
    28  C   -0.010129
    29  C    0.294303
    30  C    0.270219
    31  C   -0.202893
    32  C   -0.300281
    33  N   -0.746112
    34  C    0.228406
    35  C    0.009219
    36  C   -0.063043
    37  C    0.352530
    38  C   -0.357524
    39  C    0.362164
    40  O   -0.435275
    41  C   -0.338378
    42  C    0.645542
    43  O   -0.474040
    44  O   -0.463743
    45  C   -0.096891
    46  C    0.038530
    47  C   -0.176727
    48  C    0.167050
    49  C   -0.366450
    50  C   -0.239569
    51  C   -0.164336
    52  C   -0.165439
    53  C   -0.042593
    54  C   -0.307186
    55  C   -0.164677
    56  C   -0.192107
    57  C   -0.173392
    58  C   -0.025232
    59  C   -0.327930
    60  C   -0.168573
    61  C   -0.175723
    62  C   -0.187173
    63  C   -0.099397
    64  C   -0.300748
    65  C   -0.261778
    66  H    0.071767
    67  H    0.125494
    68  H    0.088566
    69  H    0.115526
    70  H    0.111534
    71  H    0.114831
    72  H    0.091180
    73  H    0.139699
    74  H    0.092681
    75  H    0.119423
    76  H    0.135979
    77  H    0.125411
    78  H    0.135171
    79  H    0.153944
    80  H    0.109149
    81  H    0.056768
    82  H    0.117149
    83  H    0.106274
    84  H    0.119840
    85  H    0.078835
    86  H    0.109544
    87  H    0.134414
    88  H    0.152668
    89  H    0.142270
    90  H    0.169870
    91  H    0.110196
    92  H    0.110657
    93  H    0.089698
    94  H    0.131007
    95  H    0.115894
    96  H    0.127516
    97  H    0.107588
    98  H    0.080361
    99  H    0.073973
   100  H    0.098243
   101  H    0.089366
   102  H    0.047418
   103  H    0.065298
   104  H    0.110215
   105  H    0.101946
   106  H    0.096740
   107  H    0.071536
   108  H    0.095986
   109  H    0.089927
   110  H    0.096547
   111  H    0.076639
   112  H    0.105516
   113  H    0.062965
   114  H    0.095769
   115  H    0.097321
   116  H    0.109940
   117  H    0.088597
   118  H    0.063103
   119  H    0.101940
   120  H    0.094259
   121  H    0.103266
   122  H    0.087554
   123  H    0.078844
   124  H    0.111121
   125  H    0.077369
   126  H    0.110460
   127  H    0.111725
   128  H    0.060645
   129  H    0.093255
   130  H    0.128451
   131  H    0.151106
   132  H    0.115639
   133  O   -0.415372
   134  H    0.093357
 Sum of Mulliken charges =   0.00000

 Dipole moment (field-independent basis, Debye):
    X=              1.2676    Y=             -3.7493    Z=             -0.6837  Tot=              4.0164
 Quadrupole moment (field-independent basis, Debye-Ang):
   XX=           -369.8952   YY=           -429.2773   ZZ=           -392.7809
   XY=             -6.0104   XZ=             26.5247   YZ=            -32.9533

 Normal termination of Gaussian 09 at Fri Oct  4 08:49:44 2019.
