 Gaussian 09, Revision D.01,
 Gaussian 09:  ES64L-G09RevD.01 24-Apr-2013

 ----------------------------------------------------------------------
 # td=(NStates=1) iop(3/107=0140000000,3/108=0140000000) iop(3/107=0140
 000000,3/108=0140000000) CAM-B3LYP/6-31G(d,p)
 ----------------------------------------------------------------------

 --
 TD
 --
 Symbolic Z-matrix:
 Charge =  0 Multiplicity = 1

                         Standard orientation:
 ---------------------------------------------------------------------
 Center     Atomic      Atomic             Coordinates (Angstroms)
 Number     Number       Type             X           Y           Z
 ---------------------------------------------------------------------
      1         12           0       -5.508126    1.261930    0.127920
      2          6           0       -5.012678   -2.057833   -0.326462
      3          6           0       -3.503627    1.192644    2.791892
      4          6           0       -6.183554    4.631866    0.540203
      5          6           0       -7.961203    1.163829   -2.489471
      6          7           0       -4.336645   -0.283487    1.121202
      7          6           0       -4.328740   -1.589016    0.737123
      8          6           0       -3.175697   -2.290380    1.495620
      9          6           0       -2.869456   -1.295385    2.607068
     10          6           0       -3.566978   -0.049805    2.123198
     11          6           0       -3.307938   -1.731827    4.056237
     12          6           0       -1.947937   -2.686321    0.669034
     13          6           0       -0.924160   -3.553320    1.377793
     14          6           0        0.369494   -3.862119    0.622609
     15          8           0        0.516758   -3.492348   -0.537355
     16          8           0        1.153664   -4.603351    1.347646
     17          7           0       -4.952891    2.673774    1.397318
     18          6           0       -4.119836    2.472664    2.529250
     19          6           0       -3.768565    3.686118    3.163230
     20          6           0       -4.635615    4.666293    2.549753
     21          6           0       -5.270104    3.935662    1.454759
     22          6           0       -2.759979    3.820458    4.133542
     23          6           0       -4.763247    6.086399    2.972992
     24          8           0       -4.210366    6.667740    3.929340
     25          7           0       -6.832996    2.565562   -0.810705
     26          6           0       -6.957870    3.875184   -0.374801
     27          6           0       -7.936867    4.515474   -1.168219
     28          6           0       -8.448854    3.578030   -2.163372
     29          6           0       -7.791316    2.367428   -1.777074
     30          6           0       -8.377991    5.927710   -1.117680
     31          6           0       -9.437081    3.743518   -3.257183
     32          6           0       -8.656773    3.783792   -4.580124
     33          7           0       -6.399424   -0.122868   -1.098683
     34          6           0       -7.398088    0.013041   -1.989291
     35          6           0       -7.548643   -1.479545   -2.710419
     36          6           0       -6.666817   -2.223641   -2.045393
     37          6           0       -5.984718   -1.446469   -1.058700
     38          6           0       -8.527049   -1.706067   -3.779600
     39          6           0       -6.229613   -3.548064   -1.888657
     40          8           0       -6.538787   -4.540400   -2.663986
     41          6           0       -5.110499   -3.492948   -0.874993
     42          6           0       -5.268483   -4.625719    0.084579
     43          8           0       -5.689304   -4.388966    1.253885
     44          8           0       -4.955518   -5.899295   -0.393982
     45          6           0       -5.241122   -6.945130    0.549262
     46          6           0        2.368929   -5.093100    0.772805
     47          6           0        3.493683   -4.175209    1.014085
     48          6           0        4.082063   -3.239395    0.081695
     49          6           0        3.771278   -3.131845   -1.393408
     50          6           0        5.135578   -2.413537    0.590936
     51          6           0        6.506432   -2.710670    0.048297
     52          6           0        7.650410   -1.827769    0.597927
     53          6           0        8.955699   -2.002855    0.036919
     54          6           0        9.560383   -3.469295    0.319522
     55          6           0        9.962924   -0.961739    0.432187
     56          6           0       11.304433   -0.769600   -0.270236
     57          6           0       12.140444    0.459027    0.214910
     58          6           0       13.478722    0.503476   -0.492988
     59          6           0       14.527251   -0.602115   -0.175003
     60          6           0       14.096530    1.914323   -0.246711
     61          6           0       15.447198    2.165201   -1.084575
     62          6           0       16.025027    3.521732   -0.652104
     63          6           0       17.359507    3.832850   -1.396310
     64          6           0       17.105201    4.042183   -2.977412
     65          6           0       18.023832    5.088645   -0.900810
     66          1           0       -2.685317    1.219427    3.708826
     67          1           0       -6.391307    5.772478    0.528853
     68          1           0       -8.538710    1.184068   -3.076949
     69          1           0       -3.605192   -3.298978    1.842979
     70          1           0       -1.802229   -1.288753    2.677136
     71          1           0       -2.925500   -2.683828    3.993627
     72          1           0       -3.091779   -1.064710    4.847844
     73          1           0       -4.387416   -1.913435    4.087605
     74          1           0       -2.217407   -3.160615   -0.245355
     75          1           0       -1.515375   -1.750135    0.127466
     76          1           0       -0.748813   -3.041451    2.407616
     77          1           0       -1.325211   -4.564524    1.528633
     78          1           0       -1.737757    3.903898    3.665098
     79          1           0       -2.951674    4.843881    4.651552
     80          1           0       -2.720885    2.969390    4.878673
     81          1           0       -5.418870    6.603574    2.318668
     82          1           0      -10.178635    2.886451   -3.338377
     83          1           0       -9.884268    4.652757   -3.276829
     84          1           0       -9.373240    3.908429   -5.487048
     85          1           0       -8.169214    4.866761   -4.547687
     86          1           0       -8.060575    2.845776   -4.779526
     87          1           0       -8.663125   -0.757145   -4.586233
     88          1           0       -8.514778   -2.680493   -4.161921
     89          1           0       -9.520487   -1.634858   -3.264848
     90          1           0       -4.175315   -3.670342   -1.416125
     91          1           0        2.502408   -6.263611    0.922349
     92          1           0        2.238942   -5.214871   -0.467514
     93          1           0        3.505293   -4.080262    2.203296
     94          1           0        2.731779   -3.407341   -1.566317
     95          1           0        3.595959   -2.030184   -1.668447
     96          1           0        4.425121   -3.828834   -1.867521
     97          1           0        4.759019   -1.374836    0.683913
     98          1           0        5.301608   -2.764461    1.837313
     99          1           0        6.750207   -3.642214    0.171271
    100          1           0        6.536017   -2.625830   -0.999071
    101          1           0        7.547593   -0.668739    0.140287
    102          1           0        7.623401   -1.864122    1.666965
    103          1           0        8.950884   -1.945995   -1.067115
    104          1           0        8.863011   -4.182972   -0.142605
    105          1           0       10.519296   -3.401364   -0.203667
    106          1           0        9.590914   -3.730653    1.421536
    107          1           0        9.314839    0.011646    0.330374
    108          1           0       10.022974   -1.165744    1.496022
    109          1           0       11.778476   -1.613657   -0.076352
    110          1           0       10.851476   -0.843634   -1.424986
    111          1           0       11.428418    1.296376    0.212711
    112          1           0       12.335924    0.253791    1.248951
    113          1           0       13.334912    0.608072   -1.496882
    114          1           0       14.519751   -0.545638    0.939225
    115          1           0       13.815275   -1.533210   -0.384303
    116          1           0       15.363126   -0.565388   -0.856634
    117          1           0       13.293882    2.648816   -0.450089
    118          1           0       14.419899    2.066643    0.805738
    119          1           0       16.318006    1.583142   -0.717864
    120          1           0       15.355884    1.828702   -2.158177
    121          1           0       15.310096    4.430604   -0.862482
    122          1           0       16.423701    3.352309    0.439587
    123          1           0       18.021452    3.041806   -1.053270
    124          1           0       16.483563    4.938905   -3.094303
    125          1           0       18.112111    4.204385   -3.487834
    126          1           0       16.521898    3.164590   -3.453476
    127          1           0       18.387557    4.943228    0.265261
    128          1           0       18.986916    5.348799   -1.439055
    129          1           0       17.624585    6.080743   -1.055837
    130          1           0       -4.548353   -7.827006    0.008205
    131          1           0       -6.290141   -7.290542    0.781700
    132          1           0       -4.929586   -6.558497    1.575987
    133          8           0       -8.053523    6.733662   -0.245858
    134          1           0       -9.230727    6.188053   -1.815655
 ---------------------------------------------------------------------

 SCF Done:  E(RCAM-B3LYP) =  -3043.38123299     A.U. after   16 cycles

 Excitation energies and oscillator strengths:

 Excited State   1:      Singlet-A      1.9696 eV  629.50 nm  f=0.1594  <S**2>=0.000
     243 -> 245       -0.13340
     243 -> 246        0.27014
     244 -> 245        0.61697
     244 -> 246        0.14207
 This state for optimization and/or second-order correction.
 Total Energy, E(TD-HF/TD-KS) =  -3043.30885289
 Copying the excited state density for this state as the 1-particle RhoCI density.

 The electronic state is 1-A.
 Alpha  occ. eigenvalues --  -46.82081 -19.24274 -19.24188 -19.18366 -19.17256
 Alpha  occ. eigenvalues --  -19.17183 -19.17083 -19.16613 -14.39145 -14.37510
 Alpha  occ. eigenvalues --  -14.37141 -14.36468 -10.36722 -10.35712 -10.31760
 Alpha  occ. eigenvalues --  -10.30519 -10.29664 -10.29649 -10.29478 -10.27826
 Alpha  occ. eigenvalues --  -10.27535 -10.27167 -10.26669 -10.26651 -10.26527
 Alpha  occ. eigenvalues --  -10.26471 -10.26190 -10.25799 -10.25690 -10.24889
 Alpha  occ. eigenvalues --  -10.24773 -10.24602 -10.24562 -10.24552 -10.24505
 Alpha  occ. eigenvalues --  -10.24452 -10.24317 -10.23917 -10.23830 -10.23798
 Alpha  occ. eigenvalues --  -10.23524 -10.23470 -10.23425 -10.23097 -10.22969
 Alpha  occ. eigenvalues --  -10.22874 -10.22513 -10.22206 -10.22005 -10.21996
 Alpha  occ. eigenvalues --  -10.21777 -10.21618 -10.21576 -10.21551 -10.21478
 Alpha  occ. eigenvalues --  -10.21465 -10.21325 -10.21282 -10.21267 -10.21094
 Alpha  occ. eigenvalues --  -10.21093 -10.20707 -10.20677 -10.20522 -10.20511
 Alpha  occ. eigenvalues --  -10.20141  -3.10633  -1.85570  -1.85106  -1.85037
 Alpha  occ. eigenvalues --   -1.15791  -1.12627  -1.06112  -1.05281  -1.04302
 Alpha  occ. eigenvalues --   -1.04164  -1.03465  -1.02532  -1.00385  -0.99926
 Alpha  occ. eigenvalues --   -0.98404  -0.90855  -0.87222  -0.86384  -0.85889
 Alpha  occ. eigenvalues --   -0.85669  -0.85049  -0.84618  -0.84491  -0.83948
 Alpha  occ. eigenvalues --   -0.83093  -0.82921  -0.82148  -0.80817  -0.80086
 Alpha  occ. eigenvalues --   -0.79028  -0.78636  -0.78243  -0.77199  -0.77061
 Alpha  occ. eigenvalues --   -0.75664  -0.75358  -0.74462  -0.73133  -0.72454
 Alpha  occ. eigenvalues --   -0.71821  -0.70627  -0.70093  -0.69868  -0.69571
 Alpha  occ. eigenvalues --   -0.69435  -0.69170  -0.67662  -0.67152  -0.66306
 Alpha  occ. eigenvalues --   -0.65833  -0.65424  -0.64795  -0.63369  -0.62841
 Alpha  occ. eigenvalues --   -0.62043  -0.61424  -0.61214  -0.59960  -0.59161
 Alpha  occ. eigenvalues --   -0.59043  -0.58225  -0.58120  -0.58048  -0.57610
 Alpha  occ. eigenvalues --   -0.56682  -0.56265  -0.56148  -0.55595  -0.55394
 Alpha  occ. eigenvalues --   -0.54349  -0.53789  -0.53317  -0.52641  -0.52535
 Alpha  occ. eigenvalues --   -0.52238  -0.51942  -0.51630  -0.51359  -0.50795
 Alpha  occ. eigenvalues --   -0.50497  -0.50227  -0.49907  -0.49690  -0.49435
 Alpha  occ. eigenvalues --   -0.49141  -0.48949  -0.48559  -0.48054  -0.48000
 Alpha  occ. eigenvalues --   -0.47756  -0.47543  -0.47353  -0.47199  -0.46937
 Alpha  occ. eigenvalues --   -0.46775  -0.46663  -0.46465  -0.46122  -0.45712
 Alpha  occ. eigenvalues --   -0.45537  -0.45486  -0.45197  -0.45086  -0.44909
 Alpha  occ. eigenvalues --   -0.44722  -0.44517  -0.44235  -0.44065  -0.43863
 Alpha  occ. eigenvalues --   -0.43603  -0.43297  -0.43143  -0.43061  -0.42712
 Alpha  occ. eigenvalues --   -0.42663  -0.42430  -0.42344  -0.42269  -0.42167
 Alpha  occ. eigenvalues --   -0.41808  -0.41639  -0.41453  -0.41079  -0.40879
 Alpha  occ. eigenvalues --   -0.40754  -0.40538  -0.40459  -0.40328  -0.40004
 Alpha  occ. eigenvalues --   -0.39911  -0.39764  -0.39745  -0.39264  -0.39250
 Alpha  occ. eigenvalues --   -0.38950  -0.38885  -0.38805  -0.38723  -0.38438
 Alpha  occ. eigenvalues --   -0.38142  -0.38094  -0.37360  -0.37182  -0.37063
 Alpha  occ. eigenvalues --   -0.36985  -0.36633  -0.36406  -0.35829  -0.35163
 Alpha  occ. eigenvalues --   -0.34998  -0.34822  -0.34781  -0.34557  -0.34410
 Alpha  occ. eigenvalues --   -0.34247  -0.34130  -0.33866  -0.33554  -0.33533
 Alpha  occ. eigenvalues --   -0.33213  -0.32626  -0.32456  -0.31739  -0.31342
 Alpha  occ. eigenvalues --   -0.31189  -0.31117  -0.30589  -0.30327  -0.30018
 Alpha  occ. eigenvalues --   -0.29057  -0.28272  -0.27880  -0.27648  -0.27247
 Alpha  occ. eigenvalues --   -0.26876  -0.26571  -0.23124  -0.21162
 Alpha virt. eigenvalues --   -0.08492  -0.07238  -0.03287  -0.00566   0.00259
 Alpha virt. eigenvalues --    0.01119   0.01185   0.02364   0.03780   0.04654
 Alpha virt. eigenvalues --    0.05127   0.05437   0.07138   0.08204   0.08787

 Mulliken charges:
               1
     1  Mg   0.844718
     2  C    0.097019
     3  C   -0.216195
     4  C   -0.189691
     5  C    0.029022
     6  N   -0.628794
     7  C    0.298037
     8  C   -0.166496
     9  C   -0.161588
    10  C    0.384984
    11  C   -0.306143
    12  C   -0.176954
    13  C   -0.259968
    14  C    0.604635
    15  O   -0.475370
    16  O   -0.416334
    17  N   -0.708058
    18  C    0.267344
    19  C    0.107783
    20  C   -0.067053
    21  C    0.333621
    22  C   -0.422220
    23  C    0.263312
    24  O   -0.443680
    25  N   -0.694477
    26  C    0.344549
    27  C   -0.080206
    28  C    0.064292
    29  C    0.234691
    30  C    0.238400
    31  C   -0.245575
    32  C   -0.309481
    33  N   -0.693672
    34  C    0.247022
    35  C   -0.009349
    36  C    0.136697
    37  C    0.248881
    38  C   -0.395683
    39  C    0.338847
    40  O   -0.493008
    41  C   -0.310283
    42  C    0.620738
    43  O   -0.486699
    44  O   -0.440681
    45  C   -0.086414
    46  C   -0.022297
    47  C   -0.122289
    48  C    0.109996
    49  C   -0.381398
    50  C   -0.204647
    51  C   -0.166253
    52  C   -0.135713
    53  C   -0.074182
    54  C   -0.322244
    55  C   -0.166830
    56  C   -0.163668
    57  C   -0.182154
    58  C   -0.064167
    59  C   -0.304423
    60  C   -0.170132
    61  C   -0.182584
    62  C   -0.159273
    63  C   -0.046614
    64  C   -0.313292
    65  C   -0.303365
    66  H    0.071466
    67  H    0.164958
    68  H   -0.041510
    69  H    0.114535
    70  H    0.111448
    71  H    0.117081
    72  H    0.121289
    73  H    0.121714
    74  H    0.113246
    75  H    0.104822
    76  H    0.117605
    77  H    0.138118
    78  H    0.134009
    79  H    0.155105
    80  H    0.114334
    81  H    0.082502
    82  H    0.114572
    83  H    0.119621
    84  H    0.095668
    85  H    0.105309
    86  H    0.116537
    87  H    0.110294
    88  H    0.158687
    89  H    0.143548
    90  H    0.178483
    91  H    0.115576
    92  H    0.090927
    93  H    0.083140
    94  H    0.156932
    95  H    0.118996
    96  H    0.137695
    97  H    0.110767
    98  H    0.048597
    99  H    0.111751
   100  H    0.099945
   101  H    0.053261
   102  H    0.091964
   103  H    0.073731
   104  H    0.098313
   105  H    0.104656
   106  H    0.093879
   107  H    0.056174
   108  H    0.081197
   109  H    0.111372
   110  H    0.057025
   111  H    0.102705
   112  H    0.097922
   113  H    0.096624
   114  H    0.108442
   115  H    0.082430
   116  H    0.123431
   117  H    0.087115
   118  H    0.078548
   119  H    0.090213
   120  H    0.086473
   121  H    0.075930
   122  H    0.084180
   123  H    0.087642
   124  H    0.109239
   125  H    0.099461
   126  H    0.091964
   127  H    0.066308
   128  H    0.088357
   129  H    0.106928
   130  H    0.110297
   131  H    0.137198
   132  H    0.130523
   133  O   -0.431684
   134  H    0.065426
 Sum of Mulliken charges =   0.00000

 Dipole moment (field-independent basis, Debye):
    X=              2.5288    Y=             -5.6371    Z=             -2.5689  Tot=              6.6911
 Quadrupole moment (field-independent basis, Debye-Ang):
   XX=           -377.4481   YY=           -444.0015   ZZ=           -400.8836
   XY=             13.3587   XZ=             28.1562   YZ=            -42.1683

 Normal termination of Gaussian 09 at Tue Oct  8 20:29:23 2019.
