 Gaussian 09, Revision D.01,
 Gaussian 09:  ES64L-G09RevD.01 24-Apr-2013

 ----------------------------------------------------------------------
 # td=(NStates=1) iop(3/107=0140000000,3/108=0140000000) iop(3/107=0140
 000000,3/108=0140000000) CAM-B3LYP/6-31G(d,p)
 ----------------------------------------------------------------------

 --
 TD
 --
 Symbolic Z-matrix:
 Charge =  0 Multiplicity = 1

                         Standard orientation:
 ---------------------------------------------------------------------
 Center     Atomic      Atomic             Coordinates (Angstroms)
 Number     Number       Type             X           Y           Z
 ---------------------------------------------------------------------
      1         12           0       -5.739205    1.250218    0.199415
      2          6           0       -5.152440   -2.173740   -0.310243
      3          6           0       -3.527340    1.165978    2.858540
      4          6           0       -6.274459    4.586024    0.630432
      5          6           0       -7.992742    1.179214   -2.399785
      6          7           0       -4.427801   -0.187395    1.053720
      7          6           0       -4.303870   -1.594642    0.634541
      8          6           0       -3.268305   -2.395168    1.458173
      9          6           0       -2.962647   -1.341387    2.664878
     10          6           0       -3.695354   -0.114237    2.136303
     11          6           0       -3.386114   -1.826422    4.011406
     12          6           0       -2.126602   -2.736320    0.599017
     13          6           0       -1.017610   -3.474133    1.424848
     14          6           0        0.294939   -3.731971    0.655475
     15          8           0        0.487932   -3.155412   -0.508187
     16          8           0        1.062226   -4.618915    1.241823
     17          7           0       -5.028684    2.646509    1.465807
     18          6           0       -4.085817    2.312545    2.548362
     19          6           0       -3.770911    3.698291    3.117641
     20          6           0       -4.536287    4.602888    2.569034
     21          6           0       -5.329962    3.969635    1.460228
     22          6           0       -2.839783    3.821025    4.299299
     23          6           0       -4.676065    6.001375    2.985641
     24          8           0       -4.066019    6.571148    3.827787
     25          7           0       -6.859160    2.579395   -0.744263
     26          6           0       -6.955988    3.926330   -0.419802
     27          6           0       -8.018930    4.561228   -1.213753
     28          6           0       -8.566345    3.608818   -2.046955
     29          6           0       -7.809751    2.456537   -1.738978
     30          6           0       -8.323235    5.966492   -1.174495
     31          6           0       -9.517039    3.794059   -3.138688
     32          6           0       -8.763497    3.928351   -4.531217
     33          7           0       -6.465058   -0.105518   -1.043106
     34          6           0       -7.314921   -0.007554   -2.222596
     35          6           0       -7.520196   -1.316406   -2.790798
     36          6           0       -6.670144   -2.242457   -2.046133
     37          6           0       -6.014880   -1.407274   -1.145160
     38          6           0       -8.402053   -1.657057   -4.018402
     39          6           0       -6.135950   -3.578556   -2.013792
     40          8           0       -6.494191   -4.518068   -2.692553
     41          6           0       -5.090855   -3.582273   -0.808802
     42          6           0       -5.365087   -4.732406    0.160070
     43          8           0       -5.819969   -4.520587    1.305252
     44          8           0       -5.054527   -5.913042   -0.308294
     45          6           0       -5.392363   -7.020718    0.693392
     46          6           0        2.291452   -4.999893    0.611777
     47          6           0        3.389976   -4.117442    0.950778
     48          6           0        4.039118   -3.134491    0.244035
     49          6           0        3.715129   -2.907623   -1.138915
     50          6           0        5.233851   -2.241125    0.676169
     51          6           0        6.491596   -2.677247    0.093463
     52          6           0        7.710388   -1.807831    0.590423
     53          6           0        9.013300   -1.941969   -0.146211
     54          6           0        9.607536   -3.367692    0.033229
     55          6           0       10.025643   -0.975131    0.394569
     56          6           0       11.333066   -0.810697   -0.316007
     57          6           0       12.266962    0.347886    0.140270
     58          6           0       13.707896    0.457500   -0.614717
     59          6           0       14.536493   -0.795776   -0.315669
     60          6           0       14.333239    1.725943   -0.177604
     61          6           0       15.496247    2.069154   -1.076079
     62          6           0       16.229690    3.392464   -0.640869
     63          6           0       17.559752    3.799213   -1.288614
     64          6           0       17.332555    3.993911   -2.773678
     65          6           0       18.163483    5.088312   -0.723868
     66          1           0       -2.943831    1.185056    3.698686
     67          1           0       -6.593578    5.687744    0.875549
     68          1           0       -8.736260    1.250865   -3.305418
     69          1           0       -3.696324   -3.339430    1.738962
     70          1           0       -1.883271   -1.106562    2.748044
     71          1           0       -2.851957   -2.757447    4.161964
     72          1           0       -3.221914   -1.035716    5.003335
     73          1           0       -4.382740   -2.350147    4.232829
     74          1           0       -2.425126   -3.382515   -0.216875
     75          1           0       -1.583636   -1.965722    0.253760
     76          1           0       -0.861433   -2.867168    2.386138
     77          1           0       -1.449008   -4.436477    1.773165
     78          1           0       -1.832194    3.623828    4.214605
     79          1           0       -2.892648    4.919410    4.484412
     80          1           0       -3.438371    3.418104    5.227619
     81          1           0       -5.453027    6.567451    2.402309
     82          1           0      -10.161387    2.928663   -3.254697
     83          1           0      -10.121247    4.664099   -3.066319
     84          1           0       -9.429680    3.735926   -5.388827
     85          1           0       -8.334525    4.852840   -4.743351
     86          1           0       -8.020472    3.267536   -4.774275
     87          1           0       -8.005360   -1.159660   -4.974465
     88          1           0       -8.298111   -2.769495   -4.179263
     89          1           0       -9.464475   -1.516659   -3.746033
     90          1           0       -4.090332   -3.993297   -1.259661
     91          1           0        2.492242   -5.983113    1.036323
     92          1           0        2.056199   -5.065693   -0.434312
     93          1           0        3.757970   -4.180901    1.970905
     94          1           0        2.823637   -3.237400   -1.398985
     95          1           0        3.914835   -1.926453   -1.507401
     96          1           0        4.316995   -3.623182   -1.821555
     97          1           0        5.006040   -1.312207    0.253673
     98          1           0        5.578822   -2.182950    1.860190
     99          1           0        6.739486   -3.644103    0.392879
    100          1           0        6.471350   -2.602452   -1.133351
    101          1           0        7.359670   -0.721493    0.407012
    102          1           0        7.687695   -1.890975    1.710533
    103          1           0        9.048116   -1.642310   -1.311478
    104          1           0        8.840380   -4.053255   -0.491579
    105          1           0       10.612325   -3.388194   -0.669148
    106          1           0        9.887373   -3.570018    1.097377
    107          1           0        9.592949   -0.024273    0.389495
    108          1           0        9.993974   -1.259490    1.541233
    109          1           0       11.920833   -1.719922   -0.209533
    110          1           0       11.202430   -0.775495   -1.363144
    111          1           0       11.728599    1.219119   -0.130942
    112          1           0       12.555468    0.217222    1.146142
    113          1           0       13.496714    0.618798   -1.644355
    114          1           0       14.726667   -0.894995    0.816360
    115          1           0       13.789878   -1.715465   -0.566497
    116          1           0       15.689975   -0.815805   -0.691157
    117          1           0       13.648540    2.563231   -0.254388
    118          1           0       14.581565    1.611718    0.988351
    119          1           0       16.318144    1.249709   -1.119008
    120          1           0       15.016647    2.128351   -2.166551
    121          1           0       15.537984    4.085062   -0.705141
    122          1           0       16.343685    3.470463    0.429770
    123          1           0       18.217264    3.102043   -0.970127
    124          1           0       16.855499    4.814631   -3.024947
    125          1           0       18.279668    4.524818   -3.261903
    126          1           0       17.064043    3.105571   -3.363073
    127          1           0       18.212946    4.911531    0.325713
    128          1           0       19.052731    5.292989   -1.068322
    129          1           0       17.496430    6.079792   -0.653145
    130          1           0       -5.209027   -8.005700    0.046792
    131          1           0       -6.398794   -6.998798    0.829788
    132          1           0       -4.855056   -6.837361    1.559935
    133          8           0       -7.802949    6.847591   -0.506282
    134          1           0       -9.235228    6.119238   -1.990041
 ---------------------------------------------------------------------

 SCF Done:  E(RCAM-B3LYP) =  -3043.50902747     A.U. after   15 cycles

 Excitation energies and oscillator strengths:

 Excited State   1:      Singlet-A      2.0694 eV  599.13 nm  f=0.1945  <S**2>=0.000
     243 -> 246       -0.23124
     244 -> 245        0.65769
 This state for optimization and/or second-order correction.
 Total Energy, E(TD-HF/TD-KS) =  -3043.43297823
 Copying the excited state density for this state as the 1-particle RhoCI density.

 The electronic state is 1-A.
 Alpha  occ. eigenvalues --  -46.79768 -19.24320 -19.23984 -19.17432 -19.17040
 Alpha  occ. eigenvalues --  -19.16874 -19.16680 -19.16458 -14.40253 -14.36448
 Alpha  occ. eigenvalues --  -14.36396 -14.36116 -10.36321 -10.35354 -10.31146
 Alpha  occ. eigenvalues --  -10.30443 -10.30087 -10.29203 -10.28545 -10.28208
 Alpha  occ. eigenvalues --  -10.27730 -10.26804 -10.26550 -10.26168 -10.26108
 Alpha  occ. eigenvalues --  -10.25809 -10.25780 -10.25726 -10.25703 -10.25450
 Alpha  occ. eigenvalues --  -10.25300 -10.24696 -10.24617 -10.24524 -10.24466
 Alpha  occ. eigenvalues --  -10.24149 -10.24119 -10.23992 -10.23555 -10.23267
 Alpha  occ. eigenvalues --  -10.22958 -10.22820 -10.22662 -10.22638 -10.22411
 Alpha  occ. eigenvalues --  -10.22409 -10.22311 -10.22279 -10.22227 -10.21991
 Alpha  occ. eigenvalues --  -10.21915 -10.21852 -10.21647 -10.21592 -10.21435
 Alpha  occ. eigenvalues --  -10.21282 -10.20958 -10.20703 -10.20689 -10.20403
 Alpha  occ. eigenvalues --  -10.20366 -10.20244 -10.19427 -10.19301 -10.19283
 Alpha  occ. eigenvalues --  -10.18858  -3.08676  -1.83583  -1.83198  -1.83071
 Alpha  occ. eigenvalues --   -1.14825  -1.14015  -1.08835  -1.06809  -1.06156
 Alpha  occ. eigenvalues --   -1.03052  -1.01103  -1.00042  -0.99055  -0.97532
 Alpha  occ. eigenvalues --   -0.96851  -0.88591  -0.87272  -0.86714  -0.85875
 Alpha  occ. eigenvalues --   -0.85765  -0.85095  -0.84444  -0.83717  -0.83478
 Alpha  occ. eigenvalues --   -0.82721  -0.82348  -0.81863  -0.81148  -0.79790
 Alpha  occ. eigenvalues --   -0.79327  -0.78611  -0.78033  -0.77459  -0.77136
 Alpha  occ. eigenvalues --   -0.75539  -0.74729  -0.74099  -0.73414  -0.72115
 Alpha  occ. eigenvalues --   -0.71721  -0.71153  -0.70487  -0.70195  -0.69775
 Alpha  occ. eigenvalues --   -0.69677  -0.68650  -0.67972  -0.67557  -0.66293
 Alpha  occ. eigenvalues --   -0.65472  -0.65209  -0.63591  -0.62916  -0.62311
 Alpha  occ. eigenvalues --   -0.61471  -0.61082  -0.60520  -0.60230  -0.59939
 Alpha  occ. eigenvalues --   -0.58461  -0.58432  -0.57631  -0.57583  -0.57172
 Alpha  occ. eigenvalues --   -0.56811  -0.55589  -0.55178  -0.55004  -0.54165
 Alpha  occ. eigenvalues --   -0.53868  -0.53505  -0.52918  -0.52550  -0.51966
 Alpha  occ. eigenvalues --   -0.51922  -0.51677  -0.51420  -0.51109  -0.50563
 Alpha  occ. eigenvalues --   -0.50406  -0.50256  -0.49821  -0.49474  -0.49138
 Alpha  occ. eigenvalues --   -0.48788  -0.48364  -0.48130  -0.48012  -0.47831
 Alpha  occ. eigenvalues --   -0.47561  -0.47332  -0.47263  -0.47239  -0.46944
 Alpha  occ. eigenvalues --   -0.46847  -0.46673  -0.46475  -0.46259  -0.46148
 Alpha  occ. eigenvalues --   -0.45917  -0.45670  -0.45270  -0.45160  -0.44692
 Alpha  occ. eigenvalues --   -0.44568  -0.44236  -0.44089  -0.43783  -0.43743
 Alpha  occ. eigenvalues --   -0.43663  -0.43298  -0.43164  -0.42876  -0.42859
 Alpha  occ. eigenvalues --   -0.42530  -0.42346  -0.42137  -0.42042  -0.41750
 Alpha  occ. eigenvalues --   -0.41534  -0.41439  -0.41372  -0.40968  -0.40904
 Alpha  occ. eigenvalues --   -0.40673  -0.40663  -0.40521  -0.40257  -0.40109
 Alpha  occ. eigenvalues --   -0.40030  -0.39828  -0.39533  -0.39370  -0.39276
 Alpha  occ. eigenvalues --   -0.39195  -0.39063  -0.38817  -0.38638  -0.38509
 Alpha  occ. eigenvalues --   -0.38502  -0.38453  -0.37670  -0.37452  -0.37161
 Alpha  occ. eigenvalues --   -0.37057  -0.37001  -0.36736  -0.36326  -0.35917
 Alpha  occ. eigenvalues --   -0.35626  -0.35000  -0.34931  -0.34684  -0.34622
 Alpha  occ. eigenvalues --   -0.34543  -0.34100  -0.33835  -0.33813  -0.33301
 Alpha  occ. eigenvalues --   -0.33127  -0.32892  -0.32495  -0.31900  -0.31752
 Alpha  occ. eigenvalues --   -0.31501  -0.31089  -0.30322  -0.29989  -0.29809
 Alpha  occ. eigenvalues --   -0.28610  -0.28147  -0.27675  -0.27614  -0.27229
 Alpha  occ. eigenvalues --   -0.27185  -0.27022  -0.23625  -0.20710
 Alpha virt. eigenvalues --   -0.07547  -0.06396  -0.01894  -0.00014   0.00602
 Alpha virt. eigenvalues --    0.01630   0.02456   0.03111   0.03887   0.04412
 Alpha virt. eigenvalues --    0.05482   0.06236   0.07700   0.08468   0.09182

 Mulliken charges:
               1
     1  Mg   0.821697
     2  C    0.090606
     3  C   -0.189568
     4  C   -0.206184
     5  C   -0.195533
     6  N   -0.590841
     7  C    0.233848
     8  C   -0.151941
     9  C   -0.135513
    10  C    0.367448
    11  C   -0.309612
    12  C   -0.152869
    13  C   -0.284023
    14  C    0.597589
    15  O   -0.512580
    16  O   -0.418290
    17  N   -0.744042
    18  C    0.327932
    19  C    0.024023
    20  C   -0.015681
    21  C    0.349126
    22  C   -0.407980
    23  C    0.256060
    24  O   -0.395522
    25  N   -0.692256
    26  C    0.314843
    27  C   -0.035606
    28  C    0.100875
    29  C    0.267719
    30  C    0.250781
    31  C   -0.262706
    32  C   -0.335488
    33  N   -0.692668
    34  C    0.281974
    35  C   -0.011464
    36  C    0.044212
    37  C    0.285516
    38  C   -0.384529
    39  C    0.358717
    40  O   -0.458351
    41  C   -0.345139
    42  C    0.627164
    43  O   -0.508674
    44  O   -0.440576
    45  C   -0.091849
    46  C    0.000629
    47  C   -0.151003
    48  C    0.149141
    49  C   -0.376340
    50  C   -0.206528
    51  C   -0.162784
    52  C   -0.170464
    53  C   -0.058631
    54  C   -0.291685
    55  C   -0.141385
    56  C   -0.198900
    57  C   -0.177469
    58  C   -0.055666
    59  C   -0.299249
    60  C   -0.148115
    61  C   -0.178730
    62  C   -0.168712
    63  C   -0.044684
    64  C   -0.295902
    65  C   -0.320626
    66  H    0.079670
    67  H    0.145952
    68  H    0.086698
    69  H    0.124999
    70  H    0.125764
    71  H    0.117964
    72  H    0.086419
    73  H    0.130784
    74  H    0.114712
    75  H    0.135881
    76  H    0.122259
    77  H    0.120639
    78  H    0.133387
    79  H    0.158491
    80  H    0.120072
    81  H    0.069322
    82  H    0.119182
    83  H    0.126557
    84  H    0.101185
    85  H    0.126503
    86  H    0.125235
    87  H    0.127054
    88  H    0.146111
    89  H    0.130857
    90  H    0.154107
    91  H    0.122246
    92  H    0.128327
    93  H    0.076602
    94  H    0.149857
    95  H    0.112157
    96  H    0.105397
    97  H    0.114061
    98  H    0.070279
    99  H    0.112148
   100  H    0.070315
   101  H    0.078129
   102  H    0.089043
   103  H    0.066778
   104  H    0.097732
   105  H    0.078979
   106  H    0.104707
   107  H    0.088064
   108  H    0.060850
   109  H    0.090715
   110  H    0.093865
   111  H    0.092526
   112  H    0.099856
   113  H    0.084147
   114  H    0.092477
   115  H    0.090020
   116  H    0.091511
   117  H    0.093090
   118  H    0.065031
   119  H    0.077804
   120  H    0.076893
   121  H    0.098131
   122  H    0.077628
   123  H    0.097940
   124  H    0.119732
   125  H    0.054883
   126  H    0.102265
   127  H    0.098386
   128  H    0.116956
   129  H    0.075710
   130  H    0.124381
   131  H    0.162142
   132  H    0.150950
   133  O   -0.435290
   134  H    0.019237
 Sum of Mulliken charges =   0.00000

 Dipole moment (field-independent basis, Debye):
    X=              3.0899    Y=             -6.4151    Z=              0.6466  Tot=              7.1497
 Quadrupole moment (field-independent basis, Debye-Ang):
   XX=           -392.4448   YY=           -429.5471   ZZ=           -390.2251
   XY=             22.5209   XZ=             19.4192   YZ=            -34.2377

 Normal termination of Gaussian 09 at Sat Oct  5 09:29:25 2019.
