 Gaussian 09, Revision D.01,
 Gaussian 09:  ES64L-G09RevD.01 24-Apr-2013

 ----------------------------------------------------------------------
 # td=(NStates=1) iop(3/107=0140000000,3/108=0140000000) iop(3/107=0140
 000000,3/108=0140000000) CAM-B3LYP/6-31G(d,p)
 ----------------------------------------------------------------------

 --
 TD
 --
 Symbolic Z-matrix:
 Charge =  0 Multiplicity = 1

                         Standard orientation:
 ---------------------------------------------------------------------
 Center     Atomic      Atomic             Coordinates (Angstroms)
 Number     Number       Type             X           Y           Z
 ---------------------------------------------------------------------
      1         12           0       -5.638854    1.213493    0.168230
      2          6           0       -5.102827   -2.093016   -0.330281
      3          6           0       -3.419468    1.153117    2.868650
      4          6           0       -6.098038    4.456700    0.607515
      5          6           0       -7.974751    1.144750   -2.374140
      6          7           0       -4.434707   -0.249736    1.116115
      7          6           0       -4.300556   -1.566389    0.718458
      8          6           0       -3.252648   -2.350534    1.419870
      9          6           0       -3.014690   -1.401716    2.672777
     10          6           0       -3.614371   -0.055403    2.191406
     11          6           0       -3.618012   -1.840877    4.025964
     12          6           0       -1.989941   -2.667635    0.607426
     13          6           0       -1.038696   -3.609512    1.403875
     14          6           0        0.246780   -3.890432    0.583099
     15          8           0        0.446145   -3.497598   -0.555843
     16          8           0        1.030258   -4.709292    1.340513
     17          7           0       -4.867406    2.561532    1.540194
     18          6           0       -4.019534    2.402564    2.487964
     19          6           0       -3.618439    3.604173    3.178093
     20          6           0       -4.364527    4.620709    2.542135
     21          6           0       -5.198660    3.856260    1.522487
     22          6           0       -2.741138    3.746770    4.383369
     23          6           0       -4.448523    6.018015    2.882633
     24          8           0       -3.857179    6.625604    3.735803
     25          7           0       -6.899778    2.634769   -0.709746
     26          6           0       -6.951023    3.934158   -0.275890
     27          6           0       -7.867901    4.677679   -1.161510
     28          6           0       -8.313821    3.725881   -2.077427
     29          6           0       -7.717415    2.452908   -1.760612
     30          6           0       -8.334136    6.050925   -1.016924
     31          6           0       -9.244209    3.931479   -3.291171
     32          6           0       -8.821401    3.998560   -4.612690
     33          7           0       -6.374094   -0.148845   -1.044376
     34          6           0       -7.426397   -0.041582   -2.041959
     35          6           0       -7.595163   -1.391763   -2.736845
     36          6           0       -6.613853   -2.179334   -2.082606
     37          6           0       -6.021354   -1.427057   -1.138033
     38          6           0       -8.512164   -1.476106   -3.926748
     39          6           0       -6.208858   -3.600371   -1.971522
     40          8           0       -6.503746   -4.613517   -2.621807
     41          6           0       -5.010516   -3.462668   -0.871446
     42          6           0       -5.371975   -4.642839    0.040710
     43          8           0       -5.829044   -4.504526    1.194607
     44          8           0       -4.969229   -5.812417   -0.425152
     45          6           0       -5.264706   -6.956865    0.507485
     46          6           0        2.334025   -5.022745    0.601612
     47          6           0        3.419428   -4.162506    0.996940
     48          6           0        4.032398   -3.264174    0.247882
     49          6           0        3.668167   -3.065384   -1.183831
     50          6           0        5.207731   -2.451100    0.754615
     51          6           0        6.560979   -2.750477    0.016211
     52          6           0        7.729842   -1.798697    0.588833
     53          6           0        9.046875   -1.924002   -0.134586
     54          6           0        9.612508   -3.287487    0.034057
     55          6           0       10.049466   -0.943832    0.319352
     56          6           0       11.379961   -0.941988   -0.360525
     57          6           0       12.105472    0.282094    0.159465
     58          6           0       13.564031    0.497542   -0.565625
     59          6           0       14.429668   -0.768296   -0.394992
     60          6           0       14.091309    1.819178   -0.111273
     61          6           0       15.294520    2.202037   -0.999224
     62          6           0       15.972037    3.475895   -0.576817
     63          6           0       17.277935    3.893466   -1.302613
     64          6           0       16.954801    4.098108   -2.818141
     65          6           0       17.904283    5.154441   -0.867752
     66          1           0       -2.794037    0.986890    3.762624
     67          1           0       -6.331924    5.409118    0.929455
     68          1           0       -8.808491    1.307834   -3.056375
     69          1           0       -3.741956   -3.375092    1.546687
     70          1           0       -2.017667   -1.294796    2.778145
     71          1           0       -3.286311   -2.796171    4.366718
     72          1           0       -3.757351   -1.137957    4.928775
     73          1           0       -4.496301   -2.161001    3.726130
     74          1           0       -2.321652   -3.210706   -0.335478
     75          1           0       -1.428880   -1.893102    0.084108
     76          1           0       -0.717097   -3.051248    2.301507
     77          1           0       -1.332655   -4.518858    1.864397
     78          1           0       -1.624771    3.266592    4.146672
     79          1           0       -2.634688    4.869279    4.675489
     80          1           0       -2.827517    3.130298    5.278313
     81          1           0       -4.912866    6.618447    2.103750
     82          1           0      -10.016781    3.046151   -3.194714
     83          1           0       -9.854032    4.881129   -3.014431
     84          1           0       -9.728433    4.017371   -5.272337
     85          1           0       -7.933740    4.670658   -5.067757
     86          1           0       -8.356402    3.146287   -4.955321
     87          1           0       -7.972635   -0.957625   -4.571677
     88          1           0       -8.501889   -2.499352   -4.360506
     89          1           0       -9.435527   -1.179929   -3.603491
     90          1           0       -4.208728   -3.674802   -1.441085
     91          1           0        2.637055   -6.049675    0.983397
     92          1           0        2.124404   -4.997307   -0.279814
     93          1           0        3.906444   -4.126777    2.059792
     94          1           0        2.746572   -3.220647   -1.567905
     95          1           0        3.811566   -1.988290   -1.570921
     96          1           0        4.214770   -3.812211   -1.736392
     97          1           0        4.866929   -1.304493    0.690436
     98          1           0        5.287841   -2.499649    1.762159
     99          1           0        6.924399   -3.976211    0.190068
    100          1           0        6.368971   -2.577953   -1.114995
    101          1           0        7.248548   -0.655923    0.487861
    102          1           0        7.775665   -2.216408    1.585399
    103          1           0        8.858182   -1.676744   -1.197182
    104          1           0        8.947096   -4.156640   -0.251053
    105          1           0       10.510127   -3.430110   -0.598615
    106          1           0        9.965950   -3.454244    1.189631
    107          1           0        9.677137    0.161121    0.271956
    108          1           0       10.307038   -1.116041    1.514039
    109          1           0       11.891662   -1.847127   -0.428693
    110          1           0       11.403909   -0.733654   -1.363611
    111          1           0       11.534224    1.210896    0.023816
    112          1           0       12.311396    0.268311    1.197206
    113          1           0       13.257347    0.741554   -1.611488
    114          1           0       14.643761   -1.014175    0.724998
    115          1           0       14.128653   -1.651402   -0.945594
    116          1           0       15.430999   -0.583010   -1.062352
    117          1           0       13.436078    2.664304    0.049162
    118          1           0       14.558758    1.772672    0.958160
    119          1           0       15.956839    1.523961   -0.932175
    120          1           0       14.991090    2.299790   -1.974300
    121          1           0       15.210094    4.247777   -0.491674
    122          1           0       16.150472    3.384738    0.641533
    123          1           0       17.878339    2.982530   -1.263434
    124          1           0       16.446678    5.105114   -3.030788
    125          1           0       18.056482    3.992029   -3.512655
    126          1           0       16.366824    3.297043   -3.263295
    127          1           0       18.422866    4.866771    0.156731
    128          1           0       18.896548    5.499712   -1.329958
    129          1           0       17.018041    6.000001   -0.805082
    130          1           0       -4.760960   -7.623344   -0.134126
    131          1           0       -6.367437   -7.011521    0.864240
    132          1           0       -4.688745   -6.637532    1.535766
    133          8           0       -7.971099    6.904495   -0.293228
    134          1           0       -9.136049    6.479654   -1.639262
 ---------------------------------------------------------------------

 SCF Done:  E(RCAM-B3LYP) =  -3043.42715822     A.U. after   15 cycles

 Excitation energies and oscillator strengths:

 Excited State   1:      Singlet-A      2.0382 eV  608.30 nm  f=0.1687  <S**2>=0.000
     243 -> 245       -0.13220
     243 -> 246       -0.26586
     244 -> 245        0.62396
     244 -> 246       -0.11551
 This state for optimization and/or second-order correction.
 Total Energy, E(TD-HF/TD-KS) =  -3043.35225522
 Copying the excited state density for this state as the 1-particle RhoCI density.

 The electronic state is 1-A.
 Alpha  occ. eigenvalues --  -46.81685 -19.23057 -19.22413 -19.18436 -19.17783
 Alpha  occ. eigenvalues --  -19.16408 -19.16378 -19.16370 -14.38720 -14.37195
 Alpha  occ. eigenvalues --  -14.36802 -14.36658 -10.35274 -10.34836 -10.32602
 Alpha  occ. eigenvalues --  -10.29450 -10.29205 -10.29020 -10.27794 -10.27269
 Alpha  occ. eigenvalues --  -10.27125 -10.26997 -10.26582 -10.26484 -10.26306
 Alpha  occ. eigenvalues --  -10.26170 -10.25588 -10.25411 -10.24773 -10.24643
 Alpha  occ. eigenvalues --  -10.24531 -10.24406 -10.24399 -10.24391 -10.24083
 Alpha  occ. eigenvalues --  -10.23780 -10.23741 -10.23692 -10.23372 -10.23137
 Alpha  occ. eigenvalues --  -10.23127 -10.23107 -10.23068 -10.22984 -10.22718
 Alpha  occ. eigenvalues --  -10.22680 -10.22667 -10.22423 -10.22415 -10.22352
 Alpha  occ. eigenvalues --  -10.22330 -10.22154 -10.21946 -10.21934 -10.21910
 Alpha  occ. eigenvalues --  -10.21778 -10.21746 -10.21404 -10.21273 -10.21158
 Alpha  occ. eigenvalues --  -10.20906 -10.20842 -10.20053 -10.20031 -10.18998
 Alpha  occ. eigenvalues --  -10.17991  -3.10294  -1.85232  -1.84775  -1.84698
 Alpha  occ. eigenvalues --   -1.13276  -1.12056  -1.08782  -1.06890  -1.06548
 Alpha  occ. eigenvalues --   -1.04396  -1.02775  -1.02569  -1.00429  -0.99756
 Alpha  occ. eigenvalues --   -0.98924  -0.89189  -0.86843  -0.86344  -0.85698
 Alpha  occ. eigenvalues --   -0.85415  -0.85236  -0.84825  -0.84312  -0.83406
 Alpha  occ. eigenvalues --   -0.83096  -0.83061  -0.81614  -0.80800  -0.80148
 Alpha  occ. eigenvalues --   -0.79948  -0.79202  -0.78575  -0.77328  -0.76836
 Alpha  occ. eigenvalues --   -0.75939  -0.75364  -0.74478  -0.72980  -0.72437
 Alpha  occ. eigenvalues --   -0.71873  -0.70406  -0.69783  -0.69721  -0.69323
 Alpha  occ. eigenvalues --   -0.68969  -0.68700  -0.67747  -0.66918  -0.66540
 Alpha  occ. eigenvalues --   -0.65754  -0.65217  -0.64144  -0.62703  -0.62522
 Alpha  occ. eigenvalues --   -0.61890  -0.60995  -0.60765  -0.59671  -0.59542
 Alpha  occ. eigenvalues --   -0.58724  -0.58371  -0.57814  -0.57513  -0.57340
 Alpha  occ. eigenvalues --   -0.56733  -0.56276  -0.56135  -0.55363  -0.55301
 Alpha  occ. eigenvalues --   -0.54614  -0.53514  -0.52929  -0.52703  -0.52390
 Alpha  occ. eigenvalues --   -0.51667  -0.51455  -0.51328  -0.50943  -0.50742
 Alpha  occ. eigenvalues --   -0.50452  -0.50005  -0.49958  -0.49565  -0.49264
 Alpha  occ. eigenvalues --   -0.49187  -0.48862  -0.48421  -0.48230  -0.48021
 Alpha  occ. eigenvalues --   -0.47840  -0.47397  -0.47194  -0.47154  -0.46930
 Alpha  occ. eigenvalues --   -0.46662  -0.46411  -0.46340  -0.46143  -0.45987
 Alpha  occ. eigenvalues --   -0.45854  -0.45801  -0.45209  -0.45149  -0.44945
 Alpha  occ. eigenvalues --   -0.44813  -0.44556  -0.44317  -0.44247  -0.44123
 Alpha  occ. eigenvalues --   -0.43698  -0.43622  -0.43239  -0.43100  -0.42801
 Alpha  occ. eigenvalues --   -0.42660  -0.42381  -0.42288  -0.42196  -0.42085
 Alpha  occ. eigenvalues --   -0.41970  -0.41903  -0.41767  -0.41227  -0.41148
 Alpha  occ. eigenvalues --   -0.40587  -0.40427  -0.40256  -0.40064  -0.39967
 Alpha  occ. eigenvalues --   -0.39872  -0.39411  -0.39397  -0.39166  -0.39105
 Alpha  occ. eigenvalues --   -0.38957  -0.38848  -0.38525  -0.38426  -0.38331
 Alpha  occ. eigenvalues --   -0.38081  -0.37622  -0.37366  -0.37249  -0.37047
 Alpha  occ. eigenvalues --   -0.36707  -0.36629  -0.35880  -0.35846  -0.35618
 Alpha  occ. eigenvalues --   -0.35591  -0.35436  -0.35354  -0.35240  -0.34510
 Alpha  occ. eigenvalues --   -0.34448  -0.34009  -0.33884  -0.33726  -0.33503
 Alpha  occ. eigenvalues --   -0.33361  -0.33120  -0.32623  -0.32274  -0.31615
 Alpha  occ. eigenvalues --   -0.31575  -0.31004  -0.30323  -0.29827  -0.29791
 Alpha  occ. eigenvalues --   -0.28948  -0.28444  -0.28058  -0.27941  -0.27665
 Alpha  occ. eigenvalues --   -0.27018  -0.26918  -0.23020  -0.21457
 Alpha virt. eigenvalues --   -0.08460  -0.06581  -0.01870  -0.00451   0.01139
 Alpha virt. eigenvalues --    0.03111   0.03327   0.03640   0.04058   0.04295
 Alpha virt. eigenvalues --    0.05134   0.06039   0.07919   0.08703   0.09413

 Mulliken charges:
               1
     1  Mg   0.829002
     2  C    0.078708
     3  C   -0.188674
     4  C   -0.139305
     5  C   -0.177450
     6  N   -0.633242
     7  C    0.329826
     8  C   -0.162975
     9  C   -0.142614
    10  C    0.319013
    11  C   -0.318459
    12  C   -0.189155
    13  C   -0.270201
    14  C    0.614028
    15  O   -0.475585
    16  O   -0.485028
    17  N   -0.655678
    18  C    0.309365
    19  C    0.086063
    20  C   -0.039553
    21  C    0.261548
    22  C   -0.398350
    23  C    0.232542
    24  O   -0.413626
    25  N   -0.687793
    26  C    0.282615
    27  C   -0.007643
    28  C   -0.006077
    29  C    0.291113
    30  C    0.231305
    31  C   -0.231860
    32  C   -0.291185
    33  N   -0.745924
    34  C    0.272425
    35  C   -0.008591
    36  C    0.026263
    37  C    0.355485
    38  C   -0.353059
    39  C    0.354414
    40  O   -0.456553
    41  C   -0.345454
    42  C    0.615039
    43  O   -0.513334
    44  O   -0.440852
    45  C   -0.085530
    46  C    0.033626
    47  C   -0.130323
    48  C    0.147415
    49  C   -0.391310
    50  C   -0.217904
    51  C   -0.172900
    52  C   -0.148090
    53  C   -0.035995
    54  C   -0.305853
    55  C   -0.145876
    56  C   -0.167046
    57  C   -0.196884
    58  C   -0.055806
    59  C   -0.305629
    60  C   -0.183966
    61  C   -0.156454
    62  C   -0.176022
    63  C   -0.040214
    64  C   -0.287287
    65  C   -0.283231
    66  H    0.084735
    67  H    0.112351
    68  H    0.084643
    69  H    0.127529
    70  H    0.108376
    71  H    0.109362
    72  H    0.110612
    73  H    0.144056
    74  H    0.109156
    75  H    0.131595
    76  H    0.135764
    77  H    0.142077
    78  H    0.086501
    79  H    0.157384
    80  H    0.136690
    81  H    0.070601
    82  H    0.095199
    83  H    0.102822
    84  H    0.110487
    85  H    0.098158
    86  H    0.115800
    87  H    0.157033
    88  H    0.141220
    89  H    0.142900
    90  H    0.165328
    91  H    0.114531
    92  H    0.117660
    93  H    0.067064
    94  H    0.151541
    95  H    0.096231
    96  H    0.122661
    97  H    0.082801
    98  H    0.104178
    99  H    0.062783
   100  H    0.095327
   101  H    0.066868
   102  H    0.100402
   103  H    0.085655
   104  H    0.096402
   105  H    0.103352
   106  H    0.079699
   107  H    0.073778
   108  H    0.056561
   109  H    0.099588
   110  H    0.096919
   111  H    0.087042
   112  H    0.092822
   113  H    0.081688
   114  H    0.105601
   115  H    0.115858
   116  H    0.076374
   117  H    0.096555
   118  H    0.068434
   119  H    0.106655
   120  H    0.097297
   121  H    0.082872
   122  H    0.046660
   123  H    0.092478
   124  H    0.095776
   125  H    0.048132
   126  H    0.101920
   127  H    0.078687
   128  H    0.106424
   129  H    0.089948
   130  H    0.143744
   131  H    0.153397
   132  H    0.117624
   133  O   -0.396628
   134  H    0.051006
 Sum of Mulliken charges =   0.00000

 Dipole moment (field-independent basis, Debye):
    X=              2.3045    Y=             -6.6618    Z=             -2.6138  Tot=              7.5182
 Quadrupole moment (field-independent basis, Debye-Ang):
   XX=           -382.1094   YY=           -447.2163   ZZ=           -391.7491
   XY=              6.7508   XZ=             24.5418   YZ=            -31.9746

 Normal termination of Gaussian 09 at Fri Oct  4 06:20:47 2019.
