 Gaussian 09, Revision D.01,
 Gaussian 09:  ES64L-G09RevD.01 24-Apr-2013

 ----------------------------------------------------------------------
 # td=(NStates=1) iop(3/107=0140000000,3/108=0140000000) iop(3/107=0140
 000000,3/108=0140000000) CAM-B3LYP/6-31G(d,p)
 ----------------------------------------------------------------------

 --
 TD
 --
 Symbolic Z-matrix:
 Charge =  0 Multiplicity = 1

                         Standard orientation:
 ---------------------------------------------------------------------
 Center     Atomic      Atomic             Coordinates (Angstroms)
 Number     Number       Type             X           Y           Z
 ---------------------------------------------------------------------
      1         12           0       -5.659654    1.220446    0.189381
      2          6           0       -5.114304   -2.206809   -0.380552
      3          6           0       -3.463733    1.116589    2.691361
      4          6           0       -6.322709    4.514984    0.733484
      5          6           0       -7.922270    1.178975   -2.398085
      6          7           0       -4.426922   -0.361136    0.996573
      7          6           0       -4.309378   -1.608404    0.592453
      8          6           0       -3.163491   -2.325129    1.533846
      9          6           0       -2.873462   -1.245800    2.586191
     10          6           0       -3.564675   -0.097908    2.058585
     11          6           0       -3.465016   -1.629727    4.075050
     12          6           0       -1.973406   -2.792255    0.757959
     13          6           0       -1.018782   -3.575161    1.524908
     14          6           0        0.187002   -3.913124    0.634581
     15          8           0        0.414958   -3.481017   -0.539245
     16          8           0        1.072894   -4.677233    1.318074
     17          7           0       -4.947674    2.612596    1.511057
     18          6           0       -4.026063    2.412192    2.498816
     19          6           0       -3.788146    3.589831    3.172063
     20          6           0       -4.607187    4.580702    2.588843
     21          6           0       -5.336948    3.871476    1.642900
     22          6           0       -2.689512    3.977432    4.223013
     23          6           0       -4.599527    6.031282    2.860950
     24          8           0       -4.094077    6.589850    3.874040
     25          7           0       -6.972921    2.648754   -0.667955
     26          6           0       -7.144038    3.948023   -0.293025
     27          6           0       -8.006863    4.526786   -1.177156
     28          6           0       -8.447432    3.624461   -2.097139
     29          6           0       -7.792310    2.398373   -1.737079
     30          6           0       -8.437122    5.910347   -1.140097
     31          6           0       -9.581248    3.791944   -3.127028
     32          6           0       -9.055795    3.884455   -4.585455
     33          7           0       -6.260320   -0.175091   -1.097652
     34          6           0       -7.301405   -0.009869   -2.176918
     35          6           0       -7.454029   -1.336613   -2.745870
     36          6           0       -6.637262   -2.198990   -2.057362
     37          6           0       -5.978231   -1.393529   -1.120770
     38          6           0       -8.418012   -1.626116   -3.911614
     39          6           0       -6.201845   -3.564336   -2.102590
     40          8           0       -6.489417   -4.557355   -2.804386
     41          6           0       -5.099353   -3.599161   -0.935828
     42          6           0       -5.243016   -4.693821    0.126418
     43          8           0       -5.643411   -4.487109    1.251693
     44          8           0       -5.030633   -5.914566   -0.481087
     45          6           0       -5.257130   -7.112163    0.326553
     46          6           0        2.356303   -4.975616    0.665035
     47          6           0        3.439827   -4.016715    1.140783
     48          6           0        4.015409   -3.075769    0.303078
     49          6           0        3.818520   -2.876493   -1.179594
     50          6           0        5.088434   -2.213828    0.867032
     51          6           0        6.497593   -2.501603    0.050477
     52          6           0        7.635857   -1.719663    0.615265
     53          6           0        9.051278   -1.972974    0.161158
     54          6           0        9.558761   -3.384716    0.391347
     55          6           0       10.127809   -0.852899    0.566569
     56          6           0       11.427174   -0.864953   -0.037700
     57          6           0       12.336148    0.335452    0.247216
     58          6           0       13.531938    0.484046   -0.562693
     59          6           0       14.424404   -0.700794   -0.436484
     60          6           0       14.323736    1.754397   -0.132209
     61          6           0       15.587691    2.179675   -1.081638
     62          6           0       16.131421    3.474885   -0.799643
     63          6           0       17.444335    3.735141   -1.491729
     64          6           0       17.215093    3.804789   -3.066575
     65          6           0       17.990691    5.197591   -1.100832
     66          1           0       -2.894472    1.195304    3.596985
     67          1           0       -6.499954    5.568725    0.911903
     68          1           0       -8.743388    1.128654   -3.050210
     69          1           0       -3.697224   -3.131509    1.991670
     70          1           0       -1.935559   -0.897836    2.882827
     71          1           0       -3.036245   -2.479247    4.415062
     72          1           0       -3.210696   -0.955493    4.703987
     73          1           0       -4.512659   -1.564655    4.025070
     74          1           0       -2.333921   -3.446251   -0.209376
     75          1           0       -1.297856   -1.947592    0.304531
     76          1           0       -0.600972   -3.013685    2.396443
     77          1           0       -1.406893   -4.511850    1.834920
     78          1           0       -1.678259    4.200617    3.635151
     79          1           0       -3.073227    4.882041    4.698240
     80          1           0       -2.400562    2.952779    5.033646
     81          1           0       -5.133254    6.847496    2.104115
     82          1           0      -10.239912    2.881840   -3.030936
     83          1           0      -10.147963    4.654648   -2.782689
     84          1           0       -9.912082    3.823014   -5.193267
     85          1           0       -8.571607    4.776369   -4.849777
     86          1           0       -8.350259    2.892410   -4.927689
     87          1           0       -8.404180   -0.883054   -4.840871
     88          1           0       -8.260028   -2.646425   -4.428838
     89          1           0       -9.509344   -1.623157   -3.621184
     90          1           0       -4.121998   -3.791625   -1.417721
     91          1           0        2.593486   -6.088602    0.968584
     92          1           0        2.505821   -4.956186   -0.491189
     93          1           0        3.762879   -4.052611    2.039598
     94          1           0        2.681383   -3.255104   -1.249834
     95          1           0        3.788396   -1.737118   -1.424453
     96          1           0        4.578913   -3.381031   -1.822579
     97          1           0        4.942347   -1.230105    0.753437
     98          1           0        5.455081   -2.344453    1.941620
     99          1           0        6.480963   -3.771702    0.102539
    100          1           0        6.221438   -2.224456   -0.857204
    101          1           0        7.471955   -0.669631    0.312203
    102          1           0        7.513278   -1.801930    1.874351
    103          1           0        9.011460   -1.884491   -0.953356
    104          1           0        8.989411   -4.278675    0.039702
    105          1           0       10.421865   -3.412249   -0.178820
    106          1           0        9.662649   -3.619557    1.372046
    107          1           0        9.652452    0.120014    0.094966
    108          1           0       10.168783   -0.915254    1.688467
    109          1           0       12.022623   -1.797849    0.313839
    110          1           0       11.272238   -0.843499   -1.058717
    111          1           0       11.601985    1.188479    0.135269
    112          1           0       12.649079    0.464329    1.296141
    113          1           0       13.097627    0.752585   -1.563764
    114          1           0       14.516075   -0.818914    0.539752
    115          1           0       13.767290   -1.688956   -0.537596
    116          1           0       15.680411   -0.766709   -0.703444
    117          1           0       13.572910    2.644016   -0.221051
    118          1           0       14.783094    1.725707    0.844220
    119          1           0       16.366052    1.416658   -0.913170
    120          1           0       15.030052    1.885134   -1.980185
    121          1           0       15.411301    4.259680   -1.018941
    122          1           0       16.251810    3.525740    0.361827
    123          1           0       18.179013    2.959958   -1.354260
    124          1           0       16.427203    4.494554   -3.501492
    125          1           0       18.251398    4.217870   -3.612593
    126          1           0       16.982649    2.798570   -3.492838
    127          1           0       18.034385    5.345594    0.039696
    128          1           0       18.813420    5.613162   -1.585805
    129          1           0       17.485973    6.094493   -1.488420
    130          1           0       -4.764109   -7.953397   -0.204478
    131          1           0       -6.367072   -7.151477    0.170319
    132          1           0       -5.016492   -6.882134    1.336853
    133          8           0       -7.956503    6.740697   -0.415892
    134          1           0       -9.373074    6.247361   -1.847132
 ---------------------------------------------------------------------

 SCF Done:  E(RCAM-B3LYP) =  -3043.44792605     A.U. after   15 cycles

 Excitation energies and oscillator strengths:

 Excited State   1:      Singlet-A      2.0461 eV  605.96 nm  f=0.1615  <S**2>=0.000
     243 -> 245       -0.19682
     243 -> 246       -0.23573
     244 -> 245        0.61667
     244 -> 246       -0.12658
 This state for optimization and/or second-order correction.
 Total Energy, E(TD-HF/TD-KS) =  -3043.37273343
 Copying the excited state density for this state as the 1-particle RhoCI density.

 The electronic state is 1-A.
 Alpha  occ. eigenvalues --  -46.81902 -19.23331 -19.22215 -19.18029 -19.17712
 Alpha  occ. eigenvalues --  -19.17505 -19.17306 -19.17117 -14.38546 -14.36849
 Alpha  occ. eigenvalues --  -14.36656 -14.36380 -10.35690 -10.35521 -10.32187
 Alpha  occ. eigenvalues --  -10.31717 -10.31016 -10.29049 -10.27685 -10.27601
 Alpha  occ. eigenvalues --  -10.27135 -10.26738 -10.26561 -10.26275 -10.26088
 Alpha  occ. eigenvalues --  -10.25822 -10.25650 -10.25247 -10.24937 -10.24840
 Alpha  occ. eigenvalues --  -10.24800 -10.24666 -10.24349 -10.24185 -10.24165
 Alpha  occ. eigenvalues --  -10.23953 -10.23910 -10.23854 -10.23820 -10.23713
 Alpha  occ. eigenvalues --  -10.23373 -10.23067 -10.22987 -10.22986 -10.22859
 Alpha  occ. eigenvalues --  -10.22776 -10.22666 -10.22654 -10.22234 -10.22216
 Alpha  occ. eigenvalues --  -10.22154 -10.22136 -10.22026 -10.21893 -10.21863
 Alpha  occ. eigenvalues --  -10.21384 -10.21239 -10.20998 -10.20798 -10.20777
 Alpha  occ. eigenvalues --  -10.20762 -10.20691 -10.20217 -10.20114 -10.19898
 Alpha  occ. eigenvalues --  -10.18556  -3.10394  -1.85346  -1.84854  -1.84804
 Alpha  occ. eigenvalues --   -1.12347  -1.12301  -1.08135  -1.05483  -1.05162
 Alpha  occ. eigenvalues --   -1.04327  -1.02481  -1.01780  -1.01361  -1.00501
 Alpha  occ. eigenvalues --   -0.99700  -0.88727  -0.87138  -0.86700  -0.85906
 Alpha  occ. eigenvalues --   -0.85662  -0.84860  -0.84711  -0.84626  -0.83766
 Alpha  occ. eigenvalues --   -0.83646  -0.82780  -0.82054  -0.80682  -0.79564
 Alpha  occ. eigenvalues --   -0.79270  -0.78375  -0.77609  -0.77156  -0.76825
 Alpha  occ. eigenvalues --   -0.75870  -0.74615  -0.74392  -0.72779  -0.71676
 Alpha  occ. eigenvalues --   -0.71445  -0.71108  -0.70684  -0.70424  -0.69867
 Alpha  occ. eigenvalues --   -0.69516  -0.69193  -0.67760  -0.67051  -0.66248
 Alpha  occ. eigenvalues --   -0.65939  -0.64946  -0.64614  -0.62955  -0.62419
 Alpha  occ. eigenvalues --   -0.61840  -0.60962  -0.60305  -0.59142  -0.58951
 Alpha  occ. eigenvalues --   -0.58835  -0.58718  -0.58248  -0.57833  -0.57311
 Alpha  occ. eigenvalues --   -0.56302  -0.56054  -0.55820  -0.55555  -0.54480
 Alpha  occ. eigenvalues --   -0.53821  -0.53650  -0.52779  -0.52106  -0.52085
 Alpha  occ. eigenvalues --   -0.52043  -0.51743  -0.51198  -0.50909  -0.50558
 Alpha  occ. eigenvalues --   -0.50468  -0.50124  -0.50020  -0.49697  -0.49402
 Alpha  occ. eigenvalues --   -0.48947  -0.48880  -0.48280  -0.48073  -0.47921
 Alpha  occ. eigenvalues --   -0.47582  -0.47387  -0.47152  -0.47040  -0.46763
 Alpha  occ. eigenvalues --   -0.46469  -0.46348  -0.46191  -0.46125  -0.45965
 Alpha  occ. eigenvalues --   -0.45732  -0.45560  -0.45434  -0.45237  -0.45151
 Alpha  occ. eigenvalues --   -0.44855  -0.44822  -0.44425  -0.44004  -0.43759
 Alpha  occ. eigenvalues --   -0.43258  -0.43203  -0.43107  -0.43044  -0.42879
 Alpha  occ. eigenvalues --   -0.42658  -0.42443  -0.42413  -0.42267  -0.42051
 Alpha  occ. eigenvalues --   -0.41997  -0.41394  -0.41186  -0.41127  -0.41027
 Alpha  occ. eigenvalues --   -0.40818  -0.40511  -0.40391  -0.40174  -0.39970
 Alpha  occ. eigenvalues --   -0.39706  -0.39630  -0.39392  -0.39260  -0.39114
 Alpha  occ. eigenvalues --   -0.38917  -0.38657  -0.38509  -0.38183  -0.38133
 Alpha  occ. eigenvalues --   -0.37804  -0.37717  -0.37616  -0.37448  -0.37313
 Alpha  occ. eigenvalues --   -0.37220  -0.36487  -0.36381  -0.35987  -0.35716
 Alpha  occ. eigenvalues --   -0.35671  -0.35503  -0.35101  -0.34965  -0.34923
 Alpha  occ. eigenvalues --   -0.34352  -0.34087  -0.33610  -0.33198  -0.32947
 Alpha  occ. eigenvalues --   -0.32816  -0.32717  -0.32307  -0.31935  -0.31669
 Alpha  occ. eigenvalues --   -0.31488  -0.31413  -0.30462  -0.30348  -0.30069
 Alpha  occ. eigenvalues --   -0.29157  -0.28505  -0.28233  -0.28023  -0.27662
 Alpha  occ. eigenvalues --   -0.27484  -0.26795  -0.22932  -0.22025
 Alpha virt. eigenvalues --   -0.09132  -0.06678  -0.01514  -0.00543   0.00608
 Alpha virt. eigenvalues --    0.02025   0.02842   0.03282   0.03420   0.03930
 Alpha virt. eigenvalues --    0.05033   0.05380   0.07787   0.08423   0.08977

 Mulliken charges:
               1
     1  Mg   0.826981
     2  C    0.075482
     3  C   -0.192224
     4  C   -0.160657
     5  C   -0.174430
     6  N   -0.630260
     7  C    0.301760
     8  C   -0.155833
     9  C   -0.160441
    10  C    0.366059
    11  C   -0.316885
    12  C   -0.156088
    13  C   -0.249917
    14  C    0.599494
    15  O   -0.491148
    16  O   -0.453436
    17  N   -0.698250
    18  C    0.300201
    19  C    0.007316
    20  C    0.022030
    21  C    0.290124
    22  C   -0.349121
    23  C    0.219056
    24  O   -0.428338
    25  N   -0.700199
    26  C    0.316731
    27  C   -0.020917
    28  C    0.041756
    29  C    0.289269
    30  C    0.232964
    31  C   -0.241841
    32  C   -0.305316
    33  N   -0.758699
    34  C    0.248693
    35  C    0.043204
    36  C    0.060816
    37  C    0.377404
    38  C   -0.397829
    39  C    0.358121
    40  O   -0.467612
    41  C   -0.335338
    42  C    0.616702
    43  O   -0.461967
    44  O   -0.465102
    45  C   -0.095972
    46  C   -0.016235
    47  C   -0.090118
    48  C    0.129238
    49  C   -0.391897
    50  C   -0.233961
    51  C   -0.168371
    52  C   -0.143504
    53  C   -0.070356
    54  C   -0.312212
    55  C   -0.165663
    56  C   -0.158125
    57  C   -0.180605
    58  C   -0.036596
    59  C   -0.305220
    60  C   -0.196819
    61  C   -0.178989
    62  C   -0.136672
    63  C   -0.041397
    64  C   -0.310639
    65  C   -0.321349
    66  H    0.066268
    67  H    0.124540
    68  H    0.087874
    69  H    0.134486
    70  H    0.117025
    71  H    0.116507
    72  H    0.119411
    73  H    0.128803
    74  H    0.088616
    75  H    0.116569
    76  H    0.139408
    77  H    0.140507
    78  H    0.120096
    79  H    0.172086
    80  H    0.060460
    81  H    0.081657
    82  H    0.113728
    83  H    0.116132
    84  H    0.120182
    85  H    0.131079
    86  H    0.082190
    87  H    0.111703
    88  H    0.145514
    89  H    0.133172
    90  H    0.161449
    91  H    0.102680
    92  H    0.128933
    93  H    0.071841
    94  H    0.142003
    95  H    0.107206
    96  H    0.133119
    97  H    0.111845
    98  H    0.085809
    99  H    0.061893
   100  H    0.112609
   101  H    0.089616
   102  H    0.045776
   103  H    0.072108
   104  H    0.094049
   105  H    0.109986
   106  H    0.106960
   107  H    0.068388
   108  H    0.089556
   109  H    0.083215
   110  H    0.099418
   111  H    0.078586
   112  H    0.087235
   113  H    0.076279
   114  H    0.126725
   115  H    0.082720
   116  H    0.081817
   117  H    0.071339
   118  H    0.089637
   119  H    0.083123
   120  H    0.099492
   121  H    0.097554
   122  H    0.073131
   123  H    0.099414
   124  H    0.102355
   125  H    0.066685
   126  H    0.103157
   127  H    0.086456
   128  H    0.102076
   129  H    0.094964
   130  H    0.137044
   131  H    0.140011
   132  H    0.142844
   133  O   -0.406371
   134  H    0.040403
 Sum of Mulliken charges =   0.00000

 Dipole moment (field-independent basis, Debye):
    X=              0.8640    Y=             -4.7565    Z=             -1.5701  Tot=              5.0829
 Quadrupole moment (field-independent basis, Debye-Ang):
   XX=           -372.8683   YY=           -435.2158   ZZ=           -400.6301
   XY=              8.7554   XZ=             30.5279   YZ=            -41.3915

 Normal termination of Gaussian 09 at Wed Oct  9 05:43:39 2019.
