 Gaussian 09, Revision D.01,
 Gaussian 09:  ES64L-G09RevD.01 24-Apr-2013

 ----------------------------------------------------------------------
 # td=(NStates=1) iop(3/107=0140000000,3/108=0140000000) iop(3/107=0140
 000000,3/108=0140000000) CAM-B3LYP/6-31G(d,p)
 ----------------------------------------------------------------------

 --
 TD
 --
 Symbolic Z-matrix:
 Charge =  0 Multiplicity = 1

                         Standard orientation:
 ---------------------------------------------------------------------
 Center     Atomic      Atomic             Coordinates (Angstroms)
 Number     Number       Type             X           Y           Z
 ---------------------------------------------------------------------
      1         12           0       -5.614655    1.211587    0.120218
      2          6           0       -5.135368   -2.118686   -0.369882
      3          6           0       -3.389792    1.100462    2.710693
      4          6           0       -6.172997    4.536898    0.645673
      5          6           0       -8.085593    1.251947   -2.348546
      6          7           0       -4.387408   -0.333836    1.053939
      7          6           0       -4.281759   -1.624477    0.601039
      8          6           0       -3.256351   -2.393481    1.388493
      9          6           0       -3.018409   -1.447297    2.685225
     10          6           0       -3.658182   -0.108163    2.172507
     11          6           0       -3.711771   -1.847121    3.973436
     12          6           0       -1.910663   -2.650186    0.548168
     13          6           0       -1.036350   -3.570283    1.286351
     14          6           0        0.149074   -3.836734    0.481132
     15          8           0        0.414307   -3.524552   -0.684478
     16          8           0        1.034996   -4.707238    1.129123
     17          7           0       -4.899975    2.610622    1.465669
     18          6           0       -3.996959    2.440355    2.411236
     19          6           0       -3.600726    3.654248    3.058093
     20          6           0       -4.426758    4.583347    2.573419
     21          6           0       -5.159916    3.983958    1.472174
     22          6           0       -2.649729    3.735330    4.157393
     23          6           0       -4.485853    6.069918    2.859644
     24          8           0       -3.915590    6.501492    3.868925
     25          7           0       -6.792209    2.581153   -0.634281
     26          6           0       -6.894042    3.857193   -0.329287
     27          6           0       -7.788898    4.672942   -1.171996
     28          6           0       -8.417252    3.751117   -2.036302
     29          6           0       -7.720033    2.495176   -1.711506
     30          6           0       -8.282714    6.035224   -1.087957
     31          6           0       -9.398006    3.836602   -3.077032
     32          6           0       -8.694822    4.045471   -4.441706
     33          7           0       -6.382084   -0.051137   -1.020264
     34          6           0       -7.452178    0.038403   -2.034533
     35          6           0       -7.675233   -1.326964   -2.634490
     36          6           0       -6.863386   -2.088157   -2.023236
     37          6           0       -6.068292   -1.432600   -1.101874
     38          6           0       -8.687944   -1.567611   -3.642435
     39          6           0       -6.379913   -3.566399   -1.914849
     40          8           0       -6.726125   -4.548035   -2.575111
     41          6           0       -5.160482   -3.552044   -0.923987
     42          6           0       -5.475373   -4.626831    0.078919
     43          8           0       -5.990624   -4.373590    1.252102
     44          8           0       -5.121011   -5.822443   -0.372892
     45          6           0       -5.303525   -6.886635    0.466857
     46          6           0        2.379031   -5.045198    0.630274
     47          6           0        3.422259   -4.031415    1.053239
     48          6           0        4.118296   -3.197464    0.204899
     49          6           0        3.840492   -3.108962   -1.299917
     50          6           0        5.244242   -2.348197    0.716815
     51          6           0        6.486965   -2.663855    0.071843
     52          6           0        7.688212   -1.752744    0.643013
     53          6           0        9.014769   -2.007394   -0.082405
     54          6           0        9.530083   -3.438111    0.136876
     55          6           0       10.017296   -0.891485    0.377237
     56          6           0       11.467117   -0.962172   -0.197729
     57          6           0       12.320977    0.289313    0.162859
     58          6           0       13.642146    0.338052   -0.531676
     59          6           0       14.554393   -0.760192   -0.217036
     60          6           0       14.352892    1.678123   -0.095300
     61          6           0       15.507836    2.079669   -1.084192
     62          6           0       15.988090    3.489138   -0.731469
     63          6           0       17.291053    3.896784   -1.355239
     64          6           0       17.184324    4.050771   -2.906943
     65          6           0       17.952161    5.162275   -0.729693
     66          1           0       -2.715331    1.239592    3.623506
     67          1           0       -6.363049    5.609704    0.721655
     68          1           0       -8.651057    1.273660   -3.152909
     69          1           0       -3.833310   -3.444927    1.555274
     70          1           0       -1.914710   -1.117976    2.711970
     71          1           0       -3.363266   -2.751711    4.536445
     72          1           0       -3.554170   -1.105667    4.764593
     73          1           0       -4.877054   -1.870048    3.690420
     74          1           0       -2.054848   -3.143825   -0.487703
     75          1           0       -1.617122   -1.585511    0.224645
     76          1           0       -0.695579   -3.179807    2.422635
     77          1           0       -1.637266   -4.501968    1.488255
     78          1           0       -1.576706    3.351079    4.009402
     79          1           0       -2.641469    4.719592    4.407335
     80          1           0       -3.050117    3.186167    4.915185
     81          1           0       -5.123497    6.747743    2.221947
     82          1           0      -10.166443    3.073563   -3.005300
     83          1           0       -9.982606    4.896614   -2.949898
     84          1           0       -9.312032    4.412725   -5.308950
     85          1           0       -8.040957    5.035604   -4.284043
     86          1           0       -8.037697    3.155228   -4.861831
     87          1           0       -8.592808   -0.996288   -4.461816
     88          1           0       -8.903389   -2.527004   -3.912153
     89          1           0       -9.706073   -1.243302   -3.284721
     90          1           0       -4.270638   -3.885728   -1.644525
     91          1           0        2.750547   -5.956511    1.078076
     92          1           0        2.401286   -5.311070   -0.368260
     93          1           0        3.479002   -4.137321    2.100706
     94          1           0        2.749058   -3.245394   -1.480417
     95          1           0        4.178857   -2.187408   -1.461197
     96          1           0        4.352749   -3.715158   -2.008309
     97          1           0        5.020052   -1.338400    0.192615
     98          1           0        5.330407   -2.310432    1.754536
     99          1           0        6.597164   -3.868723    0.182745
    100          1           0        6.553797   -2.520727   -1.061254
    101          1           0        7.263279   -0.818672    0.695637
    102          1           0        7.748411   -2.194882    1.702050
    103          1           0        8.778748   -1.862016   -1.271992
    104          1           0        9.035105   -4.370955   -0.102121
    105          1           0       10.460071   -3.718850   -0.529566
    106          1           0        9.683348   -3.570557    1.190176
    107          1           0        9.570630    0.210323    0.047080
    108          1           0       10.251361   -1.198532    1.556074
    109          1           0       11.742661   -1.992394    0.066578
    110          1           0       11.515064   -0.942460   -1.074601
    111          1           0       11.621808    1.328811    0.013112
    112          1           0       12.459044    0.212783    1.245254
    113          1           0       13.492836    0.289745   -1.501287
    114          1           0       14.843930   -0.916253    0.855236
    115          1           0       14.278574   -1.532327   -0.734711
    116          1           0       15.430290   -0.517548   -0.610797
    117          1           0       13.699016    2.616592    0.014181
    118          1           0       14.752994    1.488921    0.904223
    119          1           0       16.244482    1.407684   -1.048932
    120          1           0       15.111697    2.276548   -2.093323
    121          1           0       15.032645    4.092631   -0.711650
    122          1           0       16.175112    3.625671    0.285581
    123          1           0       17.806183    2.990957   -1.157481
    124          1           0       16.459391    4.829848   -3.271824
    125          1           0       18.207153    4.328626   -3.324679
    126          1           0       17.122330    3.038545   -3.402870
    127          1           0       18.214468    5.024906    0.418929
    128          1           0       18.947099    5.578477   -1.004096
    129          1           0       17.318108    6.054802   -0.802705
    130          1           0       -4.658327   -7.701341    0.188600
    131          1           0       -6.318678   -7.386569    0.342565
    132          1           0       -4.998253   -6.663387    1.606084
    133          8           0       -7.681685    6.881795   -0.361950
    134          1           0       -9.003500    6.457278   -1.818924
 ---------------------------------------------------------------------

 SCF Done:  E(RCAM-B3LYP) =  -3043.42033210     A.U. after   16 cycles

 Excitation energies and oscillator strengths:

 Excited State   1:      Singlet-A      2.0631 eV  600.95 nm  f=0.1563  <S**2>=0.000
     243 -> 246       -0.28174
     244 -> 245        0.64056
 This state for optimization and/or second-order correction.
 Total Energy, E(TD-HF/TD-KS) =  -3043.34451278
 Copying the excited state density for this state as the 1-particle RhoCI density.

 The electronic state is 1-A.
 Alpha  occ. eigenvalues --  -46.79681 -19.25307 -19.20473 -19.18666 -19.17499
 Alpha  occ. eigenvalues --  -19.17277 -19.17239 -19.16462 -14.38080 -14.37453
 Alpha  occ. eigenvalues --  -14.36483 -14.36425 -10.36730 -10.35327 -10.33181
 Alpha  occ. eigenvalues --  -10.30950 -10.30518 -10.28649 -10.27530 -10.26796
 Alpha  occ. eigenvalues --  -10.26729 -10.26630 -10.26453 -10.26234 -10.26039
 Alpha  occ. eigenvalues --  -10.26018 -10.25864 -10.25797 -10.25592 -10.25425
 Alpha  occ. eigenvalues --  -10.25407 -10.25018 -10.24740 -10.24585 -10.24542
 Alpha  occ. eigenvalues --  -10.24367 -10.23701 -10.23665 -10.23508 -10.23324
 Alpha  occ. eigenvalues --  -10.23267 -10.23230 -10.23192 -10.22972 -10.22928
 Alpha  occ. eigenvalues --  -10.22901 -10.22611 -10.22325 -10.21897 -10.21849
 Alpha  occ. eigenvalues --  -10.21401 -10.21266 -10.21172 -10.21130 -10.21086
 Alpha  occ. eigenvalues --  -10.21067 -10.20826 -10.20800 -10.20796 -10.19850
 Alpha  occ. eigenvalues --  -10.19574 -10.19569 -10.19430 -10.19322 -10.18037
 Alpha  occ. eigenvalues --  -10.17451  -3.08766  -1.83649  -1.83251  -1.83228
 Alpha  occ. eigenvalues --   -1.16331  -1.10600  -1.07334  -1.05808  -1.04037
 Alpha  occ. eigenvalues --   -1.02441  -1.02189  -1.00633  -0.99675  -0.99294
 Alpha  occ. eigenvalues --   -0.97683  -0.88504  -0.86407  -0.86381  -0.86120
 Alpha  occ. eigenvalues --   -0.85717  -0.85193  -0.84382  -0.84048  -0.83428
 Alpha  occ. eigenvalues --   -0.83216  -0.82766  -0.81535  -0.80844  -0.79989
 Alpha  occ. eigenvalues --   -0.79035  -0.78513  -0.78295  -0.77414  -0.76937
 Alpha  occ. eigenvalues --   -0.76106  -0.75673  -0.74347  -0.73276  -0.72236
 Alpha  occ. eigenvalues --   -0.71474  -0.71195  -0.70049  -0.70032  -0.69424
 Alpha  occ. eigenvalues --   -0.69287  -0.68672  -0.66825  -0.66633  -0.66184
 Alpha  occ. eigenvalues --   -0.65815  -0.64931  -0.63374  -0.62131  -0.61789
 Alpha  occ. eigenvalues --   -0.61380  -0.61260  -0.60330  -0.60155  -0.59490
 Alpha  occ. eigenvalues --   -0.59285  -0.58474  -0.57881  -0.57685  -0.56939
 Alpha  occ. eigenvalues --   -0.56868  -0.56437  -0.55409  -0.55365  -0.54604
 Alpha  occ. eigenvalues --   -0.54304  -0.53832  -0.53204  -0.52751  -0.52562
 Alpha  occ. eigenvalues --   -0.52222  -0.51654  -0.51577  -0.51041  -0.50846
 Alpha  occ. eigenvalues --   -0.50608  -0.50065  -0.49901  -0.49327  -0.49209
 Alpha  occ. eigenvalues --   -0.48976  -0.48626  -0.48178  -0.47980  -0.47956
 Alpha  occ. eigenvalues --   -0.47768  -0.47375  -0.47247  -0.47068  -0.46666
 Alpha  occ. eigenvalues --   -0.46624  -0.46054  -0.45845  -0.45731  -0.45691
 Alpha  occ. eigenvalues --   -0.45264  -0.45165  -0.44903  -0.44809  -0.44537
 Alpha  occ. eigenvalues --   -0.44391  -0.44265  -0.44145  -0.43831  -0.43629
 Alpha  occ. eigenvalues --   -0.43443  -0.43243  -0.43003  -0.42675  -0.42532
 Alpha  occ. eigenvalues --   -0.42417  -0.42117  -0.42048  -0.41893  -0.41757
 Alpha  occ. eigenvalues --   -0.41486  -0.41417  -0.41274  -0.41035  -0.40851
 Alpha  occ. eigenvalues --   -0.40798  -0.40543  -0.40483  -0.40219  -0.40092
 Alpha  occ. eigenvalues --   -0.39948  -0.39879  -0.39639  -0.39414  -0.39051
 Alpha  occ. eigenvalues --   -0.38684  -0.38478  -0.38218  -0.38098  -0.37977
 Alpha  occ. eigenvalues --   -0.37564  -0.37481  -0.37111  -0.37046  -0.36698
 Alpha  occ. eigenvalues --   -0.36658  -0.36379  -0.36304  -0.35749  -0.35675
 Alpha  occ. eigenvalues --   -0.35400  -0.35214  -0.35008  -0.34739  -0.34697
 Alpha  occ. eigenvalues --   -0.34406  -0.34249  -0.33997  -0.33282  -0.32974
 Alpha  occ. eigenvalues --   -0.32672  -0.32546  -0.32317  -0.31939  -0.31410
 Alpha  occ. eigenvalues --   -0.30821  -0.30718  -0.30287  -0.30107  -0.29943
 Alpha  occ. eigenvalues --   -0.29478  -0.28618  -0.28206  -0.28022  -0.27813
 Alpha  occ. eigenvalues --   -0.27451  -0.26336  -0.22836  -0.21194
 Alpha virt. eigenvalues --   -0.07872  -0.06462  -0.01857  -0.01004   0.00075
 Alpha virt. eigenvalues --    0.01666   0.01754   0.03869   0.03912   0.04426
 Alpha virt. eigenvalues --    0.05071   0.05834   0.07281   0.08495   0.09109

 Mulliken charges:
               1
     1  Mg   0.843852
     2  C    0.103760
     3  C   -0.179647
     4  C   -0.172584
     5  C   -0.152766
     6  N   -0.614358
     7  C    0.311152
     8  C   -0.178051
     9  C   -0.133800
    10  C    0.318080
    11  C   -0.301049
    12  C   -0.173211
    13  C   -0.246116
    14  C    0.621345
    15  O   -0.472243
    16  O   -0.504974
    17  N   -0.665951
    18  C    0.305766
    19  C    0.044576
    20  C   -0.028879
    21  C    0.257479
    22  C   -0.386399
    23  C    0.241590
    24  O   -0.413443
    25  N   -0.686902
    26  C    0.337058
    27  C   -0.020078
    28  C    0.093488
    29  C    0.234378
    30  C    0.215554
    31  C   -0.273890
    32  C   -0.300086
    33  N   -0.760204
    34  C    0.231806
    35  C   -0.013577
    36  C    0.103714
    37  C    0.267780
    38  C   -0.388132
    39  C    0.387090
    40  O   -0.448833
    41  C   -0.327734
    42  C    0.622527
    43  O   -0.511226
    44  O   -0.382938
    45  C   -0.100930
    46  C    0.013874
    47  C   -0.148957
    48  C    0.119287
    49  C   -0.376322
    50  C   -0.208641
    51  C   -0.172449
    52  C   -0.156716
    53  C   -0.041475
    54  C   -0.320353
    55  C   -0.161058
    56  C   -0.158133
    57  C   -0.158426
    58  C   -0.053981
    59  C   -0.297239
    60  C   -0.185997
    61  C   -0.180025
    62  C   -0.179556
    63  C   -0.036394
    64  C   -0.317216
    65  C   -0.324219
    66  H    0.076021
    67  H    0.133891
    68  H    0.070538
    69  H    0.106503
    70  H    0.104288
    71  H    0.110675
    72  H    0.116299
    73  H    0.121194
    74  H    0.119670
    75  H    0.120746
    76  H    0.125829
    77  H    0.153867
    78  H    0.108907
    79  H    0.154646
    80  H    0.137986
    81  H    0.106682
    82  H    0.125728
    83  H    0.091803
    84  H    0.112174
    85  H    0.101663
    86  H    0.107132
    87  H    0.138725
    88  H    0.149369
    89  H    0.122491
    90  H    0.161451
    91  H    0.113872
    92  H    0.117437
    93  H    0.084799
    94  H    0.149543
    95  H    0.111217
    96  H    0.121007
    97  H    0.086662
    98  H    0.103956
    99  H    0.064956
   100  H    0.086370
   101  H    0.103128
   102  H    0.080878
   103  H    0.056440
   104  H    0.113693
   105  H    0.087511
   106  H    0.106964
   107  H    0.070884
   108  H    0.066788
   109  H    0.092215
   110  H    0.092146
   111  H    0.051564
   112  H    0.086840
   113  H    0.087464
   114  H    0.093361
   115  H    0.103613
   116  H    0.105932
   117  H    0.073163
   118  H    0.091687
   119  H    0.097748
   120  H    0.103100
   121  H    0.073191
   122  H    0.091500
   123  H    0.095043
   124  H    0.104435
   125  H    0.089279
   126  H    0.096605
   127  H    0.077655
   128  H    0.103539
   129  H    0.108444
   130  H    0.126035
   131  H    0.127447
   132  H    0.120302
   133  O   -0.443171
   134  H    0.087481
 Sum of Mulliken charges =   0.00000

 Dipole moment (field-independent basis, Debye):
    X=              1.6292    Y=             -5.2419    Z=             -2.5027  Tot=              6.0328
 Quadrupole moment (field-independent basis, Debye-Ang):
   XX=           -361.6126   YY=           -429.0656   ZZ=           -393.1398
   XY=             -0.2040   XZ=             29.4394   YZ=            -32.8215

 Normal termination of Gaussian 09 at Wed Oct  9 06:16:00 2019.
