 Gaussian 09, Revision D.01,
 Gaussian 09:  ES64L-G09RevD.01 24-Apr-2013

 ----------------------------------------------------------------------
 # td=(NStates=1) iop(3/107=0140000000,3/108=0140000000) iop(3/107=0140
 000000,3/108=0140000000) CAM-B3LYP/6-31G(d,p)
 ----------------------------------------------------------------------

 --
 TD
 --
 Symbolic Z-matrix:
 Charge =  0 Multiplicity = 1

                         Standard orientation:
 ---------------------------------------------------------------------
 Center     Atomic      Atomic             Coordinates (Angstroms)
 Number     Number       Type             X           Y           Z
 ---------------------------------------------------------------------
      1         12           0       -5.673705    1.182860    0.176821
      2          6           0       -5.091884   -2.159435   -0.332885
      3          6           0       -3.401748    1.115022    2.740324
      4          6           0       -6.151954    4.681650    0.602145
      5          6           0       -7.983884    1.201047   -2.342964
      6          7           0       -4.401191   -0.332170    1.063176
      7          6           0       -4.268913   -1.639555    0.679299
      8          6           0       -3.171461   -2.356986    1.484414
      9          6           0       -2.858912   -1.308048    2.588047
     10          6           0       -3.583852   -0.069540    2.119613
     11          6           0       -3.289621   -1.790800    3.987742
     12          6           0       -2.004165   -2.688292    0.636886
     13          6           0       -0.870261   -3.454567    1.515153
     14          6           0        0.287119   -3.868931    0.582491
     15          8           0        0.452788   -3.606978   -0.590176
     16          8           0        1.121924   -4.689634    1.321558
     17          7           0       -4.852622    2.680320    1.372467
     18          6           0       -3.980277    2.336367    2.410390
     19          6           0       -3.673635    3.639856    3.177384
     20          6           0       -4.548497    4.626419    2.624617
     21          6           0       -5.240358    3.951961    1.533913
     22          6           0       -2.759503    3.759418    4.400429
     23          6           0       -4.484600    5.930094    2.921820
     24          8           0       -3.873122    6.373627    3.944299
     25          7           0       -6.912507    2.697509   -0.760438
     26          6           0       -6.895500    3.952044   -0.368524
     27          6           0       -7.919234    4.666906   -1.275326
     28          6           0       -8.449583    3.738081   -2.018186
     29          6           0       -7.769748    2.391661   -1.678863
     30          6           0       -8.184772    6.116615   -1.193824
     31          6           0       -9.509947    3.934309   -3.141832
     32          6           0       -8.811350    4.117981   -4.485080
     33          7           0       -6.326025   -0.097522   -1.105872
     34          6           0       -7.342478   -0.023505   -2.062893
     35          6           0       -7.630846   -1.349990   -2.660690
     36          6           0       -6.654959   -2.196713   -2.087212
     37          6           0       -5.952083   -1.332553   -1.073119
     38          6           0       -8.424263   -1.686306   -3.837317
     39          6           0       -6.232273   -3.526213   -2.002288
     40          8           0       -6.678084   -4.541790   -2.595271
     41          6           0       -5.103884   -3.561774   -0.839248
     42          6           0       -5.382039   -4.606878    0.154417
     43          8           0       -5.827770   -4.422362    1.258093
     44          8           0       -5.014702   -5.839044   -0.354582
     45          6           0       -5.388775   -6.949087    0.507640
     46          6           0        2.280258   -5.072416    0.660462
     47          6           0        3.456212   -4.093286    0.986579
     48          6           0        4.011410   -3.252395    0.098804
     49          6           0        3.582002   -3.335413   -1.355167
     50          6           0        5.258652   -2.325736    0.476198
     51          6           0        6.541644   -2.793704   -0.119151
     52          6           0        7.615066   -1.939237    0.531628
     53          6           0        9.018554   -1.997609   -0.134358
     54          6           0        9.693074   -3.412074    0.004006
     55          6           0        9.944356   -0.873581    0.450490
     56          6           0       11.328558   -0.855456   -0.254336
     57          6           0       12.181499    0.312209    0.200789
     58          6           0       13.464909    0.473469   -0.522905
     59          6           0       14.591138   -0.710230   -0.294347
     60          6           0       14.282282    1.791786   -0.010981
     61          6           0       15.423993    2.109115   -0.850896
     62          6           0       15.857183    3.600747   -0.658917
     63          6           0       17.226146    4.004583   -1.386320
     64          6           0       17.029427    3.998139   -2.879360
     65          6           0       17.748912    5.360723   -0.944243
     66          1           0       -2.775027    1.430212    3.423924
     67          1           0       -6.134046    5.852887    0.532353
     68          1           0       -8.710059    1.070176   -2.922417
     69          1           0       -3.548181   -3.283117    1.988449
     70          1           0       -1.791044   -1.183166    2.514766
     71          1           0       -2.720199   -2.783385    4.176371
     72          1           0       -3.400392   -0.920556    4.766660
     73          1           0       -4.330218   -2.024630    3.981353
     74          1           0       -2.159702   -3.417317   -0.070703
     75          1           0       -1.627522   -1.600436    0.203490
     76          1           0       -0.376429   -2.779814    2.286612
     77          1           0       -1.225795   -4.394730    2.159853
     78          1           0       -1.782951    3.092497    4.023331
     79          1           0       -2.303178    4.721118    4.697882
     80          1           0       -3.245778    3.080041    5.254935
     81          1           0       -5.167142    6.743469    2.384638
     82          1           0      -10.133509    3.045268   -3.101800
     83          1           0      -10.091785    4.928469   -2.872160
     84          1           0       -9.523746    4.009185   -5.472434
     85          1           0       -8.179608    5.104571   -4.464292
     86          1           0       -8.046796    3.262581   -4.415202
     87          1           0       -8.140206   -0.807510   -4.516338
     88          1           0       -8.357931   -2.737756   -4.368579
     89          1           0       -9.454714   -1.651639   -3.547082
     90          1           0       -4.209429   -3.937018   -1.356551
     91          1           0        2.560787   -6.011750    0.913304
     92          1           0        2.014765   -5.066402   -0.331635
     93          1           0        3.893785   -4.354827    2.070383
     94          1           0        2.462148   -3.371852   -1.591773
     95          1           0        3.931860   -2.371843   -2.017611
     96          1           0        3.918704   -4.201151   -1.995642
     97          1           0        4.875983   -1.393127    0.074962
     98          1           0        5.138245   -2.366651    1.617530
     99          1           0        6.645898   -3.848005    0.113862
    100          1           0        6.539523   -2.766882   -1.281309
    101          1           0        7.326055   -0.951584    0.759037
    102          1           0        7.527373   -2.167685    1.721747
    103          1           0        8.610035   -1.737107   -1.237677
    104          1           0        8.749666   -4.086412   -0.180970
    105          1           0       10.466561   -3.726325   -0.792718
    106          1           0       10.273631   -3.685358    1.039123
    107          1           0        9.286570    0.082056    0.672434
    108          1           0       10.187075   -1.069899    1.592841
    109          1           0       11.883975   -1.839297   -0.196971
    110          1           0       11.098132   -0.905252   -1.264826
    111          1           0       11.645498    1.333306    0.353027
    112          1           0       12.415687   -0.007493    1.489735
    113          1           0       13.037572    0.659102   -1.726403
    114          1           0       14.793264   -0.737026    0.765738
    115          1           0       14.053591   -1.564642   -0.668615
    116          1           0       15.475175   -0.563414   -0.756297
    117          1           0       13.465434    2.588933   -0.006789
    118          1           0       14.424018    1.565394    1.040510
    119          1           0       16.238651    1.358287   -0.888054
    120          1           0       14.972132    2.069691   -1.909583
    121          1           0       15.173808    4.398472   -0.759677
    122          1           0       16.273881    3.725109    0.343016
    123          1           0       17.947112    3.119970   -1.143996
    124          1           0       16.639945    4.898225   -3.169138
    125          1           0       18.095634    3.859892   -3.256649
    126          1           0       16.553952    3.116762   -3.237519
    127          1           0       17.778796    5.188521    0.127268
    128          1           0       18.834780    5.857808   -1.342176
    129          1           0       16.940962    6.103796   -1.212139
    130          1           0       -5.023302   -7.695137   -0.025503
    131          1           0       -6.444031   -6.987902    0.688542
    132          1           0       -4.989817   -6.996938    1.520862
    133          8           0       -7.744960    6.849253   -0.385005
    134          1           0       -9.058650    6.434017   -1.682512
 ---------------------------------------------------------------------

 SCF Done:  E(RCAM-B3LYP) =  -3043.41845205     A.U. after   16 cycles

 Excitation energies and oscillator strengths:

 Excited State   1:      Singlet-A      1.9245 eV  644.25 nm  f=0.2757  <S**2>=0.000
     243 -> 246       -0.20391
     244 -> 245        0.67057
 This state for optimization and/or second-order correction.
 Total Energy, E(TD-HF/TD-KS) =  -3043.34772851
 Copying the excited state density for this state as the 1-particle RhoCI density.

 The electronic state is 1-A.
 Alpha  occ. eigenvalues --  -46.82961 -19.22430 -19.22004 -19.18683 -19.18115
 Alpha  occ. eigenvalues --  -19.17538 -19.16758 -19.14835 -14.39722 -14.37903
 Alpha  occ. eigenvalues --  -14.37864 -14.37505 -10.35971 -10.34776 -10.31324
 Alpha  occ. eigenvalues --  -10.30358 -10.28782 -10.27901 -10.27529 -10.27463
 Alpha  occ. eigenvalues --  -10.27314 -10.27260 -10.26994 -10.26941 -10.26567
 Alpha  occ. eigenvalues --  -10.26270 -10.26218 -10.26002 -10.25666 -10.25228
 Alpha  occ. eigenvalues --  -10.24995 -10.24744 -10.24705 -10.24646 -10.24633
 Alpha  occ. eigenvalues --  -10.24459 -10.24455 -10.24210 -10.24104 -10.23938
 Alpha  occ. eigenvalues --  -10.23830 -10.23758 -10.23682 -10.23508 -10.23323
 Alpha  occ. eigenvalues --  -10.23298 -10.23182 -10.23101 -10.22644 -10.22458
 Alpha  occ. eigenvalues --  -10.22433 -10.22381 -10.22196 -10.22170 -10.22138
 Alpha  occ. eigenvalues --  -10.21988 -10.21982 -10.21676 -10.21609 -10.21572
 Alpha  occ. eigenvalues --  -10.21514 -10.20973 -10.20688 -10.20355 -10.19869
 Alpha  occ. eigenvalues --  -10.18224  -3.11499  -1.86435  -1.85947  -1.85935
 Alpha  occ. eigenvalues --   -1.13825  -1.12762  -1.10297  -1.06032  -1.05042
 Alpha  occ. eigenvalues --   -1.04504  -1.02572  -1.02460  -1.01574  -1.00425
 Alpha  occ. eigenvalues --   -0.98996  -0.89046  -0.86404  -0.85883  -0.85446
 Alpha  occ. eigenvalues --   -0.85116  -0.85018  -0.84702  -0.84038  -0.83539
 Alpha  occ. eigenvalues --   -0.82797  -0.82579  -0.81424  -0.80511  -0.79854
 Alpha  occ. eigenvalues --   -0.79080  -0.78305  -0.78059  -0.77691  -0.76391
 Alpha  occ. eigenvalues --   -0.75466  -0.74825  -0.73515  -0.73395  -0.72153
 Alpha  occ. eigenvalues --   -0.70862  -0.70524  -0.69830  -0.69592  -0.69492
 Alpha  occ. eigenvalues --   -0.69054  -0.68703  -0.68010  -0.66979  -0.66120
 Alpha  occ. eigenvalues --   -0.65519  -0.65009  -0.64886  -0.63332  -0.62526
 Alpha  occ. eigenvalues --   -0.62306  -0.61797  -0.60506  -0.59409  -0.59280
 Alpha  occ. eigenvalues --   -0.58456  -0.57990  -0.57557  -0.57409  -0.57251
 Alpha  occ. eigenvalues --   -0.56383  -0.56293  -0.55647  -0.55095  -0.54685
 Alpha  occ. eigenvalues --   -0.54049  -0.53811  -0.53147  -0.52792  -0.52441
 Alpha  occ. eigenvalues --   -0.52318  -0.52086  -0.51045  -0.50579  -0.50317
 Alpha  occ. eigenvalues --   -0.49844  -0.49743  -0.49318  -0.49131  -0.48870
 Alpha  occ. eigenvalues --   -0.48670  -0.48615  -0.48357  -0.47935  -0.47819
 Alpha  occ. eigenvalues --   -0.47672  -0.47608  -0.47261  -0.46879  -0.46704
 Alpha  occ. eigenvalues --   -0.46620  -0.46503  -0.46373  -0.45963  -0.45845
 Alpha  occ. eigenvalues --   -0.45427  -0.45213  -0.45047  -0.44935  -0.44815
 Alpha  occ. eigenvalues --   -0.44611  -0.44456  -0.44294  -0.44166  -0.43735
 Alpha  occ. eigenvalues --   -0.43589  -0.43531  -0.43437  -0.43183  -0.43073
 Alpha  occ. eigenvalues --   -0.42904  -0.42761  -0.42569  -0.42143  -0.41968
 Alpha  occ. eigenvalues --   -0.41627  -0.41472  -0.41402  -0.41245  -0.40986
 Alpha  occ. eigenvalues --   -0.40870  -0.40697  -0.40574  -0.40556  -0.40278
 Alpha  occ. eigenvalues --   -0.40154  -0.39964  -0.39639  -0.39563  -0.39130
 Alpha  occ. eigenvalues --   -0.38910  -0.38874  -0.38689  -0.38301  -0.37901
 Alpha  occ. eigenvalues --   -0.37867  -0.37762  -0.37486  -0.37326  -0.37198
 Alpha  occ. eigenvalues --   -0.36905  -0.36693  -0.36364  -0.35809  -0.35669
 Alpha  occ. eigenvalues --   -0.35320  -0.35249  -0.34451  -0.34439  -0.34272
 Alpha  occ. eigenvalues --   -0.33950  -0.33849  -0.33682  -0.33343  -0.32929
 Alpha  occ. eigenvalues --   -0.32128  -0.31841  -0.31787  -0.31643  -0.31423
 Alpha  occ. eigenvalues --   -0.31133  -0.30914  -0.30880  -0.30212  -0.30006
 Alpha  occ. eigenvalues --   -0.29384  -0.29041  -0.28317  -0.27591  -0.27482
 Alpha  occ. eigenvalues --   -0.27238  -0.26125  -0.23345  -0.21288
 Alpha virt. eigenvalues --   -0.09152  -0.05860  -0.02571  -0.01031  -0.00144
 Alpha virt. eigenvalues --    0.02411   0.02467   0.03039   0.03709   0.04154
 Alpha virt. eigenvalues --    0.04293   0.05473   0.07606   0.08322   0.09161

 Mulliken charges:
               1
     1  Mg   0.846020
     2  C    0.074523
     3  C   -0.081095
     4  C   -0.167145
     5  C   -0.104820
     6  N   -0.637486
     7  C    0.323403
     8  C   -0.159999
     9  C   -0.129291
    10  C    0.336518
    11  C   -0.315992
    12  C   -0.152446
    13  C   -0.285021
    14  C    0.611131
    15  O   -0.455912
    16  O   -0.459391
    17  N   -0.685024
    18  C    0.241743
    19  C    0.034214
    20  C    0.055912
    21  C    0.286168
    22  C   -0.347181
    23  C    0.155694
    24  O   -0.460333
    25  N   -0.680628
    26  C    0.297438
    27  C   -0.016692
    28  C   -0.041808
    29  C    0.322827
    30  C    0.255794
    31  C   -0.223587
    32  C   -0.286395
    33  N   -0.770544
    34  C    0.230040
    35  C    0.034059
    36  C    0.058050
    37  C    0.339574
    38  C   -0.381711
    39  C    0.326550
    40  O   -0.484702
    41  C   -0.342809
    42  C    0.646083
    43  O   -0.470683
    44  O   -0.471429
    45  C   -0.083767
    46  C    0.015813
    47  C   -0.143231
    48  C    0.103098
    49  C   -0.389670
    50  C   -0.223986
    51  C   -0.161204
    52  C   -0.174632
    53  C   -0.038393
    54  C   -0.299630
    55  C   -0.172581
    56  C   -0.176268
    57  C   -0.131093
    58  C   -0.056479
    59  C   -0.320228
    60  C   -0.165793
    61  C   -0.169058
    62  C   -0.177421
    63  C   -0.075082
    64  C   -0.287976
    65  C   -0.292806
    66  H    0.046375
    67  H    0.162554
    68  H    0.051656
    69  H    0.120906
    70  H    0.108843
    71  H    0.106837
    72  H    0.105124
    73  H    0.134942
    74  H    0.132598
    75  H    0.101666
    76  H    0.142443
    77  H    0.133096
    78  H    0.081630
    79  H    0.170933
    80  H    0.126642
    81  H    0.067082
    82  H    0.114706
    83  H    0.096225
    84  H    0.097768
    85  H    0.106914
    86  H    0.104059
    87  H    0.124503
    88  H    0.152794
    89  H    0.136508
    90  H    0.163621
    91  H    0.110189
    92  H    0.118309
    93  H    0.071625
    94  H    0.155479
    95  H    0.070565
    96  H    0.115849
    97  H    0.113957
    98  H    0.099691
    99  H    0.114551
   100  H    0.091168
   101  H    0.104425
   102  H    0.059491
   103  H    0.074594
   104  H    0.088811
   105  H    0.097348
   106  H    0.096653
   107  H    0.077809
   108  H    0.075881
   109  H    0.100676
   110  H    0.104208
   111  H    0.091987
   112  H    0.018153
   113  H    0.041245
   114  H    0.111461
   115  H    0.103520
   116  H    0.116765
   117  H    0.076872
   118  H    0.096004
   119  H    0.097302
   120  H    0.092846
   121  H    0.096798
   122  H    0.087615
   123  H    0.065035
   124  H    0.101984
   125  H    0.083570
   126  H    0.099450
   127  H    0.103944
   128  H    0.081275
   129  H    0.097116
   130  H    0.129301
   131  H    0.134859
   132  H    0.119836
   133  O   -0.385257
   134  H    0.063386
 Sum of Mulliken charges =   0.00000

 Dipole moment (field-independent basis, Debye):
    X=              0.3523    Y=             -4.4725    Z=             -1.4626  Tot=              4.7187
 Quadrupole moment (field-independent basis, Debye-Ang):
   XX=           -381.3660   YY=           -439.1367   ZZ=           -403.1631
   XY=             -2.0241   XZ=             24.3206   YZ=            -38.5673

 Normal termination of Gaussian 09 at Tue Oct  8 06:01:37 2019.
