 Gaussian 09, Revision D.01,
 Gaussian 09:  ES64L-G09RevD.01 24-Apr-2013

 ----------------------------------------------------------------------
 # td=(NStates=1) iop(3/107=0140000000,3/108=0140000000) iop(3/107=0140
 000000,3/108=0140000000) CAM-B3LYP/6-31G(d,p)
 ----------------------------------------------------------------------

 --
 TD
 --
 Symbolic Z-matrix:
 Charge =  0 Multiplicity = 1

                         Standard orientation:
 ---------------------------------------------------------------------
 Center     Atomic      Atomic             Coordinates (Angstroms)
 Number     Number       Type             X           Y           Z
 ---------------------------------------------------------------------
      1         12           0       -5.569463    1.237531    0.185578
      2          6           0       -4.963079   -2.163162   -0.440756
      3          6           0       -3.272316    1.115590    2.624133
      4          6           0       -6.148387    4.616370    0.690337
      5          6           0       -8.058289    1.219347   -2.284831
      6          7           0       -4.261651   -0.285093    1.026383
      7          6           0       -4.222996   -1.606456    0.619708
      8          6           0       -3.155366   -2.406040    1.496151
      9          6           0       -2.822476   -1.372007    2.565393
     10          6           0       -3.455506   -0.125549    2.055993
     11          6           0       -3.449221   -1.702581    3.964183
     12          6           0       -1.887872   -2.739218    0.693515
     13          6           0       -0.924434   -3.534798    1.504560
     14          6           0        0.334715   -4.013150    0.632342
     15          8           0        0.473689   -3.505916   -0.495109
     16          8           0        1.134238   -4.841098    1.240285
     17          7           0       -4.870724    2.684662    1.414824
     18          6           0       -3.855397    2.408214    2.373982
     19          6           0       -3.686463    3.696989    3.144903
     20          6           0       -4.569749    4.643217    2.547381
     21          6           0       -5.228569    3.962548    1.419087
     22          6           0       -2.739579    3.736589    4.308909
     23          6           0       -4.549671    6.075705    2.888087
     24          8           0       -3.832196    6.535264    3.773046
     25          7           0       -6.821107    2.666476   -0.628825
     26          6           0       -6.915133    3.977036   -0.349338
     27          6           0       -7.792717    4.683722   -1.143140
     28          6           0       -8.352502    3.737363   -2.003377
     29          6           0       -7.722442    2.427930   -1.696858
     30          6           0       -8.289107    5.996750   -1.086797
     31          6           0       -9.344405    3.848728   -3.076365
     32          6           0       -8.820401    4.056519   -4.449825
     33          7           0       -6.338735   -0.111221   -1.116619
     34          6           0       -7.330619   -0.013531   -2.012818
     35          6           0       -7.565149   -1.330487   -2.603790
     36          6           0       -6.693656   -2.189488   -1.994908
     37          6           0       -5.909624   -1.351852   -1.112938
     38          6           0       -8.524665   -1.543837   -3.847904
     39          6           0       -6.153128   -3.559074   -2.008380
     40          8           0       -6.389884   -4.474343   -2.683853
     41          6           0       -4.998151   -3.591842   -0.985161
     42          6           0       -5.290916   -4.628052    0.038559
     43          8           0       -5.699769   -4.485778    1.197085
     44          8           0       -5.115648   -5.825385   -0.400808
     45          6           0       -5.555801   -6.864610    0.490515
     46          6           0        2.369322   -5.190693    0.676891
     47          6           0        3.449803   -4.319145    1.030020
     48          6           0        3.997810   -3.396222    0.142232
     49          6           0        3.593824   -3.259317   -1.329056
     50          6           0        5.110827   -2.579987    0.689670
     51          6           0        6.507139   -2.753781    0.121299
     52          6           0        7.603009   -1.821232    0.583957
     53          6           0        8.920410   -2.061544    0.006899
     54          6           0        9.371720   -3.421987    0.206877
     55          6           0        9.910856   -0.952825    0.424653
     56          6           0       11.282951   -0.856248   -0.347478
     57          6           0       12.047056    0.274603    0.167878
     58          6           0       13.441725    0.428886   -0.602782
     59          6           0       14.386891   -0.701050   -0.450277
     60          6           0       14.145981    1.748432   -0.113381
     61          6           0       15.332433    2.210124   -0.929469
     62          6           0       15.845935    3.631873   -0.682118
     63          6           0       17.180511    4.068696   -1.381239
     64          6           0       17.007122    4.185169   -2.854912
     65          6           0       17.770151    5.252824   -0.762685
     66          1           0       -2.535968    1.326199    3.373037
     67          1           0       -6.192594    5.623228    1.084798
     68          1           0       -8.977225    0.998318   -2.950068
     69          1           0       -3.761509   -3.181188    1.738277
     70          1           0       -1.767636   -1.211581    2.565597
     71          1           0       -3.056722   -2.698725    4.196978
     72          1           0       -3.205987   -1.021364    4.676072
     73          1           0       -4.416987   -1.858466    3.952118
     74          1           0       -2.231284   -3.226032   -0.236025
     75          1           0       -1.398928   -1.730830    0.372246
     76          1           0       -0.526140   -2.933872    2.378621
     77          1           0       -1.119260   -4.571622    1.867488
     78          1           0       -1.788244    3.334057    4.299687
     79          1           0       -2.613609    4.814570    4.723069
     80          1           0       -3.141109    3.209432    5.178667
     81          1           0       -5.359252    6.727730    2.365878
     82          1           0      -10.019345    2.991323   -3.134749
     83          1           0       -9.715303    4.703733   -2.757088
     84          1           0       -9.522859    3.967579   -5.070093
     85          1           0       -8.223734    5.001936   -4.486507
     86          1           0       -7.941644    3.442577   -4.729938
     87          1           0       -8.169874   -0.862188   -4.842408
     88          1           0       -8.575155   -2.623862   -4.127424
     89          1           0       -9.586756   -1.141837   -3.580896
     90          1           0       -3.966883   -3.702214   -1.537318
     91          1           0        2.496230   -6.257421    1.066612
     92          1           0        2.198720   -5.163749   -0.522504
     93          1           0        3.766916   -4.225524    1.889863
     94          1           0        2.490883   -3.461256   -1.570019
     95          1           0        3.626611   -2.167632   -1.534562
     96          1           0        4.076555   -3.743851   -1.918116
     97          1           0        5.037878   -1.373253    0.529197
     98          1           0        5.022577   -2.774143    1.589135
     99          1           0        6.962180   -3.787035    0.430293
    100          1           0        6.590898   -2.761932   -0.950857
    101          1           0        7.206581   -0.725532    0.356346
    102          1           0        7.799946   -1.872221    1.570169
    103          1           0        8.656748   -2.018741   -1.017959
    104          1           0        8.835333   -4.184071   -0.264297
    105          1           0       10.396281   -3.609513   -0.243086
    106          1           0        9.558286   -3.558938    1.196217
    107          1           0        9.331078    0.071878    0.323137
    108          1           0       10.185922   -1.051738    1.456980
    109          1           0       11.708150   -1.858742   -0.384055
    110          1           0       10.987225   -0.504854   -1.410751
    111          1           0       11.644205    1.370507   -0.082310
    112          1           0       12.416855    0.063790    1.183492
    113          1           0       12.973541    0.648192   -1.476873
    114          1           0       14.916339   -0.898765    0.649830
    115          1           0       14.008629   -1.660035   -1.043784
    116          1           0       15.306712   -0.598874   -1.189500
    117          1           0       13.424579    2.531970   -0.111173
    118          1           0       14.467149    1.715143    0.949898
    119          1           0       16.175200    1.482436   -0.590193
    120          1           0       15.003983    2.105964   -2.011052
    121          1           0       14.962577    4.395319   -0.874892
    122          1           0       15.853424    3.736779    0.434129
    123          1           0       17.783993    3.106773   -1.238692
    124          1           0       16.201309    4.861685   -3.168975
    125          1           0       17.769180    4.584924   -3.461645
    126          1           0       16.739355    3.228499   -3.429663
    127          1           0       17.928840    5.221386    0.446462
    128          1           0       18.863230    5.528865   -1.043647
    129          1           0       17.298349    6.155390   -1.121195
    130          1           0       -5.049012   -7.824542    0.287614
    131          1           0       -6.632785   -6.917244    0.398026
    132          1           0       -5.136390   -6.787468    1.672398
    133          8           0       -7.838210    6.857713   -0.339951
    134          1           0       -9.193343    6.262144   -1.858054
 ---------------------------------------------------------------------

 SCF Done:  E(RCAM-B3LYP) =  -3043.42820119     A.U. after   16 cycles

 Excitation energies and oscillator strengths:

 Excited State   1:      Singlet-A      2.0875 eV  593.95 nm  f=0.1740  <S**2>=0.000
     243 -> 246       -0.28192
     244 -> 245        0.63753
 This state for optimization and/or second-order correction.
 Total Energy, E(TD-HF/TD-KS) =  -3043.35148859
 Copying the excited state density for this state as the 1-particle RhoCI density.

 The electronic state is 1-A.
 Alpha  occ. eigenvalues --  -46.81430 -19.23737 -19.23685 -19.17608 -19.16840
 Alpha  occ. eigenvalues --  -19.16546 -19.16516 -19.16288 -14.38865 -14.36916
 Alpha  occ. eigenvalues --  -14.36796 -14.36141 -10.35240 -10.35205 -10.31504
 Alpha  occ. eigenvalues --  -10.30590 -10.30462 -10.28913 -10.28706 -10.27604
 Alpha  occ. eigenvalues --  -10.27255 -10.27161 -10.26121 -10.26003 -10.25962
 Alpha  occ. eigenvalues --  -10.25895 -10.25661 -10.25616 -10.25539 -10.25302
 Alpha  occ. eigenvalues --  -10.25165 -10.24982 -10.24495 -10.24255 -10.24196
 Alpha  occ. eigenvalues --  -10.24139 -10.23682 -10.23666 -10.23185 -10.23054
 Alpha  occ. eigenvalues --  -10.22674 -10.22615 -10.22399 -10.22257 -10.21828
 Alpha  occ. eigenvalues --  -10.21795 -10.21572 -10.21460 -10.21454 -10.21433
 Alpha  occ. eigenvalues --  -10.21417 -10.21391 -10.21382 -10.21281 -10.21271
 Alpha  occ. eigenvalues --  -10.21184 -10.20879 -10.20372 -10.20169 -10.20122
 Alpha  occ. eigenvalues --  -10.20056 -10.19980 -10.19923 -10.19813 -10.19301
 Alpha  occ. eigenvalues --  -10.19001  -3.09992  -1.84940  -1.84453  -1.84400
 Alpha  occ. eigenvalues --   -1.16436  -1.15601  -1.10798  -1.05980  -1.05822
 Alpha  occ. eigenvalues --   -1.04026  -1.03541  -1.01814  -1.00595  -0.99524
 Alpha  occ. eigenvalues --   -0.98039  -0.88954  -0.87785  -0.86531  -0.86501
 Alpha  occ. eigenvalues --   -0.86086  -0.85229  -0.84571  -0.83907  -0.83412
 Alpha  occ. eigenvalues --   -0.82570  -0.82025  -0.81878  -0.81105  -0.80292
 Alpha  occ. eigenvalues --   -0.80103  -0.79494  -0.78045  -0.77411  -0.76642
 Alpha  occ. eigenvalues --   -0.75977  -0.74773  -0.74263  -0.73726  -0.73599
 Alpha  occ. eigenvalues --   -0.71979  -0.71571  -0.71139  -0.70377  -0.70122
 Alpha  occ. eigenvalues --   -0.69501  -0.68770  -0.67894  -0.67286  -0.66544
 Alpha  occ. eigenvalues --   -0.65762  -0.65174  -0.64347  -0.63030  -0.62427
 Alpha  occ. eigenvalues --   -0.61948  -0.60926  -0.60005  -0.59727  -0.59247
 Alpha  occ. eigenvalues --   -0.58887  -0.58366  -0.58122  -0.57950  -0.57858
 Alpha  occ. eigenvalues --   -0.56706  -0.56617  -0.55953  -0.55229  -0.54889
 Alpha  occ. eigenvalues --   -0.54372  -0.53545  -0.53235  -0.53176  -0.52543
 Alpha  occ. eigenvalues --   -0.52210  -0.51792  -0.51664  -0.51377  -0.51272
 Alpha  occ. eigenvalues --   -0.51117  -0.50788  -0.50130  -0.49818  -0.49665
 Alpha  occ. eigenvalues --   -0.49471  -0.48913  -0.48608  -0.48508  -0.48040
 Alpha  occ. eigenvalues --   -0.47807  -0.47556  -0.47270  -0.47169  -0.46844
 Alpha  occ. eigenvalues --   -0.46806  -0.46562  -0.46377  -0.46111  -0.46026
 Alpha  occ. eigenvalues --   -0.45796  -0.45567  -0.45283  -0.45182  -0.44885
 Alpha  occ. eigenvalues --   -0.44844  -0.44750  -0.44410  -0.44299  -0.43978
 Alpha  occ. eigenvalues --   -0.43728  -0.43478  -0.43357  -0.43304  -0.43131
 Alpha  occ. eigenvalues --   -0.42881  -0.42538  -0.42395  -0.42072  -0.41881
 Alpha  occ. eigenvalues --   -0.41807  -0.41605  -0.41572  -0.41491  -0.41152
 Alpha  occ. eigenvalues --   -0.41035  -0.40869  -0.40690  -0.40627  -0.40298
 Alpha  occ. eigenvalues --   -0.40123  -0.39791  -0.39688  -0.39458  -0.39322
 Alpha  occ. eigenvalues --   -0.38908  -0.38584  -0.38379  -0.38306  -0.37959
 Alpha  occ. eigenvalues --   -0.37624  -0.37210  -0.37123  -0.36786  -0.36654
 Alpha  occ. eigenvalues --   -0.36562  -0.36516  -0.36261  -0.36208  -0.35982
 Alpha  occ. eigenvalues --   -0.35780  -0.35398  -0.34776  -0.34717  -0.34548
 Alpha  occ. eigenvalues --   -0.34157  -0.33904  -0.33600  -0.33479  -0.33357
 Alpha  occ. eigenvalues --   -0.33245  -0.32932  -0.32388  -0.32023  -0.31378
 Alpha  occ. eigenvalues --   -0.31088  -0.30493  -0.29761  -0.29516  -0.29323
 Alpha  occ. eigenvalues --   -0.29032  -0.28329  -0.28122  -0.27592  -0.27454
 Alpha  occ. eigenvalues --   -0.27408  -0.27315  -0.22674  -0.21331
 Alpha virt. eigenvalues --   -0.08028  -0.06322  -0.01457  -0.00312   0.00478
 Alpha virt. eigenvalues --    0.01626   0.03402   0.04020   0.04117   0.04406
 Alpha virt. eigenvalues --    0.05351   0.06107   0.08345   0.08465   0.09484

 Mulliken charges:
               1
     1  Mg   0.821719
     2  C    0.063132
     3  C   -0.200605
     4  C   -0.127036
     5  C   -0.163382
     6  N   -0.616542
     7  C    0.252696
     8  C   -0.129159
     9  C   -0.156039
    10  C    0.389085
    11  C   -0.304998
    12  C   -0.161405
    13  C   -0.254024
    14  C    0.571954
    15  O   -0.480247
    16  O   -0.411507
    17  N   -0.740170
    18  C    0.272473
    19  C    0.065448
    20  C   -0.072939
    21  C    0.377090
    22  C   -0.419465
    23  C    0.246157
    24  O   -0.421821
    25  N   -0.692088
    26  C    0.288950
    27  C    0.067530
    28  C   -0.022604
    29  C    0.288268
    30  C    0.206947
    31  C   -0.219183
    32  C   -0.297657
    33  N   -0.732225
    34  C    0.264325
    35  C   -0.021375
    36  C    0.026078
    37  C    0.315856
    38  C   -0.362763
    39  C    0.362742
    40  O   -0.408882
    41  C   -0.335223
    42  C    0.619493
    43  O   -0.500875
    44  O   -0.397711
    45  C   -0.085617
    46  C   -0.018830
    47  C   -0.074716
    48  C    0.113442
    49  C   -0.381027
    50  C   -0.179032
    51  C   -0.184952
    52  C   -0.147962
    53  C   -0.053240
    54  C   -0.317107
    55  C   -0.174655
    56  C   -0.167003
    57  C   -0.172481
    58  C   -0.042402
    59  C   -0.305360
    60  C   -0.183208
    61  C   -0.161071
    62  C   -0.165739
    63  C   -0.021143
    64  C   -0.323700
    65  C   -0.307664
    66  H    0.071567
    67  H    0.112750
    68  H    0.103737
    69  H    0.129143
    70  H    0.108055
    71  H    0.106872
    72  H    0.119722
    73  H    0.137642
    74  H    0.106607
    75  H    0.114057
    76  H    0.128435
    77  H    0.127301
    78  H    0.133957
    79  H    0.153886
    80  H    0.129881
    81  H    0.082015
    82  H    0.107657
    83  H    0.107622
    84  H    0.118733
    85  H    0.102378
    86  H    0.107603
    87  H    0.105971
    88  H    0.143599
    89  H    0.111846
    90  H    0.169572
    91  H    0.105872
    92  H    0.109974
    93  H    0.057764
    94  H    0.145937
    95  H    0.106195
    96  H    0.130615
    97  H    0.071128
    98  H    0.093782
    99  H    0.078603
   100  H    0.097333
   101  H    0.060091
   102  H    0.091499
   103  H    0.079208
   104  H    0.115384
   105  H    0.083899
   106  H    0.105996
   107  H    0.075263
   108  H    0.091098
   109  H    0.105302
   110  H    0.076670
   111  H    0.083243
   112  H    0.088151
   113  H    0.094515
   114  H    0.092076
   115  H    0.085110
   116  H    0.095650
   117  H    0.080701
   118  H    0.080584
   119  H    0.080931
   120  H    0.084480
   121  H    0.063096
   122  H    0.081926
   123  H    0.083805
   124  H    0.097132
   125  H    0.108595
   126  H    0.095620
   127  H    0.083465
   128  H    0.089106
   129  H    0.110788
   130  H    0.125683
   131  H    0.144910
   132  H    0.109938
   133  O   -0.432188
   134  H    0.053908
 Sum of Mulliken charges =   0.00000

 Dipole moment (field-independent basis, Debye):
    X=              2.7421    Y=             -6.3917    Z=             -0.7469  Tot=              6.9951
 Quadrupole moment (field-independent basis, Debye-Ang):
   XX=           -375.3709   YY=           -436.0380   ZZ=           -392.3622
   XY=             13.4962   XZ=             19.2140   YZ=            -34.9278

 Normal termination of Gaussian 09 at Fri Oct  4 21:53:42 2019.
