 Gaussian 09, Revision D.01,
 Gaussian 09:  ES64L-G09RevD.01 24-Apr-2013

 ----------------------------------------------------------------------
 # td=(NStates=1) iop(3/107=0140000000,3/108=0140000000) iop(3/107=0140
 000000,3/108=0140000000) CAM-B3LYP/6-31G(d,p)
 ----------------------------------------------------------------------

 --
 TD
 --
 Symbolic Z-matrix:
 Charge =  0 Multiplicity = 1

                         Standard orientation:
 ---------------------------------------------------------------------
 Center     Atomic      Atomic             Coordinates (Angstroms)
 Number     Number       Type             X           Y           Z
 ---------------------------------------------------------------------
      1         12           0       -5.570972    1.264674    0.258683
      2          6           0       -4.987000   -2.118700   -0.407274
      3          6           0       -3.395750    1.246480    2.821391
      4          6           0       -6.290628    4.488039    0.820428
      5          6           0       -8.060094    1.194819   -2.447669
      6          7           0       -4.406753   -0.300816    1.008253
      7          6           0       -4.296027   -1.639701    0.561969
      8          6           0       -3.263049   -2.313129    1.503110
      9          6           0       -2.960613   -1.413972    2.696197
     10          6           0       -3.642244    0.007871    2.213908
     11          6           0       -3.343686   -1.762163    4.097246
     12          6           0       -1.992919   -2.776978    0.691095
     13          6           0       -0.891615   -3.657935    1.468767
     14          6           0        0.324681   -4.071977    0.628065
     15          8           0        0.466864   -3.517581   -0.414210
     16          8           0        1.058518   -4.908064    1.314257
     17          7           0       -5.015403    2.578907    1.586234
     18          6           0       -4.004521    2.497595    2.406426
     19          6           0       -3.658985    3.577542    3.122556
     20          6           0       -4.526956    4.616735    2.579471
     21          6           0       -5.223371    3.933466    1.560034
     22          6           0       -2.658158    3.859766    4.251916
     23          6           0       -4.684365    5.997192    2.894686
     24          8           0       -4.047448    6.654867    3.819429
     25          7           0       -6.885458    2.494739   -0.668458
     26          6           0       -6.970509    3.818401   -0.370598
     27          6           0       -7.914840    4.535386   -1.126195
     28          6           0       -8.439699    3.592707   -2.062600
     29          6           0       -7.764064    2.379959   -1.730185
     30          6           0       -8.227365    5.990684   -1.072706
     31          6           0       -9.487260    3.927369   -3.168109
     32          6           0       -8.780974    4.219177   -4.490924
     33          7           0       -6.363352   -0.063740   -1.108277
     34          6           0       -7.374548    0.013174   -2.121761
     35          6           0       -7.475583   -1.310984   -2.794003
     36          6           0       -6.612858   -2.208329   -2.131590
     37          6           0       -5.925899   -1.334577   -1.197854
     38          6           0       -8.469697   -1.592929   -3.931151
     39          6           0       -6.140995   -3.540688   -2.001766
     40          8           0       -6.546056   -4.559013   -2.626264
     41          6           0       -4.970395   -3.464244   -0.897072
     42          6           0       -5.229953   -4.623552    0.124982
     43          8           0       -5.620363   -4.344021    1.254660
     44          8           0       -4.899077   -5.833390   -0.312284
     45          6           0       -5.260118   -6.911700    0.630058
     46          6           0        2.310895   -5.253945    0.650675
     47          6           0        3.435433   -4.257140    1.065216
     48          6           0        4.089593   -3.410682    0.256884
     49          6           0        3.567925   -3.150398   -1.264373
     50          6           0        5.265400   -2.597909    0.608292
     51          6           0        6.565240   -2.921869   -0.113985
     52          6           0        7.599617   -1.948628    0.423284
     53          6           0        9.108513   -2.018164   -0.221532
     54          6           0        9.660959   -3.406542   -0.069070
     55          6           0       10.004820   -0.916715    0.388633
     56          6           0       11.355235   -0.972204   -0.290312
     57          6           0       12.162770    0.361691    0.115034
     58          6           0       13.458121    0.521832   -0.581108
     59          6           0       14.399883   -0.665474   -0.408782
     60          6           0       14.087738    1.839338   -0.147057
     61          6           0       15.308658    2.194142   -0.995458
     62          6           0       15.771095    3.617049   -0.645877
     63          6           0       17.170869    4.141501   -1.262585
     64          6           0       16.966443    4.285686   -2.782006
     65          6           0       17.657228    5.409760   -0.616564
     66          1           0       -2.845329    1.206756    3.708635
     67          1           0       -6.343954    5.646017    0.715810
     68          1           0       -8.818444    1.139448   -3.206639
     69          1           0       -3.812018   -3.279422    1.844309
     70          1           0       -1.753111   -1.046706    2.632412
     71          1           0       -2.538339   -2.477860    4.357045
     72          1           0       -3.242181   -0.957597    4.665411
     73          1           0       -4.422050   -2.085080    4.098316
     74          1           0       -2.288908   -3.421547   -0.096833
     75          1           0       -1.215517   -2.058043    0.170928
     76          1           0       -0.672982   -2.850014    2.312396
     77          1           0       -1.391527   -4.554346    2.007837
     78          1           0       -1.717876    3.642443    3.787645
     79          1           0       -2.754296    4.934514    4.589595
     80          1           0       -2.693495    3.259444    5.272282
     81          1           0       -5.164227    6.463648    2.147809
     82          1           0      -10.153404    3.050119   -3.264861
     83          1           0       -9.933870    4.746318   -2.919824
     84          1           0       -9.568539    4.450352   -5.294539
     85          1           0       -8.064983    5.043863   -4.632374
     86          1           0       -8.198349    3.341477   -4.954398
     87          1           0       -8.069360   -1.048845   -4.923183
     88          1           0       -8.630971   -2.616373   -4.244375
     89          1           0       -9.484195   -1.036029   -3.746152
     90          1           0       -4.240237   -3.878665   -1.764095
     91          1           0        2.481716   -6.304494    0.886908
     92          1           0        2.264699   -5.127137   -0.336192
     93          1           0        3.731176   -4.431888    2.148682
     94          1           0        2.737010   -3.457195   -1.609018
     95          1           0        3.899765   -2.199183   -1.658978
     96          1           0        4.300821   -3.784937   -1.888167
     97          1           0        4.935909   -1.450076    0.591697
     98          1           0        5.392155   -2.637354    1.647173
     99          1           0        6.874746   -3.868744    0.020907
    100          1           0        6.634434   -2.764042   -1.406599
    101          1           0        7.104276   -1.047608    0.168190
    102          1           0        7.875898   -2.055792    1.614207
    103          1           0        9.039895   -1.883740   -1.349430
    104          1           0        9.035567   -4.293891   -0.838615
    105          1           0       10.799887   -3.495486   -0.262699
    106          1           0        9.611762   -3.995733    1.155150
    107          1           0        9.513389    0.055221    0.009120
    108          1           0       10.267724   -1.333189    1.471634
    109          1           0       11.777939   -1.873225    0.042639
    110          1           0       11.203825   -0.960550   -1.360380
    111          1           0       11.617839    1.210498   -0.186211
    112          1           0       12.243010    0.579041    1.183088
    113          1           0       13.392834    0.598837   -1.670485
    114          1           0       14.656291   -0.665085    0.713779
    115          1           0       13.918788   -1.553572   -0.608947
    116          1           0       15.214501   -0.785086   -1.062727
    117          1           0       13.372699    2.632807   -0.340447
    118          1           0       14.472654    1.734023    0.767108
    119          1           0       16.302192    1.680968   -0.593481
    120          1           0       15.193897    1.995368   -2.173678
    121          1           0       14.853633    4.294414   -0.864002
    122          1           0       16.040755    3.788582    0.328355
    123          1           0       17.990957    3.342793   -1.027750
    124          1           0       16.461641    5.187536   -3.041543
    125          1           0       17.907245    4.722111   -3.095596
    126          1           0       16.707801    3.549342   -3.347322
    127          1           0       17.863827    5.422105    0.550393
    128          1           0       18.586249    5.699576   -0.985178
    129          1           0       16.828603    6.241666   -0.852591
    130          1           0       -5.078003   -7.911283   -0.000702
    131          1           0       -6.351950   -6.779523    0.947114
    132          1           0       -4.598797   -6.923356    1.547176
    133          8           0       -7.716883    6.878389   -0.392892
    134          1           0       -9.155390    6.087385   -1.846696
 ---------------------------------------------------------------------

 SCF Done:  E(RCAM-B3LYP) =  -3043.37233173     A.U. after   16 cycles

 Excitation energies and oscillator strengths:

 Excited State   1:      Singlet-A      1.9985 eV  620.40 nm  f=0.1349  <S**2>=0.000
     243 -> 245       -0.16879
     243 -> 246        0.26130
     244 -> 245        0.62045
 This state for optimization and/or second-order correction.
 Total Energy, E(TD-HF/TD-KS) =  -3043.29888986
 Copying the excited state density for this state as the 1-particle RhoCI density.

 The electronic state is 1-A.
 Alpha  occ. eigenvalues --  -46.80719 -19.23929 -19.23517 -19.18567 -19.17133
 Alpha  occ. eigenvalues --  -19.17056 -19.16723 -19.16665 -14.37807 -14.37613
 Alpha  occ. eigenvalues --  -14.37277 -14.37168 -10.35715 -10.34730 -10.32150
 Alpha  occ. eigenvalues --  -10.31523 -10.29728 -10.29267 -10.27937 -10.27340
 Alpha  occ. eigenvalues --  -10.27012 -10.27004 -10.26931 -10.26778 -10.26630
 Alpha  occ. eigenvalues --  -10.26588 -10.26518 -10.26160 -10.25832 -10.25553
 Alpha  occ. eigenvalues --  -10.25477 -10.25266 -10.25260 -10.24963 -10.24814
 Alpha  occ. eigenvalues --  -10.24415 -10.24278 -10.24187 -10.23893 -10.23432
 Alpha  occ. eigenvalues --  -10.23258 -10.23168 -10.22955 -10.22907 -10.22852
 Alpha  occ. eigenvalues --  -10.22808 -10.22717 -10.22626 -10.22578 -10.22548
 Alpha  occ. eigenvalues --  -10.22396 -10.22389 -10.22359 -10.22358 -10.22257
 Alpha  occ. eigenvalues --  -10.21964 -10.21415 -10.21207 -10.20430 -10.20237
 Alpha  occ. eigenvalues --  -10.20231 -10.20094 -10.19985 -10.19215 -10.18804
 Alpha  occ. eigenvalues --  -10.18007  -3.09534  -1.84451  -1.84016  -1.83963
 Alpha  occ. eigenvalues --   -1.15057  -1.13977  -1.07009  -1.06826  -1.04708
 Alpha  occ. eigenvalues --   -1.04315  -1.03195  -1.01760  -1.00370  -0.98925
 Alpha  occ. eigenvalues --   -0.95341  -0.88870  -0.86277  -0.85817  -0.85406
 Alpha  occ. eigenvalues --   -0.84475  -0.84188  -0.84089  -0.83527  -0.83421
 Alpha  occ. eigenvalues --   -0.82943  -0.82832  -0.81478  -0.80259  -0.79435
 Alpha  occ. eigenvalues --   -0.78984  -0.78132  -0.77591  -0.76833  -0.76675
 Alpha  occ. eigenvalues --   -0.75067  -0.75015  -0.73376  -0.72816  -0.72179
 Alpha  occ. eigenvalues --   -0.71964  -0.71868  -0.71208  -0.70277  -0.69470
 Alpha  occ. eigenvalues --   -0.69131  -0.68820  -0.68034  -0.67499  -0.66511
 Alpha  occ. eigenvalues --   -0.65556  -0.64360  -0.64001  -0.61910  -0.61816
 Alpha  occ. eigenvalues --   -0.61059  -0.60636  -0.60465  -0.59227  -0.58810
 Alpha  occ. eigenvalues --   -0.58727  -0.57849  -0.57474  -0.57415  -0.57154
 Alpha  occ. eigenvalues --   -0.56280  -0.55990  -0.55229  -0.54808  -0.54341
 Alpha  occ. eigenvalues --   -0.53536  -0.52872  -0.52623  -0.52327  -0.52154
 Alpha  occ. eigenvalues --   -0.51857  -0.51787  -0.51426  -0.51258  -0.50743
 Alpha  occ. eigenvalues --   -0.50498  -0.49912  -0.49570  -0.49252  -0.49182
 Alpha  occ. eigenvalues --   -0.49026  -0.48864  -0.48425  -0.47969  -0.47572
 Alpha  occ. eigenvalues --   -0.47459  -0.47353  -0.47115  -0.46994  -0.46693
 Alpha  occ. eigenvalues --   -0.46596  -0.46497  -0.46095  -0.45824  -0.45597
 Alpha  occ. eigenvalues --   -0.45081  -0.44836  -0.44807  -0.44738  -0.44600
 Alpha  occ. eigenvalues --   -0.44416  -0.44263  -0.44160  -0.43909  -0.43756
 Alpha  occ. eigenvalues --   -0.43569  -0.43353  -0.43141  -0.43094  -0.42831
 Alpha  occ. eigenvalues --   -0.42417  -0.42081  -0.42016  -0.41942  -0.41734
 Alpha  occ. eigenvalues --   -0.41414  -0.41209  -0.41063  -0.40845  -0.40490
 Alpha  occ. eigenvalues --   -0.40365  -0.40220  -0.39967  -0.39822  -0.39740
 Alpha  occ. eigenvalues --   -0.39443  -0.39265  -0.39233  -0.39186  -0.39157
 Alpha  occ. eigenvalues --   -0.38894  -0.38603  -0.38157  -0.38069  -0.37903
 Alpha  occ. eigenvalues --   -0.37776  -0.37619  -0.37443  -0.37430  -0.37186
 Alpha  occ. eigenvalues --   -0.36794  -0.36558  -0.36255  -0.35967  -0.35867
 Alpha  occ. eigenvalues --   -0.35445  -0.35102  -0.34977  -0.34574  -0.34292
 Alpha  occ. eigenvalues --   -0.34047  -0.33959  -0.33916  -0.33493  -0.33114
 Alpha  occ. eigenvalues --   -0.32896  -0.32468  -0.32302  -0.31338  -0.31308
 Alpha  occ. eigenvalues --   -0.30931  -0.30810  -0.30362  -0.29650  -0.29515
 Alpha  occ. eigenvalues --   -0.29031  -0.28616  -0.28216  -0.28056  -0.27667
 Alpha  occ. eigenvalues --   -0.27497  -0.27446  -0.22844  -0.22625
 Alpha virt. eigenvalues --   -0.09542  -0.07155  -0.01842  -0.01297   0.00285
 Alpha virt. eigenvalues --    0.02840   0.03367   0.03689   0.03821   0.04605
 Alpha virt. eigenvalues --    0.05308   0.05638   0.08023   0.08042   0.08711

 Mulliken charges:
               1
     1  Mg   0.823659
     2  C    0.152400
     3  C   -0.183236
     4  C   -0.189354
     5  C   -0.139706
     6  N   -0.670631
     7  C    0.321029
     8  C   -0.153851
     9  C   -0.136660
    10  C    0.285909
    11  C   -0.290732
    12  C   -0.186316
    13  C   -0.285466
    14  C    0.623375
    15  O   -0.451389
    16  O   -0.431655
    17  N   -0.670956
    18  C    0.324421
    19  C    0.057532
    20  C   -0.008521
    21  C    0.261444
    22  C   -0.387388
    23  C    0.241399
    24  O   -0.458963
    25  N   -0.661715
    26  C    0.271202
    27  C   -0.030540
    28  C    0.010151
    29  C    0.258058
    30  C    0.271204
    31  C   -0.199547
    32  C   -0.325774
    33  N   -0.695041
    34  C    0.266069
    35  C   -0.001227
    36  C    0.116770
    37  C    0.282117
    38  C   -0.380734
    39  C    0.303121
    40  O   -0.488768
    41  C   -0.357582
    42  C    0.645412
    43  O   -0.487419
    44  O   -0.432721
    45  C   -0.094960
    46  C   -0.009747
    47  C   -0.163909
    48  C    0.145472
    49  C   -0.358353
    50  C   -0.241093
    51  C   -0.151358
    52  C   -0.147281
    53  C   -0.061687
    54  C   -0.270796
    55  C   -0.165377
    56  C   -0.182304
    57  C   -0.173397
    58  C   -0.064914
    59  C   -0.307300
    60  C   -0.142060
    61  C   -0.182489
    62  C   -0.158789
    63  C   -0.059965
    64  C   -0.300660
    65  C   -0.308614
    66  H    0.087501
    67  H    0.146162
    68  H    0.101805
    69  H    0.130295
    70  H    0.080505
    71  H    0.112852
    72  H    0.122716
    73  H    0.125645
    74  H    0.112452
    75  H    0.117492
    76  H    0.109016
    77  H    0.098894
    78  H    0.132866
    79  H    0.167643
    80  H    0.109968
    81  H    0.094745
    82  H    0.115391
    83  H    0.123225
    84  H    0.098990
    85  H    0.126538
    86  H    0.103145
    87  H    0.114100
    88  H    0.157527
    89  H    0.114089
    90  H    0.162298
    91  H    0.122151
    92  H    0.134114
    93  H    0.079107
    94  H    0.142501
    95  H    0.114147
    96  H    0.092801
    97  H    0.094080
    98  H    0.117044
    99  H    0.119854
   100  H    0.053979
   101  H    0.098735
   102  H    0.068614
   103  H    0.082059
   104  H    0.062726
   105  H    0.105516
   106  H    0.041034
   107  H    0.095700
   108  H    0.090125
   109  H    0.106264
   110  H    0.092211
   111  H    0.093275
   112  H    0.087336
   113  H    0.073372
   114  H    0.077263
   115  H    0.102805
   116  H    0.106130
   117  H    0.089118
   118  H    0.101074
   119  H    0.075625
   120  H    0.072129
   121  H    0.063230
   122  H    0.096554
   123  H    0.069552
   124  H    0.101320
   125  H    0.086641
   126  H    0.112380
   127  H    0.087120
   128  H    0.115339
   129  H    0.085735
   130  H    0.123979
   131  H    0.145444
   132  H    0.135388
   133  O   -0.429412
   134  H    0.040181
 Sum of Mulliken charges =   0.00000

 Dipole moment (field-independent basis, Debye):
    X=              2.5728    Y=             -5.0230    Z=             -2.4067  Tot=              6.1353
 Quadrupole moment (field-independent basis, Debye-Ang):
   XX=           -364.3972   YY=           -438.5238   ZZ=           -393.3602
   XY=              8.8530   XZ=             27.0747   YZ=            -37.7278

 Normal termination of Gaussian 09 at Tue Oct  8 22:51:22 2019.
