 Gaussian 09, Revision D.01,
 Gaussian 09:  ES64L-G09RevD.01 24-Apr-2013

 ----------------------------------------------------------------------
 # td=(NStates=1) iop(3/107=0140000000,3/108=0140000000) iop(3/107=0140
 000000,3/108=0140000000) CAM-B3LYP/6-31G(d,p)
 ----------------------------------------------------------------------

 --
 TD
 --
 Symbolic Z-matrix:
 Charge =  0 Multiplicity = 1

                         Standard orientation:
 ---------------------------------------------------------------------
 Center     Atomic      Atomic             Coordinates (Angstroms)
 Number     Number       Type             X           Y           Z
 ---------------------------------------------------------------------
      1         12           0       -5.753952    1.179100    0.235688
      2          6           0       -5.067898   -2.145279   -0.370232
      3          6           0       -3.421776    1.182401    2.815114
      4          6           0       -6.256759    4.615538    0.632416
      5          6           0       -7.897881    1.172999   -2.436718
      6          7           0       -4.479049   -0.306795    1.066930
      7          6           0       -4.387008   -1.609102    0.728578
      8          6           0       -3.333067   -2.383071    1.483049
      9          6           0       -3.018948   -1.349247    2.612151
     10          6           0       -3.680300   -0.107309    2.165624
     11          6           0       -3.304690   -1.786083    3.969369
     12          6           0       -2.015028   -2.747139    0.688540
     13          6           0       -0.982549   -3.656765    1.394872
     14          6           0        0.219541   -3.892107    0.642335
     15          8           0        0.312713   -3.476274   -0.490194
     16          8           0        1.080104   -4.622136    1.241949
     17          7           0       -4.944067    2.660160    1.465656
     18          6           0       -4.034767    2.481350    2.429110
     19          6           0       -3.746367    3.661427    3.169952
     20          6           0       -4.507274    4.571261    2.565436
     21          6           0       -5.232802    3.945061    1.541511
     22          6           0       -2.897141    3.842412    4.471818
     23          6           0       -4.737252    5.995313    2.936396
     24          8           0       -4.253691    6.618050    3.859963
     25          7           0       -6.908847    2.581508   -0.643019
     26          6           0       -7.040643    3.957261   -0.310655
     27          6           0       -7.973554    4.592121   -1.167365
     28          6           0       -8.406640    3.695728   -2.083341
     29          6           0       -7.741322    2.407900   -1.764757
     30          6           0       -8.258983    5.968268   -1.171975
     31          6           0       -9.312835    3.836772   -3.297035
     32          6           0       -8.493841    3.945394   -4.590355
     33          7           0       -6.394901   -0.129217   -1.103810
     34          6           0       -7.351568   -0.009712   -2.148304
     35          6           0       -7.571333   -1.292692   -2.746768
     36          6           0       -6.618358   -2.140465   -2.186019
     37          6           0       -6.029871   -1.395552   -1.097855
     38          6           0       -8.574310   -1.507955   -3.824693
     39          6           0       -6.117302   -3.567803   -2.051027
     40          8           0       -6.531592   -4.570918   -2.555839
     41          6           0       -5.068434   -3.614857   -0.925857
     42          6           0       -5.311810   -4.623573    0.121909
     43          8           0       -5.826899   -4.430214    1.257544
     44          8           0       -4.931406   -5.843905   -0.394144
     45          6           0       -5.336285   -6.864710    0.551144
     46          6           0        2.307588   -5.078115    0.498881
     47          6           0        3.421176   -4.149873    0.941358
     48          6           0        4.058042   -3.310145    0.179904
     49          6           0        3.795588   -3.169117   -1.264088
     50          6           0        5.347848   -2.518131    0.552949
     51          6           0        6.681234   -2.881161   -0.009727
     52          6           0        7.708764   -1.941356    0.579758
     53          6           0        9.114048   -2.006214   -0.122772
     54          6           0        9.651246   -3.489721    0.063489
     55          6           0       10.104896   -0.935602    0.516473
     56          6           0       11.442819   -0.882456   -0.314537
     57          6           0       12.282793    0.307707    0.177846
     58          6           0       13.604234    0.447066   -0.465641
     59          6           0       14.593471   -0.711007   -0.223719
     60          6           0       14.275763    1.790201   -0.077025
     61          6           0       15.445335    2.226273   -0.868666
     62          6           0       16.045702    3.627061   -0.634149
     63          6           0       17.237637    4.084623   -1.402239
     64          6           0       16.971571    4.131868   -2.957694
     65          6           0       17.752099    5.333823   -0.847585
     66          1           0       -2.776636    1.272688    3.625761
     67          1           0       -6.404873    5.547861    1.013127
     68          1           0       -8.669030    1.152108   -3.102199
     69          1           0       -4.005469   -3.310593    1.823162
     70          1           0       -1.881266   -1.054242    2.424722
     71          1           0       -2.751090   -2.780122    4.096326
     72          1           0       -3.007607   -1.118517    4.934348
     73          1           0       -4.239700   -2.043429    4.146845
     74          1           0       -2.329062   -3.188823   -0.439017
     75          1           0       -1.592803   -1.918393    0.469258
     76          1           0       -0.684497   -3.075113    2.348818
     77          1           0       -1.348044   -4.635749    1.839352
     78          1           0       -1.861764    3.890940    4.143261
     79          1           0       -2.958381    4.754232    4.947787
     80          1           0       -3.340037    3.153587    5.158554
     81          1           0       -5.570372    6.392004    2.349353
     82          1           0      -10.038395    3.024818   -3.394700
     83          1           0       -9.993133    4.681297   -2.877307
     84          1           0       -9.035321    3.768524   -5.676157
     85          1           0       -8.018757    4.973214   -4.491319
     86          1           0       -7.698165    3.205969   -4.476269
     87          1           0       -8.428381   -0.824657   -4.651307
     88          1           0       -8.680582   -2.619491   -4.087770
     89          1           0       -9.665080   -1.331913   -3.646488
     90          1           0       -4.037453   -3.954875   -1.333049
     91          1           0        2.485989   -6.157311    0.750042
     92          1           0        2.273345   -5.114450   -0.465901
     93          1           0        3.621040   -4.399957    2.066331
     94          1           0        2.803935   -3.352522   -1.567764
     95          1           0        3.954581   -2.129347   -1.609183
     96          1           0        4.341333   -3.877954   -1.739634
     97          1           0        5.074897   -1.566925    0.392574
     98          1           0        5.435681   -2.839162    1.633374
     99          1           0        6.811492   -3.894936    0.133691
    100          1           0        6.616551   -2.691146   -1.142880
    101          1           0        7.385188   -0.782476    0.613641
    102          1           0        7.905353   -2.338846    1.726871
    103          1           0        9.053904   -1.660902   -1.095517
    104          1           0        8.955872   -4.202706   -0.350146
    105          1           0       10.683556   -3.319720   -0.423417
    106          1           0        9.825064   -3.869570    1.143892
    107          1           0        9.658860   -0.041026    0.313719
    108          1           0       10.438386   -1.152734    1.634325
    109          1           0       12.182986   -1.888697   -0.102628
    110          1           0       11.199494   -0.723586   -1.578466
    111          1           0       11.692998    1.110281   -0.086812
    112          1           0       12.499605    0.318835    1.333097
    113          1           0       13.320687    0.478913   -1.577890
    114          1           0       14.941720   -0.636010    0.725623
    115          1           0       14.198659   -1.630904   -0.374013
    116          1           0       15.370007   -0.679261   -0.910723
    117          1           0       13.441468    2.748025   -0.034096
    118          1           0       14.467503    1.816888    0.959272
    119          1           0       16.188509    1.434614   -0.676116
    120          1           0       15.074225    2.360143   -1.867290
    121          1           0       15.405280    4.503759   -0.510867
    122          1           0       16.385393    3.552488    0.367536
    123          1           0       18.006251    3.229130   -1.324593
    124          1           0       16.277857    4.999645   -3.048684
    125          1           0       17.954685    4.542758   -3.620931
    126          1           0       16.569035    3.256716   -3.362732
    127          1           0       17.901205    5.237939    0.276624
    128          1           0       18.485675    5.635020   -1.284603
    129          1           0       16.864565    6.129530   -0.892733
    130          1           0       -5.000636   -7.923552    0.183806
    131          1           0       -6.380005   -6.844831    0.758182
    132          1           0       -4.817203   -6.731242    1.453835
    133          8           0       -7.753338    6.947521   -0.514216
    134          1           0       -9.167560    6.046932   -1.948067
 ---------------------------------------------------------------------

 SCF Done:  E(RCAM-B3LYP) =  -3043.44418174     A.U. after   16 cycles

 Excitation energies and oscillator strengths:

 Excited State   1:      Singlet-A      1.9587 eV  633.01 nm  f=0.1853  <S**2>=0.000
     243 -> 246        0.24141
     244 -> 245        0.65142
 This state for optimization and/or second-order correction.
 Total Energy, E(TD-HF/TD-KS) =  -3043.37220255
 Copying the excited state density for this state as the 1-particle RhoCI density.

 The electronic state is 1-A.
 Alpha  occ. eigenvalues --  -46.81218 -19.24197 -19.22879 -19.18655 -19.17903
 Alpha  occ. eigenvalues --  -19.17188 -19.16726 -19.15337 -14.39345 -14.37271
 Alpha  occ. eigenvalues --  -14.36400 -14.36391 -10.36457 -10.33723 -10.32541
 Alpha  occ. eigenvalues --  -10.30686 -10.29463 -10.27831 -10.27739 -10.27495
 Alpha  occ. eigenvalues --  -10.27374 -10.26706 -10.26155 -10.26071 -10.26057
 Alpha  occ. eigenvalues --  -10.25934 -10.25851 -10.25736 -10.25692 -10.25069
 Alpha  occ. eigenvalues --  -10.24847 -10.24603 -10.24467 -10.24466 -10.24287
 Alpha  occ. eigenvalues --  -10.24074 -10.23862 -10.23746 -10.23526 -10.23450
 Alpha  occ. eigenvalues --  -10.23447 -10.23369 -10.23257 -10.23088 -10.22911
 Alpha  occ. eigenvalues --  -10.22733 -10.22586 -10.22353 -10.22046 -10.21922
 Alpha  occ. eigenvalues --  -10.21770 -10.21687 -10.21512 -10.21448 -10.21356
 Alpha  occ. eigenvalues --  -10.21265 -10.21213 -10.21190 -10.21124 -10.20877
 Alpha  occ. eigenvalues --  -10.20450 -10.20400 -10.19560 -10.19491 -10.19301
 Alpha  occ. eigenvalues --  -10.18115  -3.09885  -1.84817  -1.84342  -1.84315
 Alpha  occ. eigenvalues --   -1.14947  -1.13417  -1.08897  -1.06199  -1.04327
 Alpha  occ. eigenvalues --   -1.04323  -1.02961  -1.01983  -1.00991  -1.00000
 Alpha  occ. eigenvalues --   -0.97888  -0.88291  -0.87092  -0.86077  -0.85935
 Alpha  occ. eigenvalues --   -0.85450  -0.84865  -0.84800  -0.84038  -0.83769
 Alpha  occ. eigenvalues --   -0.83607  -0.83181  -0.82075  -0.81046  -0.80326
 Alpha  occ. eigenvalues --   -0.79661  -0.79049  -0.78039  -0.77446  -0.77052
 Alpha  occ. eigenvalues --   -0.75808  -0.74889  -0.74778  -0.72886  -0.72731
 Alpha  occ. eigenvalues --   -0.72145  -0.71609  -0.71159  -0.70313  -0.70049
 Alpha  occ. eigenvalues --   -0.69896  -0.69347  -0.68110  -0.67134  -0.66686
 Alpha  occ. eigenvalues --   -0.66011  -0.65489  -0.64674  -0.62847  -0.62211
 Alpha  occ. eigenvalues --   -0.61704  -0.61263  -0.60650  -0.59720  -0.59521
 Alpha  occ. eigenvalues --   -0.58204  -0.58047  -0.57693  -0.57366  -0.56838
 Alpha  occ. eigenvalues --   -0.56584  -0.56251  -0.56018  -0.55416  -0.54380
 Alpha  occ. eigenvalues --   -0.54009  -0.53695  -0.52573  -0.52448  -0.52285
 Alpha  occ. eigenvalues --   -0.51974  -0.51646  -0.51328  -0.51229  -0.50982
 Alpha  occ. eigenvalues --   -0.50374  -0.50137  -0.49942  -0.49760  -0.49674
 Alpha  occ. eigenvalues --   -0.49474  -0.49074  -0.48742  -0.48304  -0.48180
 Alpha  occ. eigenvalues --   -0.47724  -0.47693  -0.47538  -0.47436  -0.47304
 Alpha  occ. eigenvalues --   -0.46859  -0.46780  -0.46471  -0.46123  -0.46034
 Alpha  occ. eigenvalues --   -0.45916  -0.45744  -0.45481  -0.45362  -0.44967
 Alpha  occ. eigenvalues --   -0.44721  -0.44366  -0.44342  -0.44299  -0.44054
 Alpha  occ. eigenvalues --   -0.43856  -0.43765  -0.43384  -0.43205  -0.43116
 Alpha  occ. eigenvalues --   -0.42963  -0.42790  -0.42294  -0.42234  -0.41952
 Alpha  occ. eigenvalues --   -0.41738  -0.41671  -0.41512  -0.41237  -0.41023
 Alpha  occ. eigenvalues --   -0.40936  -0.40572  -0.40395  -0.40310  -0.40202
 Alpha  occ. eigenvalues --   -0.40022  -0.39800  -0.39708  -0.39519  -0.39226
 Alpha  occ. eigenvalues --   -0.39086  -0.38924  -0.38796  -0.38603  -0.38541
 Alpha  occ. eigenvalues --   -0.38358  -0.38173  -0.37911  -0.37846  -0.37677
 Alpha  occ. eigenvalues --   -0.37173  -0.37022  -0.36447  -0.35896  -0.35525
 Alpha  occ. eigenvalues --   -0.35216  -0.35146  -0.35060  -0.34824  -0.34503
 Alpha  occ. eigenvalues --   -0.34232  -0.33989  -0.33919  -0.33640  -0.33156
 Alpha  occ. eigenvalues --   -0.33020  -0.32756  -0.32399  -0.31811  -0.31793
 Alpha  occ. eigenvalues --   -0.31314  -0.31003  -0.30823  -0.29904  -0.29613
 Alpha  occ. eigenvalues --   -0.29366  -0.28942  -0.28369  -0.28312  -0.28101
 Alpha  occ. eigenvalues --   -0.27450  -0.27132  -0.22999  -0.21082
 Alpha virt. eigenvalues --   -0.08577  -0.06607  -0.01421  -0.00489   0.00247
 Alpha virt. eigenvalues --    0.01329   0.03202   0.03885   0.04228   0.04528
 Alpha virt. eigenvalues --    0.05153   0.05610   0.07401   0.08446   0.09215

 Mulliken charges:
               1
     1  Mg   0.832293
     2  C    0.049649
     3  C   -0.173025
     4  C   -0.113205
     5  C   -0.177589
     6  N   -0.621302
     7  C    0.302542
     8  C   -0.173445
     9  C   -0.153093
    10  C    0.332671
    11  C   -0.298060
    12  C   -0.132880
    13  C   -0.284796
    14  C    0.622429
    15  O   -0.490168
    16  O   -0.448444
    17  N   -0.668829
    18  C    0.260866
    19  C    0.018564
    20  C   -0.025785
    21  C    0.246839
    22  C   -0.364057
    23  C    0.261739
    24  O   -0.422221
    25  N   -0.694994
    26  C    0.288979
    27  C    0.062361
    28  C    0.001896
    29  C    0.283719
    30  C    0.226721
    31  C   -0.237205
    32  C   -0.300681
    33  N   -0.746532
    34  C    0.309281
    35  C    0.042983
    36  C   -0.014730
    37  C    0.321673
    38  C   -0.407664
    39  C    0.385785
    40  O   -0.426874
    41  C   -0.304702
    42  C    0.646638
    43  O   -0.496287
    44  O   -0.440538
    45  C   -0.090885
    46  C   -0.001764
    47  C   -0.134290
    48  C    0.108993
    49  C   -0.385757
    50  C   -0.208666
    51  C   -0.161066
    52  C   -0.145813
    53  C   -0.058026
    54  C   -0.315332
    55  C   -0.155856
    56  C   -0.176245
    57  C   -0.144192
    58  C   -0.051177
    59  C   -0.319846
    60  C   -0.170677
    61  C   -0.168301
    62  C   -0.175837
    63  C   -0.049113
    64  C   -0.302638
    65  C   -0.266345
    66  H    0.081896
    67  H    0.106577
    68  H    0.075476
    69  H    0.128737
    70  H    0.104855
    71  H    0.098772
    72  H    0.093448
    73  H    0.139192
    74  H    0.083830
    75  H    0.129065
    76  H    0.125277
    77  H    0.131143
    78  H    0.130003
    79  H    0.157403
    80  H    0.127231
    81  H    0.072835
    82  H    0.117011
    83  H    0.102712
    84  H    0.097699
    85  H    0.119582
    86  H    0.124842
    87  H    0.134850
    88  H    0.138940
    89  H    0.128471
    90  H    0.165365
    91  H    0.115140
    92  H    0.135799
    93  H    0.078043
    94  H    0.143216
    95  H    0.103912
    96  H    0.132932
    97  H    0.111910
    98  H    0.086291
    99  H    0.109374
   100  H    0.081144
   101  H    0.068169
   102  H    0.065761
   103  H    0.092868
   104  H    0.107638
   105  H    0.100427
   106  H    0.092659
   107  H    0.102260
   108  H    0.087709
   109  H    0.067324
   110  H    0.053344
   111  H    0.103016
   112  H    0.068361
   113  H    0.064763
   114  H    0.108770
   115  H    0.105474
   116  H    0.112482
   117  H    0.036012
   118  H    0.091946
   119  H    0.094940
   120  H    0.100890
   121  H    0.082053
   122  H    0.089810
   123  H    0.068823
   124  H    0.094419
   125  H    0.064510
   126  H    0.116787
   127  H    0.094705
   128  H    0.101838
   129  H    0.073270
   130  H    0.111510
   131  H    0.145497
   132  H    0.134120
   133  O   -0.462338
   134  H    0.039525
 Sum of Mulliken charges =   0.00000

 Dipole moment (field-independent basis, Debye):
    X=              3.1389    Y=             -7.5564    Z=             -0.5852  Tot=              8.2033
 Quadrupole moment (field-independent basis, Debye-Ang):
   XX=           -373.4818   YY=           -445.7082   ZZ=           -394.0864
   XY=             19.7711   XZ=             24.0608   YZ=            -30.6600

 Normal termination of Gaussian 09 at Tue Oct  8 13:54:00 2019.
