 Gaussian 09, Revision D.01,
 Gaussian 09:  ES64L-G09RevD.01 24-Apr-2013

 ----------------------------------------------------------------------
 # td=(NStates=1) iop(3/107=0140000000,3/108=0140000000) iop(3/107=0140
 000000,3/108=0140000000) CAM-B3LYP/6-31G(d,p)
 ----------------------------------------------------------------------

 --
 TD
 --
 Symbolic Z-matrix:
 Charge =  0 Multiplicity = 1

                         Standard orientation:
 ---------------------------------------------------------------------
 Center     Atomic      Atomic             Coordinates (Angstroms)
 Number     Number       Type             X           Y           Z
 ---------------------------------------------------------------------
      1         12           0       -5.666245    1.289663    0.227047
      2          6           0       -5.147695   -2.178017   -0.362624
      3          6           0       -3.427288    1.037580    2.726438
      4          6           0       -6.265034    4.566929    0.759962
      5          6           0       -7.930902    1.269777   -2.374037
      6          7           0       -4.352065   -0.235988    0.989969
      7          6           0       -4.348818   -1.624159    0.637370
      8          6           0       -3.220041   -2.381527    1.456948
      9          6           0       -3.007409   -1.350463    2.654155
     10          6           0       -3.617598   -0.131573    2.157566
     11          6           0       -3.554927   -1.795087    4.033631
     12          6           0       -2.045368   -2.643463    0.684276
     13          6           0       -0.986112   -3.588997    1.442328
     14          6           0        0.145486   -3.971075    0.579164
     15          8           0        0.338962   -3.465441   -0.492964
     16          8           0        1.054187   -4.746373    1.252668
     17          7           0       -4.910177    2.594135    1.495170
     18          6           0       -3.899670    2.313996    2.413363
     19          6           0       -3.574885    3.590262    3.132728
     20          6           0       -4.578745    4.540286    2.659126
     21          6           0       -5.307678    3.928594    1.574479
     22          6           0       -2.711041    3.844847    4.284992
     23          6           0       -4.630187    5.867170    3.108026
     24          8           0       -4.051703    6.489334    3.967201
     25          7           0       -6.926159    2.621927   -0.679986
     26          6           0       -6.925761    3.940452   -0.373794
     27          6           0       -7.951414    4.648875   -1.257956
     28          6           0       -8.322701    3.676041   -2.161196
     29          6           0       -7.734065    2.432973   -1.800700
     30          6           0       -8.239154    6.059763   -1.178801
     31          6           0       -9.254487    3.936529   -3.314883
     32          6           0       -8.580904    4.079765   -4.614328
     33          7           0       -6.403036   -0.062293   -1.048827
     34          6           0       -7.404946    0.013348   -2.046745
     35          6           0       -7.553153   -1.322524   -2.647809
     36          6           0       -6.682166   -2.162226   -2.112991
     37          6           0       -6.018829   -1.432175   -1.155716
     38          6           0       -8.512722   -1.635785   -3.837026
     39          6           0       -6.264997   -3.597014   -2.041144
     40          8           0       -6.606965   -4.571011   -2.649768
     41          6           0       -5.105105   -3.638002   -0.969390
     42          6           0       -5.389287   -4.642862    0.086517
     43          8           0       -5.886227   -4.466174    1.137871
     44          8           0       -5.029087   -5.876874   -0.389175
     45          6           0       -5.413971   -6.846718    0.491387
     46          6           0        2.329138   -5.045822    0.586596
     47          6           0        3.473236   -4.092863    1.036041
     48          6           0        4.079075   -3.257042    0.276226
     49          6           0        3.696706   -2.978518   -1.189671
     50          6           0        5.207228   -2.417872    0.788519
     51          6           0        6.512879   -2.614802    0.137728
     52          6           0        7.744522   -1.722907    0.748550
     53          6           0        9.055533   -1.967897   -0.062358
     54          6           0        9.661995   -3.371438    0.149075
     55          6           0       10.151601   -0.857940    0.254960
     56          6           0       11.350171   -0.893734   -0.469756
     57          6           0       12.296977    0.216807    0.157233
     58          6           0       13.578453    0.446191   -0.554575
     59          6           0       14.493527   -0.875935   -0.543642
     60          6           0       14.312875    1.737045   -0.062137
     61          6           0       15.465402    2.122495   -1.047099
     62          6           0       16.030223    3.578594   -0.545295
     63          6           0       17.376293    3.903522   -1.366607
     64          6           0       16.977627    4.155734   -2.828223
     65          6           0       17.904483    5.104296   -0.680063
     66          1           0       -2.577629    1.025316    3.434284
     67          1           0       -6.500335    5.576161    0.918842
     68          1           0       -8.577389    1.135666   -3.110917
     69          1           0       -3.712963   -3.289006    1.910086
     70          1           0       -1.935054   -1.077339    2.752361
     71          1           0       -2.978734   -2.600324    4.484902
     72          1           0       -3.405073   -1.002314    4.742667
     73          1           0       -4.670643   -2.042675    3.934237
     74          1           0       -2.450580   -3.031380   -0.369954
     75          1           0       -1.521977   -1.821299    0.388254
     76          1           0       -0.775514   -2.983908    2.349793
     77          1           0       -1.583733   -4.375685    1.829763
     78          1           0       -1.652263    3.416117    4.049401
     79          1           0       -2.794506    4.799487    4.621307
     80          1           0       -3.085221    3.092827    5.073105
     81          1           0       -5.405249    6.310908    2.459338
     82          1           0      -10.024544    3.098026   -3.356583
     83          1           0      -10.176708    4.609081   -3.107737
     84          1           0       -9.205131    4.326317   -5.570005
     85          1           0       -7.773789    4.851089   -4.538456
     86          1           0       -7.819282    3.173843   -4.729667
     87          1           0       -8.339027   -0.781479   -4.656667
     88          1           0       -8.468515   -2.718010   -4.088322
     89          1           0       -9.455365   -1.473168   -3.483401
     90          1           0       -4.215993   -3.934910   -1.499695
     91          1           0        2.424592   -6.292527    0.786348
     92          1           0        2.256197   -5.041024   -0.465040
     93          1           0        3.857305   -4.388436    1.956970
     94          1           0        2.604222   -3.053518   -1.502231
     95          1           0        3.696850   -1.956102   -1.519855
     96          1           0        4.427308   -3.573095   -1.774945
     97          1           0        5.015129   -1.326613    0.548214
     98          1           0        5.155902   -2.535708    1.922053
     99          1           0        6.776091   -3.738586    0.089013
    100          1           0        6.426769   -2.408506   -0.963108
    101          1           0        7.183356   -0.688296    0.845670
    102          1           0        7.843564   -2.004116    1.770884
    103          1           0        8.775663   -1.739392   -1.176543
    104          1           0        9.045996   -4.214964   -0.353786
    105          1           0       10.697346   -3.510678   -0.229231
    106          1           0        9.732403   -3.563207    1.202607
    107          1           0        9.622730    0.210330    0.073438
    108          1           0       10.168298   -0.978624    1.372743
    109          1           0       11.977722   -1.871612   -0.506485
    110          1           0       11.342693   -0.572312   -1.477437
    111          1           0       11.718596    1.163771    0.053429
    112          1           0       12.504545   -0.001773    1.207021
    113          1           0       13.094621    0.559288   -1.625610
    114          1           0       14.613778   -1.182151    0.338522
    115          1           0       14.018264   -1.579223   -0.817360
    116          1           0       15.392025   -0.583905   -1.277338
    117          1           0       13.536065    2.552989    0.075113
    118          1           0       14.795198    1.704826    0.991885
    119          1           0       16.343385    1.263727   -1.287807
    120          1           0       15.108591    2.061267   -2.104839
    121          1           0       15.269412    4.228003   -0.764265
    122          1           0       16.405631    3.455380    0.421932
    123          1           0       17.911666    2.925813   -1.230888
    124          1           0       16.090316    4.667381   -3.077954
    125          1           0       17.984954    4.298741   -3.365775
    126          1           0       16.838010    3.054323   -3.238251
    127          1           0       17.574619    5.055753    0.431509
    128          1           0       18.964927    5.649086   -1.013656
    129          1           0       17.310392    6.022846   -0.969492
    130          1           0       -4.947083   -7.824856    0.221462
    131          1           0       -6.392403   -6.660838    0.491588
    132          1           0       -5.034779   -6.334955    1.510097
    133          8           0       -7.724862    6.916557   -0.424110
    134          1           0       -9.063300    6.486990   -1.751068
 ---------------------------------------------------------------------

 SCF Done:  E(RCAM-B3LYP) =  -3043.43418255     A.U. after   16 cycles

 Excitation energies and oscillator strengths:

 Excited State   1:      Singlet-A      1.9791 eV  626.45 nm  f=0.1805  <S**2>=0.000
     243 -> 246        0.24438
     244 -> 245        0.65718
 This state for optimization and/or second-order correction.
 Total Energy, E(TD-HF/TD-KS) =  -3043.36145025
 Copying the excited state density for this state as the 1-particle RhoCI density.

 The electronic state is 1-A.
 Alpha  occ. eigenvalues --  -46.80485 -19.22024 -19.21946 -19.18662 -19.18626
 Alpha  occ. eigenvalues --  -19.17556 -19.16747 -19.16405 -14.39071 -14.37400
 Alpha  occ. eigenvalues --  -14.37266 -14.36724 -10.35218 -10.35059 -10.32896
 Alpha  occ. eigenvalues --  -10.30141 -10.28643 -10.28626 -10.28010 -10.27873
 Alpha  occ. eigenvalues --  -10.27519 -10.27180 -10.26608 -10.26298 -10.26097
 Alpha  occ. eigenvalues --  -10.25820 -10.25743 -10.25740 -10.25261 -10.25220
 Alpha  occ. eigenvalues --  -10.25121 -10.24492 -10.24453 -10.24417 -10.24275
 Alpha  occ. eigenvalues --  -10.23985 -10.23902 -10.23670 -10.23666 -10.23241
 Alpha  occ. eigenvalues --  -10.23232 -10.23029 -10.23020 -10.22937 -10.22849
 Alpha  occ. eigenvalues --  -10.22589 -10.22578 -10.22572 -10.22411 -10.22405
 Alpha  occ. eigenvalues --  -10.22180 -10.22169 -10.22159 -10.22149 -10.22031
 Alpha  occ. eigenvalues --  -10.21879 -10.21711 -10.21695 -10.21307 -10.21269
 Alpha  occ. eigenvalues --  -10.20976 -10.20948 -10.20831 -10.20366 -10.20112
 Alpha  occ. eigenvalues --  -10.17723  -3.09282  -1.84204  -1.83767  -1.83700
 Alpha  occ. eigenvalues --   -1.16149  -1.12731  -1.09322  -1.07794  -1.06447
 Alpha  occ. eigenvalues --   -1.04984  -1.04781  -1.00084  -0.99062  -0.98557
 Alpha  occ. eigenvalues --   -0.97607  -0.88897  -0.86705  -0.86255  -0.86077
 Alpha  occ. eigenvalues --   -0.85667  -0.85303  -0.84419  -0.83885  -0.83356
 Alpha  occ. eigenvalues --   -0.83149  -0.82858  -0.82219  -0.80706  -0.79985
 Alpha  occ. eigenvalues --   -0.79238  -0.78720  -0.77971  -0.77381  -0.76388
 Alpha  occ. eigenvalues --   -0.75978  -0.75586  -0.73945  -0.73043  -0.72457
 Alpha  occ. eigenvalues --   -0.72292  -0.71470  -0.70717  -0.70402  -0.70006
 Alpha  occ. eigenvalues --   -0.69304  -0.68748  -0.67980  -0.66998  -0.66284
 Alpha  occ. eigenvalues --   -0.66095  -0.64747  -0.64534  -0.62473  -0.62194
 Alpha  occ. eigenvalues --   -0.61669  -0.60910  -0.60398  -0.59562  -0.59291
 Alpha  occ. eigenvalues --   -0.59089  -0.58653  -0.58103  -0.57420  -0.56981
 Alpha  occ. eigenvalues --   -0.56834  -0.56325  -0.56146  -0.55554  -0.55057
 Alpha  occ. eigenvalues --   -0.54741  -0.54389  -0.53804  -0.52838  -0.52484
 Alpha  occ. eigenvalues --   -0.51992  -0.51775  -0.51289  -0.50824  -0.50686
 Alpha  occ. eigenvalues --   -0.50469  -0.50294  -0.49916  -0.49762  -0.49426
 Alpha  occ. eigenvalues --   -0.48967  -0.48708  -0.48561  -0.48284  -0.48057
 Alpha  occ. eigenvalues --   -0.47552  -0.47223  -0.47168  -0.46974  -0.46830
 Alpha  occ. eigenvalues --   -0.46741  -0.46587  -0.46523  -0.46131  -0.45857
 Alpha  occ. eigenvalues --   -0.45793  -0.45653  -0.45289  -0.45008  -0.44886
 Alpha  occ. eigenvalues --   -0.44718  -0.44640  -0.44501  -0.44409  -0.44060
 Alpha  occ. eigenvalues --   -0.43831  -0.43591  -0.43410  -0.43248  -0.43051
 Alpha  occ. eigenvalues --   -0.42964  -0.42820  -0.42692  -0.42502  -0.42195
 Alpha  occ. eigenvalues --   -0.42159  -0.41830  -0.41769  -0.41593  -0.41443
 Alpha  occ. eigenvalues --   -0.41170  -0.40702  -0.40572  -0.40426  -0.40397
 Alpha  occ. eigenvalues --   -0.40271  -0.39934  -0.39885  -0.39665  -0.39409
 Alpha  occ. eigenvalues --   -0.39249  -0.39020  -0.38657  -0.38646  -0.38323
 Alpha  occ. eigenvalues --   -0.38089  -0.37811  -0.37756  -0.37476  -0.37175
 Alpha  occ. eigenvalues --   -0.36586  -0.36101  -0.35959  -0.35619  -0.35310
 Alpha  occ. eigenvalues --   -0.34989  -0.34710  -0.34511  -0.34409  -0.33954
 Alpha  occ. eigenvalues --   -0.33901  -0.33575  -0.33523  -0.33446  -0.33134
 Alpha  occ. eigenvalues --   -0.33043  -0.32633  -0.32531  -0.32195  -0.31974
 Alpha  occ. eigenvalues --   -0.31728  -0.31213  -0.31092  -0.30614  -0.29420
 Alpha  occ. eigenvalues --   -0.29311  -0.29046  -0.28798  -0.28621  -0.27663
 Alpha  occ. eigenvalues --   -0.27417  -0.26819  -0.23458  -0.21726
 Alpha virt. eigenvalues --   -0.08910  -0.06881  -0.01858  -0.01014  -0.00002
 Alpha virt. eigenvalues --    0.02485   0.03157   0.03836   0.04031   0.04402
 Alpha virt. eigenvalues --    0.04559   0.05981   0.07899   0.08197   0.09736

 Mulliken charges:
               1
     1  Mg   0.817977
     2  C    0.050279
     3  C   -0.206489
     4  C   -0.156504
     5  C   -0.157188
     6  N   -0.615409
     7  C    0.244752
     8  C   -0.146956
     9  C   -0.170000
    10  C    0.406472
    11  C   -0.312220
    12  C   -0.151542
    13  C   -0.284177
    14  C    0.616525
    15  O   -0.448047
    16  O   -0.473806
    17  N   -0.743623
    18  C    0.321392
    19  C    0.035455
    20  C   -0.032583
    21  C    0.340958
    22  C   -0.375773
    23  C    0.251545
    24  O   -0.440259
    25  N   -0.697074
    26  C    0.281378
    27  C   -0.006268
    28  C    0.020787
    29  C    0.354596
    30  C    0.227644
    31  C   -0.236664
    32  C   -0.305402
    33  N   -0.705755
    34  C    0.272789
    35  C   -0.064823
    36  C    0.107788
    37  C    0.239988
    38  C   -0.371763
    39  C    0.384805
    40  O   -0.429964
    41  C   -0.319576
    42  C    0.632374
    43  O   -0.452298
    44  O   -0.444561
    45  C   -0.072702
    46  C   -0.004068
    47  C   -0.136451
    48  C    0.166214
    49  C   -0.395046
    50  C   -0.220306
    51  C   -0.183474
    52  C   -0.173210
    53  C   -0.059236
    54  C   -0.316524
    55  C   -0.150902
    56  C   -0.169218
    57  C   -0.184974
    58  C   -0.061374
    59  C   -0.273159
    60  C   -0.160358
    61  C   -0.190902
    62  C   -0.184024
    63  C   -0.040070
    64  C   -0.305263
    65  C   -0.296649
    66  H    0.076329
    67  H    0.141242
    68  H    0.068316
    69  H    0.115653
    70  H    0.105370
    71  H    0.116063
    72  H    0.117738
    73  H    0.125204
    74  H    0.091040
    75  H    0.128857
    76  H    0.140165
    77  H    0.137145
    78  H    0.112201
    79  H    0.168535
    80  H    0.125136
    81  H    0.047897
    82  H    0.100899
    83  H    0.108494
    84  H    0.112038
    85  H    0.117287
    86  H    0.096034
    87  H    0.113051
    88  H    0.143727
    89  H    0.141988
    90  H    0.169408
    91  H    0.083245
    92  H    0.137095
    93  H    0.086112
    94  H    0.141933
    95  H    0.113607
    96  H    0.121977
    97  H    0.096702
    98  H    0.088481
    99  H    0.079373
   100  H    0.096031
   101  H    0.079014
   102  H    0.100692
   103  H    0.069203
   104  H    0.097951
   105  H    0.106503
   106  H    0.109179
   107  H    0.072565
   108  H    0.086553
   109  H    0.082270
   110  H    0.102412
   111  H    0.081206
   112  H    0.084759
   113  H    0.056455
   114  H    0.102377
   115  H    0.096682
   116  H    0.084850
   117  H    0.085980
   118  H    0.084263
   119  H    0.057705
   120  H    0.095575
   121  H    0.110039
   122  H    0.105269
   123  H    0.091827
   124  H    0.117643
   125  H    0.096461
   126  H    0.079406
   127  H    0.089074
   128  H    0.074370
   129  H    0.096729
   130  H    0.120916
   131  H    0.133206
   132  H    0.098439
   133  O   -0.435026
   134  H    0.073995
 Sum of Mulliken charges =   0.00000

 Dipole moment (field-independent basis, Debye):
    X=              1.8552    Y=             -5.3917    Z=             -1.2983  Tot=              5.8478
 Quadrupole moment (field-independent basis, Debye-Ang):
   XX=           -388.2920   YY=           -451.7227   ZZ=           -394.2435
   XY=              7.7381   XZ=             23.7510   YZ=            -35.6505

 Normal termination of Gaussian 09 at Tue Oct  8 06:15:11 2019.
