 Gaussian 09, Revision D.01,
 Gaussian 09:  ES64L-G09RevD.01 24-Apr-2013

 ----------------------------------------------------------------------
 # td=(NStates=1) iop(3/107=0140000000,3/108=0140000000) iop(3/107=0140
 000000,3/108=0140000000) CAM-B3LYP/6-31G(d,p)
 ----------------------------------------------------------------------

 --
 TD
 --
 Symbolic Z-matrix:
 Charge =  0 Multiplicity = 1

                         Standard orientation:
 ---------------------------------------------------------------------
 Center     Atomic      Atomic             Coordinates (Angstroms)
 Number     Number       Type             X           Y           Z
 ---------------------------------------------------------------------
      1         12           0       -5.550610    1.215407    0.193150
      2          6           0       -4.927053   -2.075452   -0.432297
      3          6           0       -3.440912    1.167559    2.775251
      4          6           0       -6.135576    4.518682    0.579717
      5          6           0       -7.979076    1.221141   -2.374841
      6          7           0       -4.420565   -0.340068    1.073139
      7          6           0       -4.243426   -1.625823    0.682870
      8          6           0       -3.234617   -2.373663    1.515846
      9          6           0       -2.950757   -1.329834    2.631527
     10          6           0       -3.578576   -0.093906    2.077667
     11          6           0       -3.574627   -1.657188    3.972157
     12          6           0       -1.989968   -2.726482    0.691995
     13          6           0       -0.973116   -3.647188    1.507997
     14          6           0        0.262542   -3.899029    0.665297
     15          8           0        0.562607   -3.353794   -0.412344
     16          8           0        1.058713   -4.844129    1.328387
     17          7           0       -4.805948    2.654300    1.344986
     18          6           0       -3.972513    2.424300    2.473113
     19          6           0       -3.683675    3.572721    3.215082
     20          6           0       -4.471859    4.533624    2.583217
     21          6           0       -5.231380    3.840294    1.519398
     22          6           0       -2.800379    3.894972    4.428534
     23          6           0       -4.601399    5.907113    3.012702
     24          8           0       -3.957899    6.556986    3.805444
     25          7           0       -6.889921    2.604537   -0.670400
     26          6           0       -6.952379    3.916675   -0.300620
     27          6           0       -7.835796    4.678108   -1.235479
     28          6           0       -8.451620    3.673515   -2.017379
     29          6           0       -7.874635    2.417191   -1.707725
     30          6           0       -8.230516    6.062086   -1.167058
     31          6           0       -9.365435    3.826192   -3.085112
     32          6           0       -8.660306    4.051484   -4.446359
     33          7           0       -6.371857   -0.085517   -1.081351
     34          6           0       -7.387299   -0.023872   -2.119127
     35          6           0       -7.480318   -1.399499   -2.679638
     36          6           0       -6.664054   -2.173849   -2.125652
     37          6           0       -5.872353   -1.362858   -1.164919
     38          6           0       -8.387560   -1.651840   -3.826454
     39          6           0       -6.112964   -3.512289   -2.036864
     40          8           0       -6.530463   -4.500984   -2.704181
     41          6           0       -5.018335   -3.544999   -0.933136
     42          6           0       -5.286750   -4.630066    0.000305
     43          8           0       -5.642023   -4.437155    1.141859
     44          8           0       -4.875106   -5.760239   -0.524241
     45          6           0       -5.055176   -6.842192    0.353370
     46          6           0        2.247800   -5.176269    0.616550
     47          6           0        3.449894   -4.290901    1.038544
     48          6           0        4.033902   -3.378511    0.227185
     49          6           0        3.713607   -3.240233   -1.197396
     50          6           0        5.047090   -2.456029    0.750318
     51          6           0        6.430029   -2.753638    0.164893
     52          6           0        7.513085   -1.742504    0.575349
     53          6           0        8.886732   -1.977807   -0.082698
     54          6           0        9.383651   -3.449786    0.214566
     55          6           0        9.932573   -0.963508    0.486402
     56          6           0       11.230777   -0.772686   -0.372987
     57          6           0       12.120296    0.288998    0.294064
     58          6           0       13.428567    0.531880   -0.529639
     59          6           0       14.426506   -0.675553   -0.337546
     60          6           0       14.178532    1.795322   -0.117943
     61          6           0       15.315331    2.199344   -1.049030
     62          6           0       16.031169    3.624826   -0.612234
     63          6           0       17.307608    3.932038   -1.376684
     64          6           0       17.061302    3.993535   -2.905781
     65          6           0       17.803270    5.346132   -0.956483
     66          1           0       -2.706913    1.156877    3.602299
     67          1           0       -6.569452    5.714279    0.559078
     68          1           0       -8.596847    1.264924   -3.119213
     69          1           0       -3.824473   -3.215771    1.816226
     70          1           0       -1.732412   -1.351675    2.698980
     71          1           0       -2.925220   -2.540692    4.304922
     72          1           0       -3.648298   -0.940897    4.593185
     73          1           0       -4.607079   -2.100648    3.834968
     74          1           0       -2.332311   -3.330860   -0.305200
     75          1           0       -1.553650   -1.704296    0.232530
     76          1           0       -0.513675   -3.218595    2.399923
     77          1           0       -1.449862   -4.621520    1.668046
     78          1           0       -1.762899    3.454572    4.150835
     79          1           0       -2.821111    4.869297    4.628834
     80          1           0       -2.994077    3.054730    5.181682
     81          1           0       -5.282712    6.537703    2.230291
     82          1           0      -10.032172    3.043457   -3.336688
     83          1           0       -9.974147    4.793868   -2.793259
     84          1           0       -9.432488    4.392320   -5.277031
     85          1           0       -8.090340    4.859535   -4.291720
     86          1           0       -8.193385    3.127933   -4.961883
     87          1           0       -8.077161   -0.956453   -4.469496
     88          1           0       -8.254287   -2.893663   -4.246584
     89          1           0       -9.387585   -1.489186   -3.569344
     90          1           0       -4.118538   -3.840781   -1.569720
     91          1           0        2.603789   -6.205225    1.119503
     92          1           0        2.061110   -5.092546   -0.516305
     93          1           0        3.366708   -4.354397    2.165462
     94          1           0        2.812107   -3.556338   -1.310637
     95          1           0        4.040608   -2.268653   -1.595024
     96          1           0        4.595659   -3.610160   -1.801628
     97          1           0        4.787874   -1.503343    0.492589
     98          1           0        5.196037   -2.585565    1.865989
     99          1           0        6.670923   -3.608187    0.353509
    100          1           0        6.366040   -2.866000   -0.861048
    101          1           0        7.292836   -0.653606    0.216449
    102          1           0        7.745785   -1.727649    1.527795
    103          1           0        8.662523   -1.901685   -1.307921
    104          1           0        8.793059   -4.152359   -0.526439
    105          1           0       10.610559   -3.310071   -0.070210
    106          1           0        9.395360   -3.842690    1.247811
    107          1           0        9.298104   -0.104087    0.454406
    108          1           0       10.048997   -1.226358    1.451192
    109          1           0       11.919707   -1.794110   -0.243030
    110          1           0       10.885749   -0.490577   -1.416060
    111          1           0       11.667371    1.232789    0.209885
    112          1           0       12.339547   -0.082889    1.338677
    113          1           0       13.097368    0.547985   -1.717550
    114          1           0       14.734513   -0.438417    0.787514
    115          1           0       13.872546   -1.717765   -0.495991
    116          1           0       15.223003   -0.726409   -0.902907
    117          1           0       13.574530    2.735870   -0.199627
    118          1           0       14.768607    1.666627    0.737899
    119          1           0       16.116874    1.422785   -0.951394
    120          1           0       15.163606    2.218807   -2.207735
    121          1           0       15.387178    4.418512   -0.824359
    122          1           0       15.978241    3.721761    0.409417
    123          1           0       18.081995    3.267281   -1.152938
    124          1           0       16.331681    4.894994   -3.073153
    125          1           0       18.145881    4.139384   -3.402082
    126          1           0       16.340146    3.158861   -3.355985
    127          1           0       17.822169    5.361810    0.156637
    128          1           0       18.772025    5.528060   -1.498599
    129          1           0       16.873104    6.064787   -1.147694
    130          1           0       -4.954004   -7.696781   -0.257591
    131          1           0       -6.101500   -6.787124    0.860517
    132          1           0       -4.394991   -6.818111    1.195832
    133          8           0       -7.893993    6.864105   -0.406529
    134          1           0       -9.140785    6.238712   -1.703407
 ---------------------------------------------------------------------

 SCF Done:  E(RCAM-B3LYP) =  -3043.35625197     A.U. after   16 cycles

 Excitation energies and oscillator strengths:

 Excited State   1:      Singlet-A      1.9266 eV  643.52 nm  f=0.1990  <S**2>=0.000
     243 -> 246        0.23770
     244 -> 245        0.66126
 This state for optimization and/or second-order correction.
 Total Energy, E(TD-HF/TD-KS) =  -3043.28544913
 Copying the excited state density for this state as the 1-particle RhoCI density.

 The electronic state is 1-A.
 Alpha  occ. eigenvalues --  -46.81427 -19.24572 -19.23026 -19.18748 -19.18215
 Alpha  occ. eigenvalues --  -19.17597 -19.17523 -19.16512 -14.39616 -14.37245
 Alpha  occ. eigenvalues --  -14.37071 -14.36121 -10.36318 -10.35829 -10.32257
 Alpha  occ. eigenvalues --  -10.29671 -10.29570 -10.28322 -10.27782 -10.27780
 Alpha  occ. eigenvalues --  -10.27531 -10.27038 -10.26881 -10.26429 -10.26410
 Alpha  occ. eigenvalues --  -10.26213 -10.25766 -10.25722 -10.25641 -10.25401
 Alpha  occ. eigenvalues --  -10.25232 -10.24437 -10.24374 -10.24350 -10.24154
 Alpha  occ. eigenvalues --  -10.23965 -10.23753 -10.23489 -10.23386 -10.23088
 Alpha  occ. eigenvalues --  -10.23060 -10.22925 -10.22872 -10.22778 -10.22638
 Alpha  occ. eigenvalues --  -10.22625 -10.22566 -10.22558 -10.22441 -10.22377
 Alpha  occ. eigenvalues --  -10.22342 -10.21908 -10.21824 -10.21524 -10.21449
 Alpha  occ. eigenvalues --  -10.21267 -10.21146 -10.20851 -10.20842 -10.20591
 Alpha  occ. eigenvalues --  -10.20391 -10.20253 -10.19997 -10.19929 -10.19763
 Alpha  occ. eigenvalues --  -10.18706  -3.10099  -1.85027  -1.84567  -1.84524
 Alpha  occ. eigenvalues --   -1.17131  -1.12531  -1.11099  -1.07017  -1.06402
 Alpha  occ. eigenvalues --   -1.05106  -1.04730  -1.02240  -1.01574  -0.98671
 Alpha  occ. eigenvalues --   -0.97439  -0.88836  -0.87056  -0.86661  -0.86268
 Alpha  occ. eigenvalues --   -0.85438  -0.85072  -0.84951  -0.84208  -0.83752
 Alpha  occ. eigenvalues --   -0.83499  -0.83089  -0.82089  -0.81029  -0.80288
 Alpha  occ. eigenvalues --   -0.79276  -0.78404  -0.77942  -0.77803  -0.76665
 Alpha  occ. eigenvalues --   -0.75184  -0.74868  -0.74539  -0.73970  -0.72972
 Alpha  occ. eigenvalues --   -0.71718  -0.70562  -0.70147  -0.70042  -0.69821
 Alpha  occ. eigenvalues --   -0.69313  -0.69064  -0.67618  -0.66904  -0.66697
 Alpha  occ. eigenvalues --   -0.65960  -0.65034  -0.64720  -0.63530  -0.62281
 Alpha  occ. eigenvalues --   -0.62060  -0.61382  -0.60138  -0.59853  -0.59148
 Alpha  occ. eigenvalues --   -0.58690  -0.58233  -0.57817  -0.57436  -0.56939
 Alpha  occ. eigenvalues --   -0.56762  -0.56397  -0.56263  -0.55962  -0.54834
 Alpha  occ. eigenvalues --   -0.54589  -0.53969  -0.53765  -0.53113  -0.52932
 Alpha  occ. eigenvalues --   -0.52832  -0.52391  -0.51828  -0.51542  -0.51471
 Alpha  occ. eigenvalues --   -0.50909  -0.50849  -0.49942  -0.49813  -0.49630
 Alpha  occ. eigenvalues --   -0.49511  -0.49249  -0.48657  -0.48374  -0.48093
 Alpha  occ. eigenvalues --   -0.47857  -0.47673  -0.47417  -0.47304  -0.47112
 Alpha  occ. eigenvalues --   -0.46766  -0.46549  -0.46463  -0.46113  -0.46040
 Alpha  occ. eigenvalues --   -0.45720  -0.45706  -0.45479  -0.45347  -0.45239
 Alpha  occ. eigenvalues --   -0.45065  -0.44817  -0.44346  -0.44214  -0.44171
 Alpha  occ. eigenvalues --   -0.43880  -0.43511  -0.43219  -0.43022  -0.42815
 Alpha  occ. eigenvalues --   -0.42737  -0.42273  -0.42136  -0.41921  -0.41788
 Alpha  occ. eigenvalues --   -0.41652  -0.41401  -0.41180  -0.41156  -0.40946
 Alpha  occ. eigenvalues --   -0.40812  -0.40549  -0.40363  -0.40342  -0.40316
 Alpha  occ. eigenvalues --   -0.39940  -0.39696  -0.39606  -0.39376  -0.39241
 Alpha  occ. eigenvalues --   -0.38976  -0.38923  -0.38792  -0.38762  -0.38320
 Alpha  occ. eigenvalues --   -0.38117  -0.37781  -0.37464  -0.37400  -0.37198
 Alpha  occ. eigenvalues --   -0.37119  -0.36872  -0.36674  -0.36228  -0.35896
 Alpha  occ. eigenvalues --   -0.35649  -0.35598  -0.35247  -0.35068  -0.34749
 Alpha  occ. eigenvalues --   -0.34709  -0.34699  -0.34551  -0.34187  -0.33504
 Alpha  occ. eigenvalues --   -0.33246  -0.32500  -0.32309  -0.32114  -0.31971
 Alpha  occ. eigenvalues --   -0.31476  -0.31348  -0.30923  -0.30578  -0.30513
 Alpha  occ. eigenvalues --   -0.29506  -0.28319  -0.28275  -0.28120  -0.27213
 Alpha  occ. eigenvalues --   -0.26491  -0.26199  -0.23186  -0.20928
 Alpha virt. eigenvalues --   -0.08532  -0.06452  -0.02277   0.00157   0.00292
 Alpha virt. eigenvalues --    0.02023   0.02284   0.03506   0.03760   0.04242
 Alpha virt. eigenvalues --    0.04676   0.06171   0.07841   0.08251   0.08571

 Mulliken charges:
               1
     1  Mg   0.818997
     2  C    0.052484
     3  C   -0.211476
     4  C   -0.203046
     5  C   -0.163667
     6  N   -0.614314
     7  C    0.299204
     8  C   -0.139781
     9  C   -0.153368
    10  C    0.338894
    11  C   -0.285870
    12  C   -0.175860
    13  C   -0.254793
    14  C    0.601366
    15  O   -0.468532
    16  O   -0.463031
    17  N   -0.665287
    18  C    0.263840
    19  C    0.089456
    20  C   -0.055875
    21  C    0.308477
    22  C   -0.349639
    23  C    0.226075
    24  O   -0.418440
    25  N   -0.669534
    26  C    0.320354
    27  C   -0.043748
    28  C    0.061084
    29  C    0.293886
    30  C    0.253576
    31  C   -0.284793
    32  C   -0.299486
    33  N   -0.716723
    34  C    0.271400
    35  C   -0.052482
    36  C    0.168190
    37  C    0.265888
    38  C   -0.361969
    39  C    0.334146
    40  O   -0.478228
    41  C   -0.330689
    42  C    0.653187
    43  O   -0.484100
    44  O   -0.407637
    45  C   -0.101530
    46  C   -0.009641
    47  C   -0.157007
    48  C    0.142916
    49  C   -0.346055
    50  C   -0.221739
    51  C   -0.165091
    52  C   -0.154844
    53  C   -0.067357
    54  C   -0.296446
    55  C   -0.169742
    56  C   -0.168872
    57  C   -0.150209
    58  C   -0.053476
    59  C   -0.297521
    60  C   -0.166133
    61  C   -0.197036
    62  C   -0.177974
    63  C   -0.057938
    64  C   -0.283028
    65  C   -0.297268
    66  H    0.080464
    67  H    0.146103
    68  H    0.051209
    69  H    0.136729
    70  H    0.087212
    71  H    0.099034
    72  H    0.123658
    73  H    0.121864
    74  H    0.096579
    75  H    0.118281
    76  H    0.150070
    77  H    0.148860
    78  H    0.113233
    79  H    0.161603
    80  H    0.120181
    81  H    0.044631
    82  H    0.121190
    83  H    0.100622
    84  H    0.090700
    85  H    0.128678
    86  H    0.109573
    87  H    0.136893
    88  H    0.113974
    89  H    0.135046
    90  H    0.167868
    91  H    0.098605
    92  H    0.115260
    93  H    0.084313
    94  H    0.133268
    95  H    0.112213
    96  H    0.110205
    97  H    0.107779
    98  H    0.086279
    99  H    0.106061
   100  H    0.080621
   101  H    0.069713
   102  H    0.098565
   103  H    0.046851
   104  H    0.089870
   105  H    0.064750
   106  H    0.105087
   107  H    0.090339
   108  H    0.100421
   109  H    0.075226
   110  H    0.095893
   111  H    0.098930
   112  H    0.087524
   113  H    0.054703
   114  H    0.078000
   115  H    0.080163
   116  H    0.121187
   117  H    0.088182
   118  H    0.105323
   119  H    0.085445
   120  H    0.074810
   121  H    0.089032
   122  H    0.090192
   123  H    0.096598
   124  H    0.088326
   125  H    0.086892
   126  H    0.088935
   127  H    0.099005
   128  H    0.100201
   129  H    0.083620
   130  H    0.133952
   131  H    0.128852
   132  H    0.128565
   133  O   -0.384652
   134  H    0.048498
 Sum of Mulliken charges =   0.00000

 Dipole moment (field-independent basis, Debye):
    X=              1.8678    Y=             -5.6987    Z=             -0.6338  Tot=              6.0304
 Quadrupole moment (field-independent basis, Debye-Ang):
   XX=           -383.5248   YY=           -447.1957   ZZ=           -394.8710
   XY=             18.5759   XZ=             27.1909   YZ=            -37.0187

 Normal termination of Gaussian 09 at Tue Oct  8 05:47:32 2019.
