 Gaussian 09, Revision D.01,
 Gaussian 09:  ES64L-G09RevD.01 24-Apr-2013

 ----------------------------------------------------------------------
 # td=(NStates=1) iop(3/107=0140000000,3/108=0140000000) iop(3/107=0140
 000000,3/108=0140000000) CAM-B3LYP/6-31G(d,p)
 ----------------------------------------------------------------------

 --
 TD
 --
 Symbolic Z-matrix:
 Charge =  0 Multiplicity = 1

                         Standard orientation:
 ---------------------------------------------------------------------
 Center     Atomic      Atomic             Coordinates (Angstroms)
 Number     Number       Type             X           Y           Z
 ---------------------------------------------------------------------
      1         12           0       -5.563204    1.214537    0.240932
      2          6           0       -5.132396   -2.201820   -0.246683
      3          6           0       -3.354965    1.202028    2.859513
      4          6           0       -6.185809    4.498882    0.668764
      5          6           0       -7.956253    1.183278   -2.347614
      6          7           0       -4.370116   -0.316545    1.113327
      7          6           0       -4.265396   -1.641180    0.800369
      8          6           0       -3.144057   -2.284381    1.563233
      9          6           0       -2.941766   -1.257181    2.736274
     10          6           0       -3.640244   -0.006128    2.202533
     11          6           0       -3.388599   -1.823090    4.098098
     12          6           0       -1.979235   -2.687817    0.669413
     13          6           0       -0.904200   -3.595663    1.456217
     14          6           0        0.217046   -3.941634    0.624275
     15          8           0        0.512646   -3.478124   -0.513984
     16          8           0        1.007576   -4.943865    1.158331
     17          7           0       -5.027867    2.625156    1.558342
     18          6           0       -3.943597    2.439254    2.491019
     19          6           0       -3.583313    3.656323    3.112861
     20          6           0       -4.457974    4.630431    2.506462
     21          6           0       -5.300314    4.011533    1.491918
     22          6           0       -2.530643    3.822433    4.170177
     23          6           0       -4.501049    6.099097    2.802465
     24          8           0       -3.780055    6.614947    3.701834
     25          7           0       -6.883040    2.600163   -0.732077
     26          6           0       -6.953817    3.949736   -0.470274
     27          6           0       -7.898656    4.619751   -1.193567
     28          6           0       -8.412546    3.687211   -2.040824
     29          6           0       -7.750221    2.451418   -1.763040
     30          6           0       -8.304342    6.034760   -1.173505
     31          6           0       -9.487992    3.922788   -3.072566
     32          6           0       -8.971278    4.076503   -4.423474
     33          7           0       -6.284258   -0.098744   -1.120322
     34          6           0       -7.315499    0.001545   -2.090664
     35          6           0       -7.504555   -1.253119   -2.723940
     36          6           0       -6.736127   -2.201978   -2.033162
     37          6           0       -6.076138   -1.418485   -1.036704
     38          6           0       -8.474062   -1.523870   -3.904146
     39          6           0       -6.147981   -3.514056   -2.008489
     40          8           0       -6.469769   -4.517870   -2.645427
     41          6           0       -5.082010   -3.578709   -0.873933
     42          6           0       -5.366960   -4.736397    0.112017
     43          8           0       -5.605219   -4.417722    1.396837
     44          8           0       -5.211550   -5.919634   -0.367280
     45          6           0       -5.359154   -7.054722    0.547398
     46          6           0        2.208700   -5.083907    0.450780
     47          6           0        3.363858   -4.189963    0.836456
     48          6           0        3.957366   -3.301239   -0.029365
     49          6           0        3.634567   -3.292385   -1.416762
     50          6           0        5.047055   -2.426144    0.620677
     51          6           0        6.489766   -2.655735    0.076376
     52          6           0        7.685737   -1.676883    0.584369
     53          6           0        9.034301   -2.015859   -0.102575
     54          6           0        9.643201   -3.432376    0.242965
     55          6           0        9.990589   -0.953629    0.325378
     56          6           0       11.310911   -0.850462   -0.394070
     57          6           0       12.247196    0.210579    0.177203
     58          6           0       13.636690    0.398937   -0.547472
     59          6           0       14.570385   -0.784529   -0.464236
     60          6           0       14.219573    1.680435   -0.104231
     61          6           0       15.419860    2.194200   -0.955386
     62          6           0       15.878367    3.622057   -0.602648
     63          6           0       17.243766    4.003953   -1.275008
     64          6           0       17.021775    4.128738   -2.847407
     65          6           0       17.659948    5.317618   -0.674303
     66          1           0       -2.674110    1.203075    3.645872
     67          1           0       -6.398727    5.713370    0.601858
     68          1           0       -8.548353    1.130462   -3.231908
     69          1           0       -3.604861   -3.188232    1.799977
     70          1           0       -1.866927   -1.062869    2.768005
     71          1           0       -3.253645   -2.824316    4.158810
     72          1           0       -3.304226   -1.240602    4.959626
     73          1           0       -4.617291   -1.756444    4.062562
     74          1           0       -2.247017   -2.871665   -0.377761
     75          1           0       -1.479754   -1.726123    0.549201
     76          1           0       -0.539901   -3.058161    2.300431
     77          1           0       -1.358122   -4.652176    1.845046
     78          1           0       -1.446483    3.500902    3.637337
     79          1           0       -2.541201    4.869147    4.486032
     80          1           0       -2.783702    3.374306    5.144943
     81          1           0       -5.138039    6.812397    1.978919
     82          1           0      -10.045808    3.130069   -3.251091
     83          1           0      -10.205525    4.869817   -2.678195
     84          1           0       -9.695204    4.075528   -5.249962
     85          1           0       -8.133193    4.835404   -4.501953
     86          1           0       -8.467411    3.230443   -4.686575
     87          1           0       -8.351487   -0.679936   -4.707124
     88          1           0       -8.415801   -2.582445   -4.035904
     89          1           0       -9.740691   -1.531389   -3.601631
     90          1           0       -3.999978   -3.854317   -1.223567
     91          1           0        2.450777   -6.076457    0.542264
     92          1           0        2.235846   -4.971087   -0.590500
     93          1           0        3.665144   -4.173400    1.873061
     94          1           0        2.615281   -3.630581   -1.788045
     95          1           0        3.608545   -2.249240   -1.699179
     96          1           0        4.435148   -3.960598   -2.039695
     97          1           0        4.972909   -1.447714    0.440370
     98          1           0        5.052816   -2.677552    1.741944
     99          1           0        6.862809   -3.644774    0.425803
    100          1           0        6.782223   -2.842206   -0.961436
    101          1           0        7.505635   -0.634651    0.670335
    102          1           0        7.921184   -1.898795    1.675284
    103          1           0        8.808547   -2.136795   -1.199320
    104          1           0        8.766717   -4.096420   -0.065069
    105          1           0       10.498107   -3.718841   -0.388835
    106          1           0        9.785145   -3.773215    1.274942
    107          1           0        9.552054    0.074098    0.288700
    108          1           0       10.274002   -1.170494    1.360435
    109          1           0       11.956138   -1.779630   -0.300536
    110          1           0       11.165672   -0.470783   -1.399854
    111          1           0       11.793952    1.115513    0.087450
    112          1           0       12.192194   -0.128685    1.145403
    113          1           0       13.301388    0.404504   -1.594457
    114          1           0       15.164532   -0.939522    0.648612
    115          1           0       13.890912   -1.588311   -0.800322
    116          1           0       15.374426   -0.731392   -1.274654
    117          1           0       13.524484    2.421346    0.006933
    118          1           0       14.550018    1.668982    0.931239
    119          1           0       16.132624    1.401501   -0.768206
    120          1           0       15.147652    2.194369   -2.004672
    121          1           0       15.292960    4.295035   -1.099599
    122          1           0       15.939364    3.899387    0.551705
    123          1           0       17.980408    3.277962   -1.140542
    124          1           0       16.098708    4.735487   -3.129055
    125          1           0       18.157023    4.562799   -3.238374
    126          1           0       16.995901    3.114566   -3.419261
    127          1           0       17.770072    5.408108    0.405309
    128          1           0       18.727932    5.864382   -1.189484
    129          1           0       16.873157    6.131488   -1.057880
    130          1           0       -4.976691   -7.872460    0.033308
    131          1           0       -6.402274   -7.311773    0.678198
    132          1           0       -4.865655   -7.071863    1.449422
    133          8           0       -7.903125    6.836529   -0.302844
    134          1           0       -8.986008    6.311841   -1.987485
 ---------------------------------------------------------------------

 SCF Done:  E(RCAM-B3LYP) =  -3043.45959930     A.U. after   16 cycles

 Excitation energies and oscillator strengths:

 Excited State   1:      Singlet-A      2.0747 eV  597.59 nm  f=0.0865  <S**2>=0.000
     243 -> 245       -0.23418
     243 -> 246        0.33520
     244 -> 245        0.53794
     244 -> 246        0.17779
 This state for optimization and/or second-order correction.
 Total Energy, E(TD-HF/TD-KS) =  -3043.38335452
 Copying the excited state density for this state as the 1-particle RhoCI density.

 The electronic state is 1-A.
 Alpha  occ. eigenvalues --  -46.81474 -19.25988 -19.22678 -19.17991 -19.17310
 Alpha  occ. eigenvalues --  -19.17271 -19.16846 -19.16249 -14.39017 -14.36661
 Alpha  occ. eigenvalues --  -14.36622 -14.36568 -10.36414 -10.35505 -10.31675
 Alpha  occ. eigenvalues --  -10.31639 -10.31323 -10.28426 -10.27833 -10.27831
 Alpha  occ. eigenvalues --  -10.26887 -10.26464 -10.26298 -10.26111 -10.26011
 Alpha  occ. eigenvalues --  -10.26002 -10.25910 -10.25757 -10.25597 -10.25496
 Alpha  occ. eigenvalues --  -10.24985 -10.24878 -10.24601 -10.24494 -10.24389
 Alpha  occ. eigenvalues --  -10.24364 -10.24210 -10.23934 -10.23886 -10.23433
 Alpha  occ. eigenvalues --  -10.23373 -10.23135 -10.23076 -10.22970 -10.22782
 Alpha  occ. eigenvalues --  -10.22767 -10.22435 -10.22293 -10.22158 -10.22127
 Alpha  occ. eigenvalues --  -10.22060 -10.21961 -10.21689 -10.21663 -10.21531
 Alpha  occ. eigenvalues --  -10.21285 -10.21223 -10.21208 -10.20806 -10.20787
 Alpha  occ. eigenvalues --  -10.20699 -10.20458 -10.20184 -10.20031 -10.18804
 Alpha  occ. eigenvalues --  -10.18369  -3.09988  -1.84933  -1.84459  -1.84396
 Alpha  occ. eigenvalues --   -1.15746  -1.13060  -1.06234  -1.05893  -1.04172
 Alpha  occ. eigenvalues --   -1.02951  -1.00907  -1.00472  -0.99612  -0.99308
 Alpha  occ. eigenvalues --   -0.97026  -0.88109  -0.86331  -0.86269  -0.86035
 Alpha  occ. eigenvalues --   -0.85509  -0.85043  -0.84454  -0.83916  -0.83459
 Alpha  occ. eigenvalues --   -0.83132  -0.82369  -0.81899  -0.80923  -0.80600
 Alpha  occ. eigenvalues --   -0.79952  -0.79265  -0.78155  -0.77527  -0.76257
 Alpha  occ. eigenvalues --   -0.75422  -0.74658  -0.74342  -0.73690  -0.72521
 Alpha  occ. eigenvalues --   -0.71437  -0.70705  -0.70108  -0.69957  -0.69721
 Alpha  occ. eigenvalues --   -0.68926  -0.68881  -0.68214  -0.67432  -0.66807
 Alpha  occ. eigenvalues --   -0.65809  -0.64722  -0.64491  -0.62934  -0.62618
 Alpha  occ. eigenvalues --   -0.61983  -0.61728  -0.60109  -0.59829  -0.59458
 Alpha  occ. eigenvalues --   -0.58898  -0.58814  -0.58660  -0.58173  -0.56620
 Alpha  occ. eigenvalues --   -0.56173  -0.55624  -0.55531  -0.54952  -0.54765
 Alpha  occ. eigenvalues --   -0.53861  -0.53715  -0.53420  -0.52888  -0.52414
 Alpha  occ. eigenvalues --   -0.51729  -0.51710  -0.51661  -0.51400  -0.50885
 Alpha  occ. eigenvalues --   -0.50268  -0.49917  -0.49655  -0.49608  -0.49410
 Alpha  occ. eigenvalues --   -0.48993  -0.48718  -0.48353  -0.48182  -0.48068
 Alpha  occ. eigenvalues --   -0.47586  -0.47387  -0.47156  -0.47002  -0.46968
 Alpha  occ. eigenvalues --   -0.46658  -0.46454  -0.46214  -0.45948  -0.45786
 Alpha  occ. eigenvalues --   -0.45632  -0.45498  -0.45208  -0.45024  -0.44716
 Alpha  occ. eigenvalues --   -0.44626  -0.44517  -0.44104  -0.44039  -0.43998
 Alpha  occ. eigenvalues --   -0.43647  -0.43389  -0.42974  -0.42893  -0.42649
 Alpha  occ. eigenvalues --   -0.42539  -0.42158  -0.41833  -0.41689  -0.41526
 Alpha  occ. eigenvalues --   -0.41250  -0.41086  -0.40904  -0.40772  -0.40527
 Alpha  occ. eigenvalues --   -0.40405  -0.40299  -0.40160  -0.40090  -0.39819
 Alpha  occ. eigenvalues --   -0.39567  -0.39430  -0.39262  -0.39045  -0.38763
 Alpha  occ. eigenvalues --   -0.38723  -0.38650  -0.38593  -0.38429  -0.38058
 Alpha  occ. eigenvalues --   -0.38040  -0.37714  -0.37271  -0.37016  -0.36957
 Alpha  occ. eigenvalues --   -0.36632  -0.36502  -0.36436  -0.36087  -0.35614
 Alpha  occ. eigenvalues --   -0.35019  -0.34995  -0.34910  -0.34833  -0.34585
 Alpha  occ. eigenvalues --   -0.34533  -0.34185  -0.33824  -0.33668  -0.33645
 Alpha  occ. eigenvalues --   -0.32683  -0.32536  -0.32352  -0.32182  -0.31891
 Alpha  occ. eigenvalues --   -0.31770  -0.30608  -0.30143  -0.29465  -0.29282
 Alpha  occ. eigenvalues --   -0.28831  -0.28492  -0.28291  -0.27841  -0.27323
 Alpha  occ. eigenvalues --   -0.27161  -0.26469  -0.22764  -0.22155
 Alpha virt. eigenvalues --   -0.08474  -0.07279  -0.02181  -0.01602   0.00231
 Alpha virt. eigenvalues --    0.01635   0.01697   0.03157   0.03523   0.04199
 Alpha virt. eigenvalues --    0.04889   0.05199   0.07201   0.08348   0.09007

 Mulliken charges:
               1
     1  Mg   0.816247
     2  C    0.072832
     3  C   -0.170329
     4  C   -0.221024
     5  C   -0.174327
     6  N   -0.635457
     7  C    0.285562
     8  C   -0.151657
     9  C   -0.159303
    10  C    0.360086
    11  C   -0.310752
    12  C   -0.190559
    13  C   -0.268243
    14  C    0.625253
    15  O   -0.493954
    16  O   -0.465625
    17  N   -0.733784
    18  C    0.302851
    19  C    0.068526
    20  C   -0.044555
    21  C    0.382818
    22  C   -0.389061
    23  C    0.233804
    24  O   -0.425572
    25  N   -0.657963
    26  C    0.241846
    27  C    0.031990
    28  C    0.005263
    29  C    0.294248
    30  C    0.256599
    31  C   -0.210086
    32  C   -0.321726
    33  N   -0.705197
    34  C    0.288430
    35  C    0.014007
    36  C    0.056788
    37  C    0.275487
    38  C   -0.355303
    39  C    0.348018
    40  O   -0.467088
    41  C   -0.329120
    42  C    0.603605
    43  O   -0.526422
    44  O   -0.390551
    45  C   -0.103178
    46  C    0.027754
    47  C   -0.159277
    48  C    0.170635
    49  C   -0.388144
    50  C   -0.222462
    51  C   -0.206163
    52  C   -0.183220
    53  C   -0.054366
    54  C   -0.326687
    55  C   -0.159710
    56  C   -0.200561
    57  C   -0.178265
    58  C   -0.046432
    59  C   -0.295420
    60  C   -0.175888
    61  C   -0.182966
    62  C   -0.161470
    63  C   -0.046636
    64  C   -0.304232
    65  C   -0.279448
    66  H    0.090946
    67  H    0.131972
    68  H    0.076858
    69  H    0.139127
    70  H    0.101712
    71  H    0.134097
    72  H    0.125007
    73  H    0.092249
    74  H    0.129936
    75  H    0.121302
    76  H    0.157702
    77  H    0.129622
    78  H    0.104802
    79  H    0.166196
    80  H    0.132437
    81  H    0.077720
    82  H    0.116628
    83  H    0.078692
    84  H    0.109904
    85  H    0.102091
    86  H    0.119378
    87  H    0.123750
    88  H    0.160637
    89  H    0.088621
    90  H    0.152978
    91  H    0.102707
    92  H    0.116573
    93  H    0.069127
    94  H    0.153144
    95  H    0.113386
    96  H    0.100422
    97  H    0.115123
    98  H    0.100732
    99  H    0.099127
   100  H    0.098332
   101  H    0.095860
   102  H    0.080773
   103  H    0.081897
   104  H    0.084695
   105  H    0.112856
   106  H    0.105781
   107  H    0.079791
   108  H    0.090873
   109  H    0.086624
   110  H    0.084681
   111  H    0.091630
   112  H    0.089899
   113  H    0.081226
   114  H    0.072237
   115  H    0.100544
   116  H    0.098056
   117  H    0.088321
   118  H    0.087634
   119  H    0.097422
   120  H    0.091392
   121  H    0.101890
   122  H    0.069873
   123  H    0.098522
   124  H    0.103246
   125  H    0.070176
   126  H    0.100214
   127  H    0.111946
   128  H    0.048034
   129  H    0.081223
   130  H    0.136024
   131  H    0.145687
   132  H    0.151937
   133  O   -0.433920
   134  H    0.089454
 Sum of Mulliken charges =   0.00000

 Dipole moment (field-independent basis, Debye):
    X=              0.7691    Y=             -5.6250    Z=             -1.4380  Tot=              5.8567
 Quadrupole moment (field-independent basis, Debye-Ang):
   XX=           -401.6593   YY=           -432.5658   ZZ=           -393.0264
   XY=             11.0581   XZ=             27.5870   YZ=            -34.9873

 Normal termination of Gaussian 09 at Fri Oct  4 19:18:12 2019.
