 Gaussian 09, Revision D.01,
 Gaussian 09:  ES64L-G09RevD.01 24-Apr-2013

 ----------------------------------------------------------------------
 # td=(NStates=1) iop(3/107=0140000000,3/108=0140000000) iop(3/107=0140
 000000,3/108=0140000000) CAM-B3LYP/6-31G(d,p)
 ----------------------------------------------------------------------

 --
 TD
 --
 Symbolic Z-matrix:
 Charge =  0 Multiplicity = 1

                         Standard orientation:
 ---------------------------------------------------------------------
 Center     Atomic      Atomic             Coordinates (Angstroms)
 Number     Number       Type             X           Y           Z
 ---------------------------------------------------------------------
      1         12           0       -5.654099    1.322855    0.188711
      2          6           0       -5.069804   -2.187903   -0.337075
      3          6           0       -3.345717    1.101216    2.759415
      4          6           0       -6.204417    4.602030    0.706513
      5          6           0       -8.050576    1.237050   -2.375028
      6          7           0       -4.355417   -0.278171    1.016309
      7          6           0       -4.259922   -1.632522    0.642692
      8          6           0       -3.234024   -2.368861    1.592558
      9          6           0       -3.012441   -1.307618    2.653980
     10          6           0       -3.484585   -0.098389    2.122033
     11          6           0       -3.504698   -1.925880    3.953792
     12          6           0       -1.993979   -2.807255    0.787517
     13          6           0       -0.909463   -3.483523    1.543567
     14          6           0        0.325277   -3.991366    0.549654
     15          8           0        0.579682   -3.566185   -0.493259
     16          8           0        1.099940   -4.888016    1.192296
     17          7           0       -4.977465    2.628258    1.451884
     18          6           0       -4.000673    2.356554    2.478733
     19          6           0       -3.619383    3.616367    3.161488
     20          6           0       -4.566894    4.632074    2.711333
     21          6           0       -5.357393    3.935250    1.572121
     22          6           0       -2.785330    3.871906    4.320457
     23          6           0       -4.753169    6.026813    2.993183
     24          8           0       -4.138379    6.569054    3.826273
     25          7           0       -6.883434    2.685400   -0.744395
     26          6           0       -6.996368    3.909645   -0.294643
     27          6           0       -7.990068    4.640888   -1.162076
     28          6           0       -8.444019    3.637633   -1.977161
     29          6           0       -7.783609    2.451251   -1.750373
     30          6           0       -8.243199    6.048090   -1.199558
     31          6           0       -9.277121    3.924189   -3.155305
     32          6           0       -8.616646    4.057998   -4.600964
     33          7           0       -6.524406   -0.126833   -1.010844
     34          6           0       -7.330919    0.012796   -2.054979
     35          6           0       -7.568438   -1.280394   -2.726460
     36          6           0       -6.663448   -2.169381   -2.108909
     37          6           0       -6.026167   -1.358914   -1.102815
     38          6           0       -8.433608   -1.555369   -3.853770
     39          6           0       -6.108302   -3.521318   -2.058875
     40          8           0       -6.444828   -4.482650   -2.681957
     41          6           0       -4.944422   -3.593528   -0.981014
     42          6           0       -5.213282   -4.725862    0.033402
     43          8           0       -5.563912   -4.491413    1.171184
     44          8           0       -4.766273   -5.940269   -0.508702
     45          6           0       -5.157276   -7.096113    0.295688
     46          6           0        2.358638   -5.266011    0.590549
     47          6           0        3.434090   -4.315356    0.992913
     48          6           0        3.968436   -3.429736    0.206375
     49          6           0        3.652468   -3.346003   -1.246446
     50          6           0        5.081473   -2.481144    0.638223
     51          6           0        6.566869   -2.869503    0.241267
     52          6           0        7.596443   -1.890820    0.482242
     53          6           0        9.072806   -2.061910   -0.019749
     54          6           0        9.692818   -3.400588    0.354663
     55          6           0        9.902681   -0.899529    0.336382
     56          6           0       11.402109   -0.886973   -0.347765
     57          6           0       12.162168    0.429900    0.081090
     58          6           0       13.450784    0.562788   -0.584767
     59          6           0       14.460442   -0.608542   -0.097733
     60          6           0       14.075867    1.901015   -0.220197
     61          6           0       15.332563    2.274890   -1.062610
     62          6           0       15.916061    3.706382   -0.667464
     63          6           0       17.182052    4.096145   -1.352486
     64          6           0       17.032208    4.085959   -2.944232
     65          6           0       17.644056    5.454194   -0.866193
     66          1           0       -2.621745    1.164448    3.550283
     67          1           0       -6.475722    5.638288    0.851444
     68          1           0       -8.703864    1.175173   -3.234499
     69          1           0       -3.545070   -3.238534    1.840882
     70          1           0       -1.841032   -1.189529    2.893482
     71          1           0       -2.686074   -2.699138    4.312361
     72          1           0       -3.540374   -0.980802    4.712553
     73          1           0       -4.632426   -2.059933    4.052275
     74          1           0       -2.198853   -3.345674    0.126565
     75          1           0       -1.655146   -1.766744    0.077482
     76          1           0       -0.254332   -2.833928    2.260016
     77          1           0       -1.169113   -4.258058    2.085901
     78          1           0       -1.667034    3.576759    4.037026
     79          1           0       -2.770853    4.833655    4.660863
     80          1           0       -3.158623    3.132437    5.059931
     81          1           0       -5.486185    6.633429    2.428758
     82          1           0       -9.931157    3.156221   -3.214956
     83          1           0      -10.052947    4.602284   -2.936907
     84          1           0       -9.481565    4.341597   -5.331045
     85          1           0       -8.067580    4.926711   -4.405622
     86          1           0       -7.981377    3.202111   -4.809748
     87          1           0       -8.034345   -1.059227   -4.887021
     88          1           0       -8.537121   -2.665887   -4.054145
     89          1           0       -9.366081   -1.161719   -3.595659
     90          1           0       -4.034715   -3.705071   -1.587763
     91          1           0        2.399148   -6.309578    1.093166
     92          1           0        1.955299   -5.139757   -0.445085
     93          1           0        3.549482   -4.428392    2.057710
     94          1           0        2.534991   -3.402129   -1.714714
     95          1           0        3.918181   -2.245542   -1.624354
     96          1           0        4.230535   -4.004994   -1.876350
     97          1           0        4.931761   -1.351413    0.425956
     98          1           0        5.349582   -2.480324    1.858145
     99          1           0        6.751407   -3.923283    0.393866
    100          1           0        6.615875   -2.982309   -0.915351
    101          1           0        7.298127   -0.728202    0.139811
    102          1           0        7.724609   -1.758960    1.427843
    103          1           0        8.984104   -1.916734   -1.031255
    104          1           0        9.106854   -4.217587    0.184251
    105          1           0       10.755204   -3.542449   -0.268493
    106          1           0       10.037293   -3.533245    1.428341
    107          1           0        9.471149    0.132107    0.208093
    108          1           0       10.057316   -0.704733    1.348971
    109          1           0       11.755211   -1.842639   -0.081818
    110          1           0       11.227676   -0.998958   -1.486962
    111          1           0       11.437423    1.168588   -0.108394
    112          1           0       12.160286    0.413449    1.254437
    113          1           0       13.166219    0.416031   -1.651780
    114          1           0       14.741303   -0.502487    0.964738
    115          1           0       13.739327   -1.579063   -0.263685
    116          1           0       15.400071   -0.682113   -0.795482
    117          1           0       13.213742    2.711642   -0.559181
    118          1           0       14.270953    1.970881    0.878468
    119          1           0       16.110992    1.497293   -0.775493
    120          1           0       15.218461    2.297157   -2.074508
    121          1           0       15.150221    4.501727   -0.757198
    122          1           0       16.095704    3.563203    0.511144
    123          1           0       17.868803    3.416618   -0.862601
    124          1           0       16.551328    5.009878   -3.173370
    125          1           0       18.049797    4.254625   -3.269962
    126          1           0       16.424985    3.130724   -3.405791
    127          1           0       17.856556    5.287111    0.153935
    128          1           0       18.577661    5.630882   -1.240734
    129          1           0       17.114615    6.245317   -1.120382
    130          1           0       -4.721711   -7.912141   -0.285288
    131          1           0       -6.244300   -6.989834    0.512015
    132          1           0       -4.743410   -6.991650    1.436812
    133          8           0       -7.826385    6.847778   -0.325578
    134          1           0       -8.849698    6.404896   -1.998300
 ---------------------------------------------------------------------

 SCF Done:  E(RCAM-B3LYP) =  -3043.38485853     A.U. after   16 cycles

 Excitation energies and oscillator strengths:

 Excited State   1:      Singlet-A      1.9866 eV  624.09 nm  f=0.1660  <S**2>=0.000
     243 -> 245        0.11558
     243 -> 246        0.25608
     244 -> 245        0.63874
 This state for optimization and/or second-order correction.
 Total Energy, E(TD-HF/TD-KS) =  -3043.31185109
 Copying the excited state density for this state as the 1-particle RhoCI density.

 The electronic state is 1-A.
 Alpha  occ. eigenvalues --  -46.81557 -19.23098 -19.20809 -19.18984 -19.17756
 Alpha  occ. eigenvalues --  -19.16872 -19.16349 -19.16243 -14.38922 -14.37595
 Alpha  occ. eigenvalues --  -14.37003 -14.36848 -10.36330 -10.34727 -10.31278
 Alpha  occ. eigenvalues --  -10.29579 -10.29151 -10.28823 -10.28533 -10.27516
 Alpha  occ. eigenvalues --  -10.27224 -10.27121 -10.26701 -10.26546 -10.26357
 Alpha  occ. eigenvalues --  -10.26150 -10.25785 -10.25417 -10.25369 -10.25123
 Alpha  occ. eigenvalues --  -10.24909 -10.24599 -10.24310 -10.24267 -10.24238
 Alpha  occ. eigenvalues --  -10.23837 -10.23784 -10.23569 -10.23179 -10.23084
 Alpha  occ. eigenvalues --  -10.23057 -10.23034 -10.22672 -10.22394 -10.22192
 Alpha  occ. eigenvalues --  -10.22179 -10.22130 -10.22118 -10.22016 -10.21941
 Alpha  occ. eigenvalues --  -10.21840 -10.21749 -10.21554 -10.21490 -10.21363
 Alpha  occ. eigenvalues --  -10.21313 -10.21234 -10.21224 -10.21090 -10.20924
 Alpha  occ. eigenvalues --  -10.20861 -10.20728 -10.20534 -10.20197 -10.20119
 Alpha  occ. eigenvalues --  -10.17463  -3.10187  -1.85117  -1.84651  -1.84612
 Alpha  occ. eigenvalues --   -1.14936  -1.12491  -1.09196  -1.08199  -1.06418
 Alpha  occ. eigenvalues --   -1.05715  -1.04324  -1.01720  -1.00855  -0.98382
 Alpha  occ. eigenvalues --   -0.97249  -0.87625  -0.86544  -0.86292  -0.86013
 Alpha  occ. eigenvalues --   -0.85455  -0.84662  -0.84626  -0.83777  -0.83633
 Alpha  occ. eigenvalues --   -0.83417  -0.82679  -0.81526  -0.80323  -0.79399
 Alpha  occ. eigenvalues --   -0.78422  -0.77924  -0.77444  -0.76738  -0.76125
 Alpha  occ. eigenvalues --   -0.75010  -0.74273  -0.73679  -0.72961  -0.72124
 Alpha  occ. eigenvalues --   -0.71386  -0.70851  -0.70238  -0.70029  -0.69515
 Alpha  occ. eigenvalues --   -0.68980  -0.68942  -0.67737  -0.67554  -0.66464
 Alpha  occ. eigenvalues --   -0.65925  -0.65469  -0.64263  -0.62845  -0.62253
 Alpha  occ. eigenvalues --   -0.61244  -0.61140  -0.60715  -0.60571  -0.59270
 Alpha  occ. eigenvalues --   -0.58220  -0.57948  -0.57870  -0.57630  -0.57066
 Alpha  occ. eigenvalues --   -0.56799  -0.55907  -0.55714  -0.55444  -0.54698
 Alpha  occ. eigenvalues --   -0.54386  -0.53671  -0.53023  -0.52558  -0.52311
 Alpha  occ. eigenvalues --   -0.51630  -0.51178  -0.50871  -0.50631  -0.50295
 Alpha  occ. eigenvalues --   -0.50123  -0.49856  -0.49585  -0.49481  -0.49029
 Alpha  occ. eigenvalues --   -0.48916  -0.48472  -0.48425  -0.47939  -0.47524
 Alpha  occ. eigenvalues --   -0.47392  -0.47242  -0.47157  -0.47011  -0.46850
 Alpha  occ. eigenvalues --   -0.46771  -0.46546  -0.46485  -0.46355  -0.46153
 Alpha  occ. eigenvalues --   -0.45916  -0.45581  -0.45387  -0.45146  -0.44822
 Alpha  occ. eigenvalues --   -0.44643  -0.44493  -0.44406  -0.44080  -0.43966
 Alpha  occ. eigenvalues --   -0.43572  -0.43515  -0.43319  -0.43211  -0.43189
 Alpha  occ. eigenvalues --   -0.42811  -0.42650  -0.42617  -0.42291  -0.42268
 Alpha  occ. eigenvalues --   -0.41928  -0.41673  -0.41263  -0.41221  -0.41167
 Alpha  occ. eigenvalues --   -0.41021  -0.40702  -0.40417  -0.40298  -0.40220
 Alpha  occ. eigenvalues --   -0.40063  -0.40048  -0.39737  -0.39424  -0.39333
 Alpha  occ. eigenvalues --   -0.38921  -0.38864  -0.38758  -0.38199  -0.37926
 Alpha  occ. eigenvalues --   -0.37915  -0.37632  -0.37578  -0.37228  -0.36988
 Alpha  occ. eigenvalues --   -0.36719  -0.36260  -0.35995  -0.35485  -0.35373
 Alpha  occ. eigenvalues --   -0.35106  -0.34995  -0.34758  -0.34497  -0.34213
 Alpha  occ. eigenvalues --   -0.33890  -0.33632  -0.33538  -0.33141  -0.32836
 Alpha  occ. eigenvalues --   -0.32527  -0.32407  -0.32089  -0.31812  -0.31764
 Alpha  occ. eigenvalues --   -0.30917  -0.30851  -0.30637  -0.30389  -0.29684
 Alpha  occ. eigenvalues --   -0.28385  -0.28217  -0.28023  -0.27761  -0.27584
 Alpha  occ. eigenvalues --   -0.27549  -0.27299  -0.22817  -0.21485
 Alpha virt. eigenvalues --   -0.08630  -0.06756  -0.01282  -0.00507   0.00271
 Alpha virt. eigenvalues --    0.01849   0.02672   0.03511   0.04321   0.04539
 Alpha virt. eigenvalues --    0.05595   0.06157   0.07511   0.08545   0.09625

 Mulliken charges:
               1
     1  Mg   0.848105
     2  C    0.023036
     3  C   -0.198695
     4  C   -0.159130
     5  C   -0.152761
     6  N   -0.639773
     7  C    0.292542
     8  C   -0.100903
     9  C   -0.148854
    10  C    0.383248
    11  C   -0.292653
    12  C   -0.122745
    13  C   -0.260025
    14  C    0.554019
    15  O   -0.416435
    16  O   -0.474181
    17  N   -0.737593
    18  C    0.291221
    19  C    0.039238
    20  C   -0.031980
    21  C    0.320200
    22  C   -0.372072
    23  C    0.234690
    24  O   -0.397038
    25  N   -0.706663
    26  C    0.284106
    27  C    0.008210
    28  C   -0.018123
    29  C    0.323936
    30  C    0.231815
    31  C   -0.270287
    32  C   -0.301946
    33  N   -0.683998
    34  C    0.264820
    35  C    0.002875
    36  C    0.051911
    37  C    0.281709
    38  C   -0.385722
    39  C    0.337165
    40  O   -0.441153
    41  C   -0.313458
    42  C    0.635614
    43  O   -0.442081
    44  O   -0.463236
    45  C   -0.086039
    46  C   -0.014032
    47  C   -0.102366
    48  C    0.162248
    49  C   -0.387539
    50  C   -0.225358
    51  C   -0.177090
    52  C   -0.157698
    53  C   -0.042918
    54  C   -0.309959
    55  C   -0.200506
    56  C   -0.203440
    57  C   -0.156736
    58  C   -0.043716
    59  C   -0.308933
    60  C   -0.152908
    61  C   -0.172403
    62  C   -0.155754
    63  C   -0.060162
    64  C   -0.315760
    65  C   -0.311822
    66  H    0.087153
    67  H    0.142251
    68  H    0.100833
    69  H    0.109577
    70  H    0.094503
    71  H    0.116853
    72  H    0.072761
    73  H    0.134434
    74  H    0.106073
    75  H    0.065792
    76  H    0.119772
    77  H    0.132494
    78  H    0.101189
    79  H    0.166078
    80  H    0.130324
    81  H    0.080462
    82  H    0.109929
    83  H    0.105675
    84  H    0.107175
    85  H    0.129419
    86  H    0.118722
    87  H    0.111973
    88  H    0.144547
    89  H    0.131481
    90  H    0.170340
    91  H    0.111656
    92  H    0.121645
    93  H    0.090014
    94  H    0.141932
    95  H    0.090545
    96  H    0.130511
    97  H    0.101121
    98  H    0.067274
    99  H    0.105249
   100  H    0.069613
   101  H    0.055085
   102  H    0.103715
   103  H    0.104468
   104  H    0.113045
   105  H    0.075048
   106  H    0.099977
   107  H    0.073360
   108  H    0.092428
   109  H    0.111323
   110  H    0.074883
   111  H    0.103953
   112  H    0.072706
   113  H    0.086353
   114  H    0.107377
   115  H    0.080775
   116  H    0.096574
   117  H    0.051953
   118  H    0.090579
   119  H    0.081157
   120  H    0.096848
   121  H    0.079561
   122  H    0.053850
   123  H    0.085301
   124  H    0.111901
   125  H    0.109490
   126  H    0.088967
   127  H    0.102965
   128  H    0.100515
   129  H    0.109173
   130  H    0.139174
   131  H    0.141572
   132  H    0.107084
   133  O   -0.450892
   134  H    0.076302
 Sum of Mulliken charges =   0.00000

 Dipole moment (field-independent basis, Debye):
    X=              1.8415    Y=             -4.9231    Z=             -0.8889  Tot=              5.3308
 Quadrupole moment (field-independent basis, Debye-Ang):
   XX=           -376.2881   YY=           -433.4885   ZZ=           -391.7415
   XY=             15.6499   XZ=             23.6431   YZ=            -34.9169

 Normal termination of Gaussian 09 at Tue Oct  8 12:38:14 2019.
