 Gaussian 09, Revision D.01,
 Gaussian 09:  ES64L-G09RevD.01 24-Apr-2013

 ----------------------------------------------------------------------
 # td=(NStates=1) iop(3/107=0140000000,3/108=0140000000) iop(3/107=0140
 000000,3/108=0140000000) CAM-B3LYP/6-31G(d,p)
 ----------------------------------------------------------------------

 --
 TD
 --
 Symbolic Z-matrix:
 Charge =  0 Multiplicity = 1

                         Standard orientation:
 ---------------------------------------------------------------------
 Center     Atomic      Atomic             Coordinates (Angstroms)
 Number     Number       Type             X           Y           Z
 ---------------------------------------------------------------------
      1         12           0       -5.728420    1.168584    0.241946
      2          6           0       -5.045386   -2.161586   -0.333212
      3          6           0       -3.525546    1.188250    2.796723
      4          6           0       -6.491892    4.539201    0.722657
      5          6           0       -8.070089    1.159382   -2.342234
      6          7           0       -4.326451   -0.293183    1.008055
      7          6           0       -4.277330   -1.624098    0.694784
      8          6           0       -3.205448   -2.338391    1.525247
      9          6           0       -2.983028   -1.351875    2.650896
     10          6           0       -3.669483   -0.088886    2.183188
     11          6           0       -3.525251   -1.773671    3.980067
     12          6           0       -1.937142   -2.540340    0.776204
     13          6           0       -0.939649   -3.379865    1.501171
     14          6           0        0.264894   -3.771517    0.713590
     15          8           0        0.459462   -3.444582   -0.467398
     16          8           0        1.069766   -4.542836    1.389045
     17          7           0       -4.982306    2.637137    1.487483
     18          6           0       -4.081186    2.342299    2.579380
     19          6           0       -3.870717    3.589136    3.141074
     20          6           0       -4.684967    4.594026    2.560838
     21          6           0       -5.434067    3.940348    1.531766
     22          6           0       -2.836884    3.871600    4.244525
     23          6           0       -4.941366    5.951328    3.044320
     24          8           0       -4.331795    6.618403    3.849687
     25          7           0       -6.884041    2.545199   -0.728556
     26          6           0       -6.954408    3.854996   -0.413046
     27          6           0       -8.034655    4.578431   -1.278926
     28          6           0       -8.406308    3.567402   -2.176126
     29          6           0       -7.800504    2.376831   -1.754432
     30          6           0       -8.394303    5.993053   -1.299980
     31          6           0       -9.359050    3.746741   -3.293328
     32          6           0       -8.847383    3.937539   -4.742192
     33          7           0       -6.409608   -0.149284   -1.061283
     34          6           0       -7.459334   -0.069893   -2.079257
     35          6           0       -7.492904   -1.351611   -2.762284
     36          6           0       -6.569510   -2.160262   -2.139959
     37          6           0       -5.907715   -1.435741   -1.104761
     38          6           0       -8.468747   -1.751482   -3.785441
     39          6           0       -6.095219   -3.602570   -2.077206
     40          8           0       -6.456564   -4.571059   -2.721559
     41          6           0       -4.992470   -3.604022   -0.877697
     42          6           0       -5.163941   -4.754598    0.046130
     43          8           0       -5.704221   -4.575617    1.195862
     44          8           0       -4.891798   -5.944009   -0.344102
     45          6           0       -5.256520   -7.033832    0.512730
     46          6           0        2.366333   -4.936215    0.827350
     47          6           0        3.444215   -3.894777    1.113231
     48          6           0        4.016674   -3.092090    0.251297
     49          6           0        3.846863   -3.074037   -1.260830
     50          6           0        5.268920   -2.184683    0.626980
     51          6           0        6.561822   -2.669326   -0.018142
     52          6           0        7.774898   -1.794510    0.461788
     53          6           0        9.058253   -1.948687   -0.149285
     54          6           0        9.530149   -3.468855    0.102499
     55          6           0       10.053074   -0.901070    0.381627
     56          6           0       11.377292   -0.754997   -0.356260
     57          6           0       12.278838    0.299643    0.127302
     58          6           0       13.529412    0.516131   -0.644743
     59          6           0       14.612167   -0.641316   -0.302340
     60          6           0       14.254685    1.805624   -0.155202
     61          6           0       15.500573    2.175639   -1.075627
     62          6           0       16.115859    3.548287   -0.662566
     63          6           0       17.421203    3.901642   -1.294491
     64          6           0       17.392264    3.925226   -2.835060
     65          6           0       18.076045    5.118762   -0.637913
     66          1           0       -2.722675    1.081340    3.579517
     67          1           0       -6.780176    5.573079    0.885448
     68          1           0       -8.826928    1.077169   -3.258347
     69          1           0       -3.567805   -3.358429    1.662257
     70          1           0       -1.893668   -1.227751    2.873599
     71          1           0       -2.913597   -2.587111    4.199443
     72          1           0       -3.440663   -1.101919    4.907679
     73          1           0       -4.685505   -2.035298    3.920400
     74          1           0       -2.166406   -3.088470   -0.289641
     75          1           0       -1.502065   -1.512514    0.569476
     76          1           0       -0.709400   -2.701051    2.389430
     77          1           0       -1.345902   -4.435913    1.806215
     78          1           0       -1.970397    3.542197    3.879299
     79          1           0       -2.707237    4.922842    4.653990
     80          1           0       -3.087863    3.233321    5.117735
     81          1           0       -5.833073    6.381925    2.617489
     82          1           0       -9.861957    2.819659   -3.116940
     83          1           0      -10.104108    4.556357   -3.036139
     84          1           0       -9.920665    4.317714   -5.402376
     85          1           0       -8.313642    4.940617   -4.798102
     86          1           0       -8.386336    3.013096   -5.155514
     87          1           0       -8.224897   -0.975583   -4.521167
     88          1           0       -8.310672   -2.779795   -4.339166
     89          1           0       -9.526736   -1.628239   -3.350653
     90          1           0       -3.954734   -3.784391   -1.300884
     91          1           0        2.494009   -5.833228    1.352463
     92          1           0        2.163671   -5.194972   -0.271872
     93          1           0        3.690002   -3.695471    2.213036
     94          1           0        2.855880   -3.648307   -1.633884
     95          1           0        3.732205   -1.908247   -1.367388
     96          1           0        4.775420   -3.450886   -1.768674
     97          1           0        4.976590   -1.153900    0.454997
     98          1           0        5.154004   -2.196433    1.717147
     99          1           0        6.805822   -3.693742    0.367079
    100          1           0        6.677764   -2.694164   -1.067338
    101          1           0        7.247695   -0.880519    0.414799
    102          1           0        7.715620   -1.903085    1.487045
    103          1           0        8.914951   -1.817282   -1.320691
    104          1           0        8.850336   -4.198231   -0.129372
    105          1           0       10.578536   -3.606865   -0.507797
    106          1           0        9.722344   -3.480153    1.148773
    107          1           0        9.420379    0.035737    0.453513
    108          1           0       10.284808   -1.088877    1.415237
    109          1           0       11.842774   -1.794089   -0.082314
    110          1           0       11.176650   -0.619364   -1.521609
    111          1           0       11.629314    1.293261   -0.021805
    112          1           0       12.605024    0.023514    1.229660
    113          1           0       13.425455    0.485798   -1.743505
    114          1           0       14.583013   -0.800927    0.654708
    115          1           0       14.340731   -1.564567   -0.831011
    116          1           0       15.650099   -0.275455   -0.872999
    117          1           0       13.412197    2.559179   -0.089485
    118          1           0       14.432748    1.717055    0.764037
    119          1           0       16.323642    1.418562   -1.102079
    120          1           0       15.052605    2.317684   -1.996305
    121          1           0       15.340437    4.323225   -0.811550
    122          1           0       16.328237    3.434642    0.386460
    123          1           0       18.161024    3.084157   -1.089724
    124          1           0       16.611028    4.727940   -3.099839
    125          1           0       18.414406    4.153822   -3.277011
    126          1           0       17.066648    3.049496   -3.383742
    127          1           0       18.253523    4.938292    0.562688
    128          1           0       18.986707    5.561250   -0.907509
    129          1           0       17.270666    5.788812   -0.797824
    130          1           0       -4.999283   -7.857867   -0.083690
    131          1           0       -6.236442   -7.234050    0.872185
    132          1           0       -4.678141   -7.060626    1.397847
    133          8           0       -7.924021    6.814805   -0.513383
    134          1           0       -9.236944    6.252791   -2.023114
 ---------------------------------------------------------------------

 SCF Done:  E(RCAM-B3LYP) =  -3043.53160198     A.U. after   16 cycles

 Excitation energies and oscillator strengths:

 Excited State   1:      Singlet-A      1.9800 eV  626.17 nm  f=0.1814  <S**2>=0.000
     243 -> 246        0.25340
     244 -> 245        0.65301
 This state for optimization and/or second-order correction.
 Total Energy, E(TD-HF/TD-KS) =  -3043.45883726
 Copying the excited state density for this state as the 1-particle RhoCI density.

 The electronic state is 1-A.
 Alpha  occ. eigenvalues --  -46.80651 -19.24733 -19.22535 -19.18329 -19.17161
 Alpha  occ. eigenvalues --  -19.16033 -19.15855 -19.15513 -14.39553 -14.37347
 Alpha  occ. eigenvalues --  -14.36529 -14.35845 -10.35346 -10.34627 -10.32966
 Alpha  occ. eigenvalues --  -10.30797 -10.28767 -10.28586 -10.28189 -10.27560
 Alpha  occ. eigenvalues --  -10.27135 -10.26920 -10.26793 -10.26412 -10.26355
 Alpha  occ. eigenvalues --  -10.26144 -10.25621 -10.25616 -10.25342 -10.25208
 Alpha  occ. eigenvalues --  -10.25158 -10.24892 -10.24880 -10.24493 -10.24268
 Alpha  occ. eigenvalues --  -10.24041 -10.24019 -10.23843 -10.23800 -10.23548
 Alpha  occ. eigenvalues --  -10.23541 -10.23517 -10.23446 -10.23085 -10.22830
 Alpha  occ. eigenvalues --  -10.22762 -10.22742 -10.22630 -10.22574 -10.22323
 Alpha  occ. eigenvalues --  -10.22224 -10.22186 -10.21998 -10.21813 -10.21510
 Alpha  occ. eigenvalues --  -10.21401 -10.21094 -10.20977 -10.20776 -10.20757
 Alpha  occ. eigenvalues --  -10.20698 -10.20309 -10.20172 -10.19979 -10.19514
 Alpha  occ. eigenvalues --  -10.19175  -3.09308  -1.84240  -1.83818  -1.83682
 Alpha  occ. eigenvalues --   -1.16342  -1.14087  -1.07620  -1.06132  -1.05821
 Alpha  occ. eigenvalues --   -1.03147  -1.01442  -1.00843  -0.99856  -0.97839
 Alpha  occ. eigenvalues --   -0.97436  -0.88418  -0.87625  -0.86751  -0.86110
 Alpha  occ. eigenvalues --   -0.85606  -0.85079  -0.84779  -0.83822  -0.83698
 Alpha  occ. eigenvalues --   -0.83327  -0.82512  -0.81524  -0.80879  -0.80525
 Alpha  occ. eigenvalues --   -0.79463  -0.78448  -0.78211  -0.77677  -0.76843
 Alpha  occ. eigenvalues --   -0.75350  -0.74899  -0.74478  -0.74363  -0.72238
 Alpha  occ. eigenvalues --   -0.71039  -0.70866  -0.70704  -0.70448  -0.70332
 Alpha  occ. eigenvalues --   -0.70215  -0.69216  -0.67606  -0.66690  -0.66253
 Alpha  occ. eigenvalues --   -0.65637  -0.65098  -0.64025  -0.63823  -0.62574
 Alpha  occ. eigenvalues --   -0.62221  -0.61634  -0.61311  -0.59677  -0.59298
 Alpha  occ. eigenvalues --   -0.58439  -0.58338  -0.57655  -0.57501  -0.57102
 Alpha  occ. eigenvalues --   -0.56049  -0.55530  -0.55145  -0.55049  -0.54821
 Alpha  occ. eigenvalues --   -0.53990  -0.53639  -0.53161  -0.52426  -0.52076
 Alpha  occ. eigenvalues --   -0.51845  -0.51590  -0.51325  -0.51197  -0.51094
 Alpha  occ. eigenvalues --   -0.50835  -0.50388  -0.50314  -0.49282  -0.49217
 Alpha  occ. eigenvalues --   -0.48926  -0.48467  -0.48347  -0.48141  -0.48124
 Alpha  occ. eigenvalues --   -0.47856  -0.47572  -0.47388  -0.47207  -0.47015
 Alpha  occ. eigenvalues --   -0.46936  -0.46684  -0.46265  -0.46186  -0.46059
 Alpha  occ. eigenvalues --   -0.45699  -0.45448  -0.45315  -0.45158  -0.45026
 Alpha  occ. eigenvalues --   -0.44968  -0.44655  -0.44305  -0.44003  -0.43673
 Alpha  occ. eigenvalues --   -0.43477  -0.43367  -0.43049  -0.43044  -0.42823
 Alpha  occ. eigenvalues --   -0.42736  -0.42418  -0.42205  -0.42102  -0.41890
 Alpha  occ. eigenvalues --   -0.41757  -0.41655  -0.41522  -0.41378  -0.41179
 Alpha  occ. eigenvalues --   -0.40924  -0.40890  -0.40615  -0.40486  -0.40316
 Alpha  occ. eigenvalues --   -0.39895  -0.39789  -0.39714  -0.39334  -0.39213
 Alpha  occ. eigenvalues --   -0.39042  -0.38331  -0.38293  -0.38197  -0.38191
 Alpha  occ. eigenvalues --   -0.37737  -0.37666  -0.37524  -0.37437  -0.36966
 Alpha  occ. eigenvalues --   -0.36796  -0.36377  -0.36331  -0.36149  -0.36125
 Alpha  occ. eigenvalues --   -0.35550  -0.35279  -0.35237  -0.34800  -0.34238
 Alpha  occ. eigenvalues --   -0.34083  -0.34073  -0.33805  -0.33714  -0.33073
 Alpha  occ. eigenvalues --   -0.32970  -0.32585  -0.31918  -0.31896  -0.31529
 Alpha  occ. eigenvalues --   -0.31471  -0.31029  -0.30258  -0.29943  -0.29432
 Alpha  occ. eigenvalues --   -0.28725  -0.28651  -0.28243  -0.28109  -0.27564
 Alpha  occ. eigenvalues --   -0.26731  -0.26481  -0.23289  -0.21421
 Alpha virt. eigenvalues --   -0.08700  -0.06632  -0.02097  -0.00236   0.00519
 Alpha virt. eigenvalues --    0.02429   0.03134   0.03393   0.04051   0.04444
 Alpha virt. eigenvalues --    0.05433   0.05800   0.07225   0.08137   0.09004

 Mulliken charges:
               1
     1  Mg   0.820081
     2  C    0.114703
     3  C   -0.213317
     4  C   -0.150253
     5  C   -0.203800
     6  N   -0.622019
     7  C    0.296612
     8  C   -0.113953
     9  C   -0.175278
    10  C    0.342257
    11  C   -0.297112
    12  C   -0.167860
    13  C   -0.245875
    14  C    0.599192
    15  O   -0.496053
    16  O   -0.452203
    17  N   -0.742934
    18  C    0.384714
    19  C    0.008870
    20  C   -0.043439
    21  C    0.306853
    22  C   -0.378544
    23  C    0.250142
    24  O   -0.423775
    25  N   -0.674282
    26  C    0.287687
    27  C   -0.050727
    28  C    0.059329
    29  C    0.328772
    30  C    0.240364
    31  C   -0.254016
    32  C   -0.284088
    33  N   -0.759679
    34  C    0.267527
    35  C    0.001065
    36  C    0.015578
    37  C    0.305004
    38  C   -0.375211
    39  C    0.391485
    40  O   -0.445237
    41  C   -0.332831
    42  C    0.607893
    43  O   -0.525037
    44  O   -0.401455
    45  C   -0.093650
    46  C    0.007813
    47  C   -0.134796
    48  C    0.118873
    49  C   -0.343154
    50  C   -0.240215
    51  C   -0.183360
    52  C   -0.170334
    53  C   -0.052005
    54  C   -0.315092
    55  C   -0.167353
    56  C   -0.160676
    57  C   -0.145080
    58  C   -0.068176
    59  C   -0.306029
    60  C   -0.154067
    61  C   -0.187458
    62  C   -0.166914
    63  C   -0.061848
    64  C   -0.309604
    65  C   -0.296861
    66  H    0.089839
    67  H    0.148819
    68  H    0.093369
    69  H    0.122294
    70  H    0.105429
    71  H    0.117399
    72  H    0.105317
    73  H    0.116050
    74  H    0.091783
    75  H    0.111904
    76  H    0.122241
    77  H    0.123706
    78  H    0.130589
    79  H    0.153431
    80  H    0.111053
    81  H    0.068427
    82  H    0.116366
    83  H    0.109710
    84  H    0.068929
    85  H    0.126219
    86  H    0.122701
    87  H    0.126815
    88  H    0.142253
    89  H    0.131476
    90  H    0.153421
    91  H    0.123492
    92  H    0.126859
    93  H    0.075183
    94  H    0.119617
    95  H    0.105396
    96  H    0.121862
    97  H    0.108474
    98  H    0.097167
    99  H    0.097516
   100  H    0.108283
   101  H    0.090684
   102  H    0.094198
   103  H    0.062648
   104  H    0.114991
   105  H    0.081592
   106  H    0.108007
   107  H    0.080825
   108  H    0.090749
   109  H    0.082085
   110  H    0.074619
   111  H    0.070442
   112  H    0.074127
   113  H    0.079022
   114  H    0.109107
   115  H    0.096385
   116  H    0.076106
   117  H    0.068646
   118  H    0.097484
   119  H    0.096989
   120  H    0.109068
   121  H    0.085057
   122  H    0.095548
   123  H    0.076666
   124  H    0.080959
   125  H    0.094364
   126  H    0.110615
   127  H    0.070656
   128  H    0.110737
   129  H    0.105281
   130  H    0.128015
   131  H    0.148814
   132  H    0.132113
   133  O   -0.424640
   134  H    0.065488
 Sum of Mulliken charges =   0.00000

 Dipole moment (field-independent basis, Debye):
    X=              2.5688    Y=             -6.6716    Z=             -0.6787  Tot=              7.1812
 Quadrupole moment (field-independent basis, Debye-Ang):
   XX=           -377.6676   YY=           -439.3612   ZZ=           -394.5362
   XY=             11.9897   XZ=             27.8811   YZ=            -37.4883

 Normal termination of Gaussian 09 at Fri Oct  4 06:36:51 2019.
