 Gaussian 09, Revision D.01,
 Gaussian 09:  ES64L-G09RevD.01 24-Apr-2013

 -----------------------------------------------
 #n B3LYP/6-31G(d,p) freq=savenormalmodes nosymm
 -----------------------------------------------

 --------------
 AlQ3S0Freq.com
 --------------
 Symbolic Z-matrix:
 Charge =  0 Multiplicity = 1

                          Input orientation:
 ---------------------------------------------------------------------
 Center     Atomic      Atomic             Coordinates (Angstroms)
 Number     Number       Type             X           Y           Z
 ---------------------------------------------------------------------
      1         13           0       -0.617750   -1.111820    0.334460
      2          8           0        0.709530   -2.389910    0.158500
      3          8           0       -2.021750   -2.099930   -0.357870
      4          8           0       -0.986830   -1.361820    2.131160
      5          6           0       -0.259620   -0.699360    2.997340
      6          6           0       -0.367610   -0.806250    4.383620
      7          6           0        0.473380   -0.051910    5.227050
      8          6           0        1.432830    0.819620    4.741160
      9          6           0        1.579310    0.967820    3.340910
     10          6           0        0.725810    0.212520    2.484880
     11          6           0        2.516370    1.816380    2.699990
     12          6           0        2.564960    1.878840    1.322710
     13          6           0        1.673300    1.096400    0.560480
     14          7           0        0.780540    0.293130    1.124690
     15          6           0        1.337440   -2.457580   -0.990060
     16          6           0        2.320970   -3.392390   -1.311990
     17          6           0        2.929230   -3.381920   -2.583790
     18          6           0        2.594740   -2.464460   -3.564830
     19          6           0        1.604390   -1.491880   -3.286310
     20          6           0        0.992350   -1.494390   -1.998960
     21          6           0        1.157060   -0.495610   -4.189770
     22          6           0        0.183130    0.401910   -3.803800
     23          6           0       -0.358010    0.322910   -2.504140
     24          7           0        0.037620   -0.593410   -1.629700
     25          6           0       -3.169900   -1.488940   -0.520480
     26          6           0       -4.341560   -2.092260   -0.976760
     27          6           0       -5.527790   -1.342180   -1.109980
     28          6           0       -5.598080    0.006030   -0.804180
     29          6           0       -3.231810   -0.087110   -0.210460
     30          6           0       -4.434810    0.666260   -0.340440
     31          6           0       -4.356370    2.036680    0.012630
     32          6           0       -3.162840    2.571180    0.451860
     33          6           0       -2.023590    1.745090    0.541320
     34          7           0       -2.057470    0.458900    0.216810
     35          1           0       -4.324000   -3.149520   -1.217950
     36          1           0       -6.421010   -1.849930   -1.464380
     37          1           0       -6.525580    0.559410   -0.910730
     38          1           0       -5.244680    2.658410   -0.063680
     39          1           0       -3.083850    3.616280    0.730910
     40          1           0       -1.072080    2.138720    0.882420
     41          1           0       -1.102870   -1.486950    4.798710
     42          1           0        0.361580   -0.167000    6.302000
     43          1           0        2.071580    1.384280    5.412740
     44          1           0        3.195550    2.412660    3.303800
     45          1           0        3.277800    2.518670    0.813960
     46          1           0        1.688780    1.125720   -0.523770
     47          1           0        2.600710   -4.131710   -0.569420
     48          1           0        3.688150   -4.129870   -2.797870
     49          1           0        3.074310   -2.481750   -4.538260
     50          1           0       -1.124030    1.016370   -2.173970
     51          1           0        1.586190   -0.449110   -5.187340
     52          1           0       -0.175500    1.168300   -4.482320
 ---------------------------------------------------------------------

 SCF Done:  E(RB3LYP) =  -1672.38493404     A.U. after   16 cycles

 Alpha  occ. eigenvalues --  -56.04179 -19.10955 -19.10952 -19.10950 -14.37044
 Alpha  occ. eigenvalues --  -14.37041 -14.37040 -10.24412 -10.24410 -10.24408
 Alpha  occ. eigenvalues --  -10.23654 -10.23648 -10.23646 -10.22527 -10.22523
 Alpha  occ. eigenvalues --  -10.22520 -10.22072 -10.22069 -10.22068 -10.21206
 Alpha  occ. eigenvalues --  -10.21203 -10.21200 -10.20946 -10.20941 -10.20940
 Alpha  occ. eigenvalues --  -10.19115 -10.19111 -10.19110 -10.18091 -10.18087
 Alpha  occ. eigenvalues --  -10.18087 -10.17295 -10.17290 -10.17289  -4.11375
 Alpha  occ. eigenvalues --   -2.66818  -2.66747  -2.66747  -1.01095  -1.00069
 Alpha  occ. eigenvalues --   -1.00063  -0.96221  -0.95900  -0.95896  -0.84481
 Alpha  occ. eigenvalues --   -0.84262  -0.84259  -0.80923  -0.80907  -0.80905
 Alpha  occ. eigenvalues --   -0.75692  -0.75685  -0.75682  -0.72166  -0.71869
 Alpha  occ. eigenvalues --   -0.71865  -0.65215  -0.65034  -0.65032  -0.64047
 Alpha  occ. eigenvalues --   -0.64016  -0.64013  -0.59300  -0.58896  -0.58893
 Alpha  occ. eigenvalues --   -0.54541  -0.53476  -0.53473  -0.52601  -0.51855
 Alpha  occ. eigenvalues --   -0.51853  -0.51583  -0.50757  -0.50754  -0.47416
 Alpha  occ. eigenvalues --   -0.46118  -0.46115  -0.45250  -0.44774  -0.44618
 Alpha  occ. eigenvalues --   -0.44615  -0.43713  -0.43710  -0.43562  -0.43144
 Alpha  occ. eigenvalues --   -0.43139  -0.42313  -0.41823  -0.41819  -0.41324
 Alpha  occ. eigenvalues --   -0.41114  -0.41109  -0.38255  -0.37305  -0.37302
 Alpha  occ. eigenvalues --   -0.37067  -0.36231  -0.36230  -0.35818  -0.35815
 Alpha  occ. eigenvalues --   -0.35813  -0.34043  -0.33490  -0.33486  -0.32500
 Alpha  occ. eigenvalues --   -0.31055  -0.31049  -0.29448  -0.28827  -0.28826
 Alpha  occ. eigenvalues --   -0.28265  -0.27175  -0.27170  -0.25567  -0.25307
 Alpha  occ. eigenvalues --   -0.25304  -0.19225  -0.19220  -0.19161
 Alpha virt. eigenvalues --   -0.06244  -0.06242  -0.05871  -0.02358  -0.01618
 Alpha virt. eigenvalues --   -0.01614   0.03169   0.03677   0.03681   0.08352
 Alpha virt. eigenvalues --    0.08974   0.08977   0.08984   0.09286   0.09289

 Mulliken charges:
               1
     1  Al   1.022349
     2  O   -0.638049
     3  O   -0.637941
     4  O   -0.638044
     5  C    0.448222
     6  C   -0.149186
     7  C   -0.078058
     8  C   -0.167602
     9  C    0.161294
    10  C    0.185801
    11  C   -0.092426
    12  C   -0.124993
    13  C    0.102642
    14  N   -0.571415
    15  C    0.448122
    16  C   -0.149163
    17  C   -0.078131
    18  C   -0.167473
    19  C    0.161339
    20  C    0.186026
    21  C   -0.092473
    22  C   -0.124874
    23  C    0.102585
    24  N   -0.571681
    25  C    0.448163
    26  C   -0.149129
    27  C   -0.078144
    28  C   -0.167528
    29  C    0.186017
    30  C    0.161286
    31  C   -0.092394
    32  C   -0.125020
    33  C    0.102456
    34  N   -0.571395
    35  H    0.097280
    36  H    0.086901
    37  H    0.076809
    38  H    0.104862
    39  H    0.100736
    40  H    0.116293
    41  H    0.097284
    42  H    0.086905
    43  H    0.076844
    44  H    0.104889
    45  H    0.100770
    46  H    0.116391
    47  H    0.097272
    48  H    0.086899
    49  H    0.076812
    50  H    0.116279
    51  H    0.104873
    52  H    0.100717
 Sum of Mulliken charges =   0.00000

 Dipole moment (field-independent basis, Debye):
    X=              1.2845    Y=              7.2953    Z=             -2.6988  Tot=              7.8839
 Quadrupole moment (field-independent basis, Debye-Ang):
   XX=           -178.8661   YY=           -193.4821   ZZ=           -179.0143
   XY=             -5.9407   XZ=              2.1166   YZ=              5.4761

  Exact polarizability: 345.862  -7.080 307.268   2.476  15.093 341.914
 Approx polarizability: 562.977   3.664 583.719  -1.602  -7.274 565.564

                      1                      2                      3
                      A                      A                      A
 Frequencies --     23.9643                25.2374                40.8186
 Red. masses --      5.8925                 5.9065                 5.6991
 Frc consts  --      0.0020                 0.0022                 0.0056
 IR Inten    --      0.3755                 0.3697                 0.3218

                      4                      5                      6
                      A                      A                      A
 Frequencies --     46.5567                47.5007                53.3138
 Red. masses --      5.4448                 5.4548                 5.3184
 Frc consts  --      0.0070                 0.0073                 0.0089
 IR Inten    --      0.2420                 0.2293                 0.6006

                      7                      8                      9
                      A                      A                      A
 Frequencies --    136.0046               142.2379               142.6552
 Red. masses --      6.7751                 6.2812                 6.2738
 Frc consts  --      0.0738                 0.0749                 0.0752
 IR Inten    --      0.0274                 0.2418                 0.2678

                     10                     11                     12
                      A                      A                      A
 Frequencies --    160.1103               160.4845               171.9055
 Red. masses --      4.7579                 4.7441                 4.8313
 Frc consts  --      0.0719                 0.0720                 0.0841
 IR Inten    --      0.8978                 0.9472                 0.2449

                     13                     14                     15
                      A                      A                      A
 Frequencies --    187.8746               188.5811               199.1888
 Red. masses --      5.7264                 5.6981                 6.2525
 Frc consts  --      0.1191                 0.1194                 0.1462
 IR Inten    --      6.6385                 6.6434                 2.6962

                     16                     17                     18
                      A                      A                      A
 Frequencies --    219.2639               219.5493               225.3758
 Red. masses --      5.3496                 5.3465                 4.5258
 Frc consts  --      0.1515                 0.1518                 0.1354
 IR Inten    --      4.3920                 4.2638                 0.0854

                     19                     20                     21
                      A                      A                      A
 Frequencies --    288.4788               289.0587               291.7791
 Red. masses --      5.3576                 5.3611                 6.1075
 Frc consts  --      0.2627                 0.2639                 0.3064
 IR Inten    --      0.9734                 0.9588                 0.0249

                     22                     23                     24
                      A                      A                      A
 Frequencies --    337.7570               398.8616               399.0982
 Red. masses --     10.3025                 7.3359                 7.3192
 Frc consts  --      0.6925                 0.6876                 0.6869
 IR Inten    --     10.3446                45.4363                45.3195

                     25                     26                     27
                      A                      A                      A
 Frequencies --    426.7704               433.9652               434.1387
 Red. masses --      5.3459                 5.7406                 5.7146
 Frc consts  --      0.5737                 0.6370                 0.6346
 IR Inten    --     19.3081                38.7986                38.1821

                     28                     29                     30
                      A                      A                      A
 Frequencies --    459.1730               469.5983               469.7950
 Red. masses --      4.3118                 4.5724                 4.5603
 Frc consts  --      0.5356                 0.5941                 0.5930
 IR Inten    --      0.2235                23.3332                23.0875

                     31                     32                     33
                      A                      A                      A
 Frequencies --    479.6850               479.7334               481.2920
 Red. masses --      3.6676                 3.6746                 3.5221
 Frc consts  --      0.4972                 0.4983                 0.4807
 IR Inten    --      1.7910                 2.0835                 0.2107

                     34                     35                     36
                      A                      A                      A
 Frequencies --    505.6465               505.8316               509.0562
 Red. masses --      8.0642                 8.0563                 7.9832
 Frc consts  --      1.2148                 1.2145                 1.2189
 IR Inten    --      5.5421                 5.4320                 0.5347

                     37                     38                     39
                      A                      A                      A
 Frequencies --    540.6872               556.1383               556.2949
 Red. masses --      8.2433                 8.2206                 8.2278
 Frc consts  --      1.4199                 1.4980                 1.5002
 IR Inten    --      2.2853                95.2630                96.3758

                     40                     41                     42
                      A                      A                      A
 Frequencies --    585.4303               587.0573               587.1180
 Red. masses --      7.2541                 7.4674                 7.4584
 Frc consts  --      1.4648                 1.5163                 1.5148
 IR Inten    --      1.5141                11.6670                11.2401

                     43                     44                     45
                      A                      A                      A
 Frequencies --    605.4665               605.6292               607.1945
 Red. masses --      4.0524                 4.0584                 4.0659
 Frc consts  --      0.8753                 0.8770                 0.8832
 IR Inten    --      0.2963                 0.2918                 0.5933

                     46                     47                     48
                      A                      A                      A
 Frequencies --    657.9066               658.0862               658.4950
 Red. masses --      4.3374                 4.1384                 3.5823
 Frc consts  --      1.1061                 1.0560                 0.9152
 IR Inten    --      7.8040                 5.9041                 6.9422

                     49                     50                     51
                      A                      A                      A
 Frequencies --    660.9824               661.0153               662.0376
 Red. masses --      6.0157                 5.6408                 7.8208
 Frc consts  --      1.5485                 1.4521                 2.0196
 IR Inten    --     82.6320                77.2583                22.1681

                     52                     53                     54
                      A                      A                      A
 Frequencies --    760.3391               760.8026               760.9828
 Red. masses --      1.2488                 1.2473                 1.2494
 Frc consts  --      0.4254                 0.4254                 0.4263
 IR Inten    --     23.2843                23.8455                26.4541

                     55                     56                     57
                      A                      A                      A
 Frequencies --    768.5337               769.9162               770.1965
 Red. masses --      7.2127                 7.6468                 7.6789
 Frc consts  --      2.5100                 2.6706                 2.6838
 IR Inten    --      0.6471               171.8136               173.8443

                     58                     59                     60
                      A                      A                      A
 Frequencies --    794.9189               795.3031               795.6945
 Red. masses --      2.5566                 2.5854                 2.6075
 Frc consts  --      0.9518                 0.9635                 0.9727
 IR Inten    --     15.0481                14.3874                 7.1892

                     61                     62                     63
                      A                      A                      A
 Frequencies --    817.0246               817.1336               817.5451
 Red. masses --      5.3897                 5.3936                 5.2407
 Frc consts  --      2.1197                 2.1219                 2.0638
 IR Inten    --     17.4375                17.4030                20.4597

                     64                     65                     66
                      A                      A                      A
 Frequencies --    829.9597               830.1213               831.1821
 Red. masses --      1.9125                 1.9053                 1.8948
 Frc consts  --      0.7762                 0.7736                 0.7713
 IR Inten    --     31.1217                31.3017                30.3684

                     67                     68                     69
                      A                      A                      A
 Frequencies --    880.4912               880.6742               880.7758
 Red. masses --      1.4839                 1.4829                 1.4823
 Frc consts  --      0.6778                 0.6776                 0.6775
 IR Inten    --      4.4459                 4.7106                 5.1722

                     70                     71                     72
                      A                      A                      A
 Frequencies --    925.9440               926.0858               929.5700
 Red. masses --      5.8756                 5.8917                 5.8857
 Frc consts  --      2.9681                 2.9771                 2.9965
 IR Inten    --      1.7491                 1.8150                 0.0839

                     73                     74                     75
                      A                      A                      A
 Frequencies --    945.3839               946.3059               951.6796
 Red. masses --      1.3874                 1.3863                 1.3766
 Frc consts  --      0.7306                 0.7314                 0.7346
 IR Inten    --      1.0332                 1.0170                 0.5480

                     76                     77                     78
                      A                      A                      A
 Frequencies --    977.7079               977.9457               978.1032
 Red. masses --      1.2840                 1.2838                 1.2838
 Frc consts  --      0.7231                 0.7234                 0.7236
 IR Inten    --      0.1629                 0.1524                 0.1661

                     79                     80                     81
                      A                      A                      A
 Frequencies --    993.1745               993.4657               994.2506
 Red. masses --      1.3263                 1.3258                 1.3247
 Frc consts  --      0.7708                 0.7710                 0.7716
 IR Inten    --      0.7360                 0.7140                 0.7236

                     82                     83                     84
                      A                      A                      A
 Frequencies --   1065.5941              1066.6045              1067.0183
 Red. masses --      2.6553                 2.6153                 2.6046
 Frc consts  --      1.7764                 1.7530                 1.7472
 IR Inten    --      8.1535                 2.1675                 2.3364

                     85                     86                     87
                      A                      A                      A
 Frequencies --   1087.2632              1087.3139              1088.0029
 Red. masses --      1.8676                 1.8684                 1.8825
 Frc consts  --      1.3008                 1.3014                 1.3129
 IR Inten    --      3.1129                 4.5369                 3.8250

                     88                     89                     90
                      A                      A                      A
 Frequencies --   1137.4101              1137.5975              1140.3845
 Red. masses --      2.1711                 2.1712                 2.1115
 Frc consts  --      1.6549                 1.6555                 1.6179
 IR Inten    --     76.0471                75.6008                13.2634

                     91                     92                     93
                      A                      A                      A
 Frequencies --   1166.3440              1166.6415              1167.0411
 Red. masses --      1.2627                 1.2649                 1.2585
 Frc consts  --      1.0121                 1.0143                 1.0099
 IR Inten    --      0.0558                 0.0558                 0.0443

                     94                     95                     96
                      A                      A                      A
 Frequencies --   1202.5838              1202.6559              1203.3507
 Red. masses --      1.4836                 1.4849                 1.4915
 Frc consts  --      1.2641                 1.2654                 1.2725
 IR Inten    --      3.9021                 3.8733                 2.9776

                     97                     98                     99
                      A                      A                      A
 Frequencies --   1254.0868              1254.7860              1254.9697
 Red. masses --      2.1498                 2.1445                 2.1515
 Frc consts  --      1.9921                 1.9894                 1.9965
 IR Inten    --      0.2863                 0.2552                 0.2820

                    100                    101                    102
                      A                      A                      A
 Frequencies --   1261.9079              1262.0152              1268.5907
 Red. masses --      1.8470                 1.8445                 1.8733
 Frc consts  --      1.7329                 1.7308                 1.7762
 IR Inten    --     46.1139                45.7980                 2.7821

                    103                    104                    105
                      A                      A                      A
 Frequencies --   1334.7582              1334.9927              1336.5342
 Red. masses --      3.6001                 3.5967                 3.6573
 Frc consts  --      3.7790                 3.7767                 3.8492
 IR Inten    --     37.3003                37.8140                 1.7332

                    106                    107                    108
                      A                      A                      A
 Frequencies --   1375.6709              1375.7510              1379.9920
 Red. masses --      2.2665                 2.2717                 2.1223
 Frc consts  --      2.5272                 2.5332                 2.3812
 IR Inten    --     77.5435                77.2148                 0.1402

                    109                    110                    111
                      A                      A                      A
 Frequencies --   1417.1168              1417.3157              1420.7865
 Red. masses --      6.9437                 7.0095                 8.9989
 Frc consts  --      8.2158                 8.2960                10.7028
 IR Inten    --     91.9951                91.9737               197.2426

                    112                    113                    114
                      A                      A                      A
 Frequencies --   1432.0520              1432.6176              1434.9442
 Red. masses --      3.2465                 3.2234                 2.8111
 Frc consts  --      3.9227                 3.8978                 3.4104
 IR Inten    --     61.9467                62.1995                16.7960

                    115                    116                    117
                      A                      A                      A
 Frequencies --   1467.8198              1468.2630              1468.4068
 Red. masses --      2.0113                 2.0075                 2.0075
 Frc consts  --      2.5531                 2.5499                 2.5504
 IR Inten    --      0.5035                10.9376                10.6769

                    118                    119                    120
                      A                      A                      A
 Frequencies --   1512.2233              1512.4162              1526.5397
 Red. masses --      3.8450                 3.8537                 3.9476
 Frc consts  --      5.1806                 5.1936                 5.4200
 IR Inten    --    390.5966               391.5037                48.4307

                    121                    122                    123
                      A                      A                      A
 Frequencies --   1546.0143              1546.2554              1549.4691
 Red. masses --      3.7987                 3.7949                 4.3875
 Frc consts  --      5.3494                 5.3459                 6.2063
 IR Inten    --    136.5229               136.1447                21.2443

                    124                    125                    126
                      A                      A                      A
 Frequencies --   1628.3349              1629.7212              1629.8433
 Red. masses --      5.4627                 5.3753                 5.4050
 Frc consts  --      8.5339                 8.4116                 8.4594
 IR Inten    --      0.9489                86.1393                85.8854

                    127                    128                    129
                      A                      A                      A
 Frequencies --   1633.7586              1634.0081              1634.1619
 Red. masses --      5.7022                 5.7248                 5.7301
 Frc consts  --      8.9674                 9.0057                 9.0158
 IR Inten    --      7.3939                 7.4655                 1.2879

                    130                    131                    132
                      A                      A                      A
 Frequencies --   1654.1922              1654.2726              1660.7894
 Red. masses --      6.8520                 6.8635                 7.0868
 Frc consts  --     11.0469                11.0665                11.5167
 IR Inten    --    146.3678               147.6114                 0.0566

                    133                    134                    135
                      A                      A                      A
 Frequencies --   3179.4596              3179.7647              3179.8797
 Red. masses --      1.0868                 1.0868                 1.0868
 Frc consts  --      6.4733                 6.4745                 6.4748
 IR Inten    --     12.4849                12.5767                10.9071

                    136                    137                    138
                      A                      A                      A
 Frequencies --   3185.7551              3185.7598              3185.7735
 Red. masses --      1.0892                 1.0892                 1.0892
 Frc consts  --      6.5131                 6.5132                 6.5132
 IR Inten    --      5.0724                 4.8905                 3.9278

                    139                    140                    141
                      A                      A                      A
 Frequencies --   3201.0696              3201.2338              3201.4445
 Red. masses --      1.0934                 1.0934                 1.0934
 Frc consts  --      6.6010                 6.6018                 6.6026
 IR Inten    --     28.8619                24.7927                18.8429

                    142                    143                    144
                      A                      A                      A
 Frequencies --   3207.4366              3208.1815              3208.8795
 Red. masses --      1.0897                 1.0897                 1.0899
 Frc consts  --      6.6050                 6.6083                 6.6123
 IR Inten    --      8.1581                 7.7914                 6.5835

                    145                    146                    147
                      A                      A                      A
 Frequencies --   3216.3716              3216.4476              3216.9721
 Red. masses --      1.0932                 1.0932                 1.0932
 Frc consts  --      6.6633                 6.6638                 6.6657
 IR Inten    --      7.5212                 9.9267                 9.0577

                    148                    149                    150
                      A                      A                      A
 Frequencies --   3221.6378              3222.2709              3223.0405
 Red. masses --      1.0963                 1.0961                 1.0959
 Frc consts  --      6.7039                 6.7056                 6.7073
 IR Inten    --      6.1978                 6.9291                14.1862

 - Thermochemistry -
 -------------------
 Temperature   298.150 Kelvin.  Pressure   1.00000 Atm.
 Atom     1 has atomic number 13 and mass  26.98154

 Molecular mass:   459.11636 amu.
 Principal axes and moments of inertia in atomic units:
                           1         2         3
     Eigenvalues --  ******************************
           X           -0.09108   0.98235   0.16341
           Y            0.36030  -0.12047   0.92503
           Z            0.92838   0.14313  -0.34296
 This molecule is an asymmetric top.
 Rotational symmetry number  1.
 Warning -- assumption of classical behavior for rotation
           may cause significant error
 Rotational temperatures (Kelvin)      0.00676     0.00674     0.00442
 Rotational constants (GHZ):           0.14088     0.14050     0.09209
 Zero-point vibrational energy    1032219.7 (Joules/Mol)
                                  246.70642 (Kcal/Mol)
 Warning -- explicit consideration of  45 degrees of freedom as
           vibrations may cause significant error
 Vibrational temperatures:     34.48    36.31    58.73    66.98    68.34
          (Kelvin)             76.71   195.68   204.65   205.25   230.36
                              230.90   247.33   270.31   271.33   286.59
                              315.47   315.88   324.27   415.06   415.89
                              419.80   485.96   573.87   574.21   614.03
                              624.38   624.63   660.65   675.65   675.93
                              690.16   690.23   692.47   727.51   727.78
                              732.42   777.93   800.16   800.38   842.30
                              844.64   844.73   871.13   871.36   873.62
                              946.58   946.84   947.43   951.00   951.05
                              952.52  1093.96  1094.62  1094.88  1105.75
                             1107.74  1108.14  1143.71  1144.26  1144.83
                             1175.51  1175.67  1176.26  1194.13  1194.36
                             1195.88  1266.83  1267.09  1267.24  1332.23
                             1332.43  1337.44  1360.19  1361.52  1369.25
                             1406.70  1407.04  1407.27  1428.95  1429.37
                             1430.50  1533.15  1534.60  1535.20  1564.33
                             1564.40  1565.39  1636.48  1636.75  1640.76
                             1678.11  1678.53  1679.11  1730.25  1730.35
                             1731.35  1804.35  1805.35  1805.62  1815.60
                             1815.76  1825.22  1920.42  1920.75  1922.97
                             1979.28  1979.40  1985.50  2038.91  2039.20
                             2044.19  2060.40  2061.21  2064.56  2111.86
                             2112.50  2112.71  2175.75  2176.03  2196.35
                             2224.37  2224.71  2229.34  2342.81  2344.80
                             2344.98  2350.61  2350.97  2351.19  2380.01
                             2380.13  2389.50  4574.53  4574.97  4575.13
                             4583.59  4583.59  4583.61  4605.62  4605.86
                             4606.16  4614.78  4615.85  4616.86  4627.64
                             4627.74  4628.50  4635.21  4636.12  4637.23

 Zero-point correction=                           0.393152 (Hartree/Particle)
 Thermal correction to Energy=                    0.418319
 Thermal correction to Enthalpy=                  0.419264
 Thermal correction to Gibbs Free Energy=         0.338193
 Sum of electronic and zero-point Energies=          -1671.991782
 Sum of electronic and thermal Energies=             -1671.966615
 Sum of electronic and thermal Enthalpies=           -1671.965671
 Sum of electronic and thermal Free Energies=        -1672.046741

                     E (Thermal)             CV                S
                      KCal/Mol        Cal/Mol-Kelvin    Cal/Mol-Kelvin
 Total                  262.499            104.505            170.627
 Electronic               0.000              0.000              0.000
 Translational            0.889              2.981             44.261
 Rotational               0.889              2.981             36.421
 Vibrational            260.722             98.544             89.945
 Vibration     1          0.593              1.985              6.275
 Vibration     2          0.593              1.985              6.172
 Vibration     3          0.594              1.981              5.219
 Vibration     4          0.595              1.979              4.959
 Vibration     5          0.595              1.979              4.919
 Vibration     6          0.596              1.976              4.691
 Vibration     7          0.614              1.917              2.859
 Vibration     8          0.616              1.911              2.774
 Vibration     9          0.616              1.911              2.768
 Vibration    10          0.622              1.891              2.548
 Vibration    11          0.622              1.891              2.544
 Vibration    12          0.626              1.877              2.415
 Vibration    13          0.633              1.857              2.249
 Vibration    14          0.633              1.856              2.242
 Vibration    15          0.637              1.841              2.141
 Vibration    16          0.647              1.812              1.965
 Vibration    17          0.647              1.811              1.963
 Vibration    18          0.650              1.802              1.915
 Vibration    19          0.685              1.695              1.483
 Vibration    20          0.686              1.694              1.479
 Vibration    21          0.687              1.689              1.464
 Vibration    22          0.718              1.600              1.223
 Vibration    23          0.765              1.473              0.967
 Vibration    24          0.765              1.472              0.966
 Vibration    25          0.788              1.412              0.869
 Vibration    26          0.795              1.396              0.846
 Vibration    27          0.795              1.396              0.845
 Vibration    28          0.817              1.341              0.769
 Vibration    29          0.827              1.318              0.739
 Vibration    30          0.827              1.317              0.738
 Vibration    31          0.836              1.295              0.711
 Vibration    32          0.836              1.295              0.711
 Vibration    33          0.838              1.292              0.707
 Vibration    34          0.861              1.237              0.644
 Vibration    35          0.861              1.237              0.644
 Vibration    36          0.864              1.230              0.636
 Vibration    37          0.896              1.160              0.564
 Vibration    38          0.912              1.126              0.532
 Vibration    39          0.912              1.126              0.531
 Vibration    40          0.942              1.063              0.475
 Vibration    41          0.944              1.059              0.472
 Vibration    42          0.944              1.059              0.472
 Vibration    43          0.964              1.020              0.440
 Vibration    44          0.964              1.020              0.440
 Vibration    45          0.966              1.017              0.437

 Normal termination of Gaussian 09 at Wed Jan 23 19:18:49 2019.
