 Gaussian 09, Revision D.01,
 Gaussian 09:  ES64L-G09RevD.01 24-Apr-2013

 ---------------------------------------
 # td(NStates=1) B3LYP/6-31G(d,p) nosymm
 ---------------------------------------

 --------------------
 AlQ3Abs Single Point
 --------------------
 Symbolic Z-matrix:
 Charge =  0 Multiplicity = 1

                          Input orientation:
 ---------------------------------------------------------------------
 Center     Atomic      Atomic             Coordinates (Angstroms)
 Number     Number       Type             X           Y           Z
 ---------------------------------------------------------------------
      1         13           0       -0.554711   -1.191733    0.381056
      2          8           0        0.771196   -2.398585    0.226839
      3          8           0       -2.019808   -2.103351   -0.278986
      4          8           0       -0.946620   -1.408774    2.260234
      5          6           0       -0.187796   -0.782380    3.034392
      6          6           0       -0.305631   -0.875582    4.481861
      7          6           0        0.611702   -0.128031    5.290383
      8          6           0        1.386831    0.773357    4.685261
      9          6           0        1.491731    1.007511    3.347974
     10          6           0        0.761996    0.188214    2.518467
     11          6           0        2.375720    1.785951    2.691414
     12          6           0        2.332839    1.941342    1.356637
     13          6           0        1.430700    1.096962    0.605546
     14          7           0        0.716793    0.289925    1.205020
     15          6           0        1.367902   -2.392308   -0.985975
     16          6           0        2.427957   -3.290771   -1.301629
     17          6           0        2.979239   -3.414652   -2.618412
     18          6           0        2.576777   -2.490340   -3.595667
     19          6           0        1.611781   -1.434928   -3.304198
     20          6           0        0.958257   -1.490914   -2.043006
     21          6           0        1.009004   -0.580993   -4.292451
     22          6           0        0.036386    0.334973   -3.894851
     23          6           0       -0.402652    0.290727   -2.510408
     24          7           0        0.004650   -0.729459   -1.675810
     25          6           0       -3.109831   -1.462771   -0.543729
     26          6           0       -4.316844   -2.058881   -1.028571
     27          6           0       -5.470362   -1.272963   -1.109796
     28          6           0       -5.564223    0.131629   -0.867108
     29          6           0       -3.216429   -0.116669   -0.299414
     30          6           0       -4.404623    0.739922   -0.487394
     31          6           0       -4.203898    2.113456   -0.103065
     32          6           0       -3.110523    2.663520    0.445669
     33          6           0       -1.937659    1.780221    0.547453
     34          7           0       -2.054170    0.496602    0.246666
     35          1           0       -4.399126   -3.208608   -0.990681
     36          1           0       -6.184198   -1.901487   -1.275847
     37          1           0       -6.532532    0.850421   -1.318495
     38          1           0       -5.225530    2.764132   -0.143135
     39          1           0       -3.072443    3.807461    0.825538
     40          1           0       -1.122860    2.372181    1.080074
     41          1           0       -0.906452   -1.462359    4.841246
     42          1           0        0.571237   -0.235292    6.348300
     43          1           0        2.107524    1.326629    5.431193
     44          1           0        3.154841    2.753018    3.290566
     45          1           0        2.897806    2.556720    0.696441
     46          1           0        1.265150    1.017182   -0.577093
     47          1           0        2.858632   -3.965766   -0.305701
     48          1           0        3.865860   -4.177598   -2.950336
     49          1           0        2.968750   -2.367785   -4.454713
     50          1           0       -1.058519    1.089110   -2.270324
     51          1           0        1.405745   -0.373068   -5.340886
     52          1           0       -0.355835    1.062984   -4.478088
 ---------------------------------------------------------------------

 SCF Done:  E(RB3LYP) =  -1672.07761239     A.U. after   16 cycles

 Excitation energies and oscillator strengths:

 Excited state symmetry could not be determined.
 Excited State   1:      Singlet-?Sym    2.4318 eV  509.84 nm  f=0.0000  <S**2>=0.000
     119 ->120         0.70671
 This state for optimization and/or second-order correction.
 Total Energy, E(TD-HF/TD-KS) =  -1671.98824376
 Copying the excited state density for this state as the 1-particle RhoCI density.

 Alpha  occ. eigenvalues --  -56.05629 -19.12876 -19.12277 -19.11447 -14.38058
 Alpha  occ. eigenvalues --  -14.37309 -14.36230 -10.25704 -10.25568 -10.25318
 Alpha  occ. eigenvalues --  -10.24436 -10.24232 -10.23761 -10.23705 -10.23412
 Alpha  occ. eigenvalues --  -10.23232 -10.22744 -10.22484 -10.22431 -10.22139
 Alpha  occ. eigenvalues --  -10.22061 -10.21715 -10.21519 -10.21253 -10.20702
 Alpha  occ. eigenvalues --  -10.20621 -10.20613 -10.19550 -10.18919 -10.18710
 Alpha  occ. eigenvalues --  -10.18465 -10.17866 -10.16976 -10.15077  -4.12788
 Alpha  occ. eigenvalues --   -2.68259  -2.68154  -2.68133  -1.03168  -1.02040
 Alpha  occ. eigenvalues --   -1.01082  -0.99676  -0.97468  -0.94535  -0.85903
 Alpha  occ. eigenvalues --   -0.84579  -0.84265  -0.81851  -0.80942  -0.80449
 Alpha  occ. eigenvalues --   -0.76394  -0.75886  -0.75561  -0.72801  -0.72600
 Alpha  occ. eigenvalues --   -0.71424  -0.65997  -0.65450  -0.65173  -0.64501
 Alpha  occ. eigenvalues --   -0.64133  -0.63056  -0.60308  -0.58318  -0.57965
 Alpha  occ. eigenvalues --   -0.54796  -0.54212  -0.53429  -0.53040  -0.52408
 Alpha  occ. eigenvalues --   -0.51674  -0.51641  -0.51253  -0.50154  -0.47569
 Alpha  occ. eigenvalues --   -0.46141  -0.46093  -0.45793  -0.45342  -0.45067
 Alpha  occ. eigenvalues --   -0.44484  -0.44323  -0.44195  -0.43569  -0.43263
 Alpha  occ. eigenvalues --   -0.42643  -0.41979  -0.41565  -0.41523  -0.41144
 Alpha  occ. eigenvalues --   -0.40200  -0.38562  -0.38085  -0.37755  -0.37587
 Alpha  occ. eigenvalues --   -0.37172  -0.36853  -0.36644  -0.36470  -0.35081
 Alpha  occ. eigenvalues --   -0.34708  -0.34515  -0.33676  -0.33030  -0.32464
 Alpha  occ. eigenvalues --   -0.30862  -0.30194  -0.29852  -0.29385  -0.29192
 Alpha  occ. eigenvalues --   -0.29046  -0.27885  -0.26886  -0.25959  -0.25189
 Alpha  occ. eigenvalues --   -0.24999  -0.20293  -0.20053  -0.18083
 Alpha virt. eigenvalues --   -0.07440  -0.06121  -0.04496  -0.03543  -0.02569
 Alpha virt. eigenvalues --   -0.01736   0.01571   0.02483   0.03897   0.05151
 Alpha virt. eigenvalues --    0.05917   0.06444   0.07483   0.07729   0.08344

 Mulliken charges:
               1
     1  Al   1.049251
     2  O   -0.631247
     3  O   -0.629367
     4  O   -0.612706
     5  C    0.419081
     6  C   -0.112423
     7  C   -0.057412
     8  C   -0.187315
     9  C    0.222044
    10  C    0.146246
    11  C   -0.098523
    12  C   -0.125845
    13  C    0.071754
    14  N   -0.487013
    15  C    0.417910
    16  C   -0.157787
    17  C   -0.083445
    18  C   -0.098532
    19  C    0.090198
    20  C    0.253144
    21  C   -0.095456
    22  C   -0.097412
    23  C    0.089642
    24  N   -0.582379
    25  C    0.445669
    26  C   -0.174146
    27  C   -0.046714
    28  C   -0.188604
    29  C    0.170140
    30  C    0.172836
    31  C   -0.081517
    32  C   -0.136364
    33  C    0.106979
    34  N   -0.582017
    35  H    0.106651
    36  H    0.077768
    37  H    0.071986
    38  H    0.083825
    39  H    0.106079
    40  H    0.127584
    41  H    0.045266
    42  H    0.086300
    43  H    0.055938
    44  H    0.063620
    45  H    0.101741
    46  H    0.094768
    47  H    0.093615
    48  H    0.098410
    49  H    0.061034
    50  H    0.129232
    51  H    0.108101
    52  H    0.099412
 Sum of Mulliken charges =   0.00000

 Dipole moment (field-independent basis, Debye):
    X=              1.1644    Y=              6.2077    Z=             -4.4064  Tot=              7.7011
 Quadrupole moment (field-independent basis, Debye-Ang):
   XX=           -185.9312   YY=           -193.6582   ZZ=           -181.7405
   XY=             -5.7531   XZ=             -0.5286   YZ=              3.7749

 Normal termination of Gaussian 09 at Fri Mar  8 14:11:31 2019.
