 Gaussian 16, Revision A.03,
 Gaussian 16:  ES64L-G16RevA.03 25-Dec-2016

 ----------------------------------------------------------------------
 # td=(NStates=1) iop(3/107=0140000000,3/108=0140000000) CAM-B3LYP/6-31
 G(d,p)
 ----------------------------------------------------------------------

 --
 TD
 --
 Symbolic Z-matrix:
 Charge =  0 Multiplicity = 1

                         Standard orientation:
 ---------------------------------------------------------------------
 Center     Atomic      Atomic             Coordinates (Angstroms)
 Number     Number       Type             X           Y           Z
 ---------------------------------------------------------------------
      1         12           0       -7.144192    0.662703    0.130401
      2          6           0       -4.845364   -1.969057    0.395665
      3          6           0       -4.796277    2.753684    1.101260
      4          6           0       -9.371724    3.201876   -0.455640
      5          6           0       -9.575938   -1.694613   -0.875024
      6          7           0       -5.115690    0.388685    0.758094
      7          6           0       -4.354340   -0.803578    0.830968
      8          6           0       -2.895070   -0.466819    1.264672
      9          6           0       -3.004438    0.950434    1.642452
     10          6           0       -4.470177    1.402183    1.158346
     11          6           0       -2.861094    1.176022    3.130888
     12          6           0       -1.951333   -0.615300   -0.009146
     13          6           0       -0.556737   -0.519575    0.448917
     14          6           0        0.599288   -0.721022   -0.561184
     15          8           0        0.302999   -1.215431   -1.763199
     16          8           0        1.782209   -0.534514   -0.152750
     17          7           0       -7.093668    2.624719    0.345160
     18          6           0       -6.010914    3.368215    0.802159
     19          6           0       -6.392639    4.738517    0.782383
     20          6           0       -7.695960    4.794962    0.405118
     21          6           0       -8.082243    3.432233    0.103056
     22          6           0       -5.438239    5.860240    1.226383
     23          6           0       -8.395260    6.080591    0.105171
     24          6           0       -8.392336    7.123386    0.854534
     25          7           0       -9.149800    0.707583   -0.369368
     26          6           0       -9.860921    1.842375   -0.662605
     27          6           0      -11.220698    1.575518   -1.151452
     28          6           0      -11.292797    0.220565   -1.219137
     29          6           0       -9.931095   -0.331792   -0.666176
     30          6           0      -12.277662    2.574311   -1.450675
     31          6           0      -12.418492   -0.666200   -1.805830
     32          6           0      -12.236364   -1.188763   -3.180453
     33          7           0       -7.279354   -1.339685   -0.148334
     34          6           0       -8.317525   -2.155926   -0.511168
     35          6           0       -7.969253   -3.562743   -0.555471
     36          6           0       -6.566342   -3.507785   -0.213088
     37          6           0       -6.197688   -2.110539    0.001445
     38          6           0       -8.586098   -4.813984   -0.837803
     39          6           0       -5.441480   -4.323141    0.165137
     40          8           0       -5.225296   -5.572675    0.029617
     41          6           0       -4.200579   -3.285912    0.508574
     42          6           0       -3.665220   -3.715087    1.895925
     43          8           0       -3.880001   -3.087788    2.824371
     44          8           0       -2.717410   -4.729648    1.781097
     45          6           0       -2.233274   -5.231627    3.089137
     46          6           0        2.786961   -0.711565   -1.134274
     47          6           0        4.138711   -0.526460   -0.552996
     48          6           0        5.157028    0.333890   -0.892255
     49          6           0        5.094482    1.301381   -2.146748
     50          6           0        6.456649    0.290745   -0.215955
     51          6           0        7.640658   -0.012209   -1.035751
     52          6           0        8.899784   -0.149210   -0.048809
     53          6           0       10.011934   -0.496891   -0.790956
     54          6           0        9.943306   -1.968000   -1.283427
     55          6           0       11.451647   -0.247286    0.021127
     56          6           0       12.717603   -0.343530   -0.664792
     57          6           0       13.926302    0.201219    0.110791
     58          6           0       15.329456   -0.022824   -0.549077
     59          6           0       15.636529   -1.624203   -0.722738
     60          6           0       16.460323    0.549393    0.328524
     61          6           0       17.879843    0.472405   -0.222561
     62          6           0       18.885671    1.178112    0.631415
     63          6           0       20.310969    1.253862    0.207581
     64          6           0       20.454172    2.194913   -1.030121
     65          6           0       21.247956    1.716513    1.280405
     66          1           0       -4.064652    3.457151    1.432256
     67          1           0       -9.860670    4.001646   -0.614325
     68          1           0      -10.313061   -2.212566   -1.089705
     69          1           0       -2.471922   -1.169938    1.916943
     70          1           0       -2.070272    1.452089    1.134001
     71          1           0       -1.928550    0.709045    3.382237
     72          1           0       -3.062529    2.203223    3.557552
     73          1           0       -3.515621    0.467095    3.650997
     74          1           0       -2.196146   -1.562132   -0.317294
     75          1           0       -2.138729   -0.079498   -1.061521
     76          1           0       -0.417766    0.535481    0.737332
     77          1           0       -0.265044   -1.420655    1.194274
     78          1           0       -5.290833    6.789361    0.489995
     79          1           0       -5.708905    6.510479    2.288280
     80          1           0       -4.412199    5.397811    1.376961
     81          1           0       -9.234073    6.012868   -0.502297
     82          1           0       -9.013834    8.014406    0.680951
     83          1           0       -7.593946    7.291763    1.681327
     84          1           0      -12.138003    3.107019   -2.580976
     85          1           0      -13.268242    2.060931   -1.597048
     86          1           0      -12.209617    3.417553   -0.720241
     87          1           0      -12.433309   -1.361741   -1.099319
     88          1           0      -13.283804   -0.197809   -1.621508
     89          1           0      -13.133638   -1.671862   -3.457055
     90          1           0      -12.314763   -0.253535   -4.014952
     91          1           0      -11.289311   -1.561970   -3.502632
     92          1           0       -9.187238   -4.717019   -1.863101
     93          1           0       -8.031523   -5.603340   -0.911171
     94          1           0       -9.617562   -5.135226   -0.104750
     95          1           0       -3.284577   -3.471356   -0.250698
     96          1           0       -1.462980   -4.659666    3.422772
     97          1           0       -3.169235   -5.471819    3.899238
     98          1           0       -1.726677   -6.239233    2.816420
     99          1           0        2.569866   -1.850256   -1.298966
    100          1           0        2.712919   -0.341213   -2.135483
    101          1           0        4.576657   -1.224956    0.262179
    102          1           0        4.086016    1.510474   -2.649509
    103          1           0        5.501973    2.243477   -1.787718
    104          1           0        5.733178    0.836226   -3.029246
    105          1           0        6.639643    1.399886    0.372579
    106          1           0        6.294360   -0.290533    0.628163
    107          1           0        7.577720   -1.094675   -1.412018
    108          1           0        7.753591    0.538427   -1.902696
    109          1           0        8.986128    0.697670    0.421160
    110          1           0        8.520376   -0.910554    0.585928
    111          1           0       10.040610   -0.049381   -1.753057
    112          1           0        9.260702   -2.188931   -1.863328
    113          1           0       10.849586   -2.268374   -1.828540
    114          1           0        9.828307   -2.596730   -0.392329
    115          1           0       11.322877    0.658510    0.493156
    116          1           0       11.503159   -0.930172    0.794597
    117          1           0       12.973199   -1.377204   -0.603568
    118          1           0       12.740509    0.046903   -1.636191
    119          1           0       13.841343    1.081106    0.582358
    120          1           0       13.976380   -0.627726    1.112171
    121          1           0       15.372726    0.480967   -1.655678
    122          1           0       15.475258   -2.309707    0.123249
    123          1           0       14.980662   -1.981894   -1.519167
    124          1           0       16.626942   -1.678250   -1.125352
    125          1           0       16.109392    1.493712    0.686004
    126          1           0       16.447150   -0.158941    1.216366
    127          1           0       18.210645   -0.629686   -0.281785
    128          1           0       17.948062    0.721240   -1.337992
    129          1           0       18.750890    2.279255    0.860298
    130          1           0       18.983981    0.641557    1.625176
    131          1           0       20.647894    0.257156   -0.118657
    132          1           0       20.234232    3.091647   -0.863628
    133          1           0       21.495732    2.158440   -1.521972
    134          1           0       19.839350    1.920608   -1.844316
    135          1           0       21.198011    1.066205    2.227302
    136          1           0       22.272843    1.588663    0.817565
    137          1           0       21.184057    2.845986    1.702929
 ---------------------------------------------------------------------

 SCF Done:  E(RCAM-B3LYP) =  -2933.38590548     A.U. after   16 cycles

 Excitation energies and oscillator strengths:

 Excited State   1:      Singlet-A      2.0192 eV  614.03 nm  f=0.2859  <S**2>=0.000
     240 -> 243        0.20210
     241 -> 242        0.67571
 This state for optimization and/or second-order correction.
 Total Energy, E(TD-HF/TD-DFT) =  -2933.31170212
 Copying the excited state density for this state as the 1-particle RhoCI density.

 The electronic state is 1-A.
 Alpha  occ. eigenvalues --  -46.80115 -19.24770 -19.21087 -19.17100 -19.14678
 Alpha  occ. eigenvalues --  -19.14509 -14.37751 -14.35793 -14.35755 -14.35012
 Alpha  occ. eigenvalues --  -10.34570 -10.33835 -10.29684 -10.28478 -10.27903
 Alpha  occ. eigenvalues --  -10.26572 -10.25832 -10.25661 -10.25518 -10.24887
 Alpha  occ. eigenvalues --  -10.24876 -10.24850 -10.24850 -10.24589 -10.24492
 Alpha  occ. eigenvalues --  -10.24160 -10.24109 -10.23769 -10.23531 -10.23487
 Alpha  occ. eigenvalues --  -10.23342 -10.23267 -10.22859 -10.22641 -10.22586
 Alpha  occ. eigenvalues --  -10.22560 -10.22525 -10.22333 -10.22269 -10.22207
 Alpha  occ. eigenvalues --  -10.22103 -10.21941 -10.21880 -10.21780 -10.21752
 Alpha  occ. eigenvalues --  -10.21699 -10.21673 -10.21662 -10.21637 -10.21507
 Alpha  occ. eigenvalues --  -10.21419 -10.21394 -10.21224 -10.20884 -10.20846
 Alpha  occ. eigenvalues --  -10.20755 -10.20714 -10.20633 -10.20421 -10.20106
 Alpha  occ. eigenvalues --  -10.19385 -10.19108 -10.19024 -10.18269 -10.18201
 Alpha  occ. eigenvalues --   -3.08834  -1.83769  -1.83304  -1.83252  -1.17057
 Alpha  occ. eigenvalues --   -1.13801  -1.05000  -1.01459  -1.00663  -0.99858
 Alpha  occ. eigenvalues --   -0.99009  -0.98302  -0.97825  -0.87608  -0.87529
 Alpha  occ. eigenvalues --   -0.86080  -0.85507  -0.85152  -0.84652  -0.84093
 Alpha  occ. eigenvalues --   -0.83662  -0.83612  -0.82740  -0.82347  -0.81944
 Alpha  occ. eigenvalues --   -0.80805  -0.79863  -0.79348  -0.79004  -0.78277
 Alpha  occ. eigenvalues --   -0.76811  -0.76371  -0.75718  -0.75395  -0.73272
 Alpha  occ. eigenvalues --   -0.72591  -0.72347  -0.71714  -0.71604  -0.71010
 Alpha  occ. eigenvalues --   -0.70855  -0.70475  -0.70186  -0.69711  -0.68339
 Alpha  occ. eigenvalues --   -0.67469  -0.66728  -0.66085  -0.64812  -0.63635
 Alpha  occ. eigenvalues --   -0.63435  -0.62494  -0.61895  -0.61432  -0.61311
 Alpha  occ. eigenvalues --   -0.60519  -0.60363  -0.60224  -0.58300  -0.57642
 Alpha  occ. eigenvalues --   -0.57300  -0.56676  -0.56309  -0.55990  -0.55560
 Alpha  occ. eigenvalues --   -0.55122  -0.54694  -0.53932  -0.53742  -0.52958
 Alpha  occ. eigenvalues --   -0.52634  -0.51898  -0.51755  -0.51440  -0.50960
 Alpha  occ. eigenvalues --   -0.50674  -0.50155  -0.50102  -0.49812  -0.49783
 Alpha  occ. eigenvalues --   -0.49304  -0.49029  -0.48788  -0.48508  -0.48405
 Alpha  occ. eigenvalues --   -0.48166  -0.47830  -0.47462  -0.47351  -0.47141
 Alpha  occ. eigenvalues --   -0.46715  -0.46544  -0.46435  -0.46151  -0.45928
 Alpha  occ. eigenvalues --   -0.45729  -0.45626  -0.45328  -0.45011  -0.44835
 Alpha  occ. eigenvalues --   -0.44645  -0.44548  -0.44383  -0.44188  -0.44004
 Alpha  occ. eigenvalues --   -0.43613  -0.43437  -0.43169  -0.43058  -0.42788
 Alpha  occ. eigenvalues --   -0.42708  -0.42260  -0.42105  -0.41947  -0.41759
 Alpha  occ. eigenvalues --   -0.41487  -0.41383  -0.41088  -0.40772  -0.40668
 Alpha  occ. eigenvalues --   -0.40528  -0.40406  -0.40362  -0.40257  -0.40002
 Alpha  occ. eigenvalues --   -0.39975  -0.39762  -0.39567  -0.39486  -0.39184
 Alpha  occ. eigenvalues --   -0.39004  -0.38575  -0.38493  -0.38262  -0.38229
 Alpha  occ. eigenvalues --   -0.37893  -0.37707  -0.37288  -0.37154  -0.36931
 Alpha  occ. eigenvalues --   -0.36811  -0.36340  -0.36310  -0.36170  -0.35998
 Alpha  occ. eigenvalues --   -0.35389  -0.35207  -0.35127  -0.34986  -0.34740
 Alpha  occ. eigenvalues --   -0.34273  -0.34225  -0.34063  -0.33522  -0.33453
 Alpha  occ. eigenvalues --   -0.33326  -0.32943  -0.32823  -0.32713  -0.32526
 Alpha  occ. eigenvalues --   -0.32424  -0.32071  -0.31334  -0.30655  -0.30565
 Alpha  occ. eigenvalues --   -0.30139  -0.29765  -0.28595  -0.28360  -0.26618
 Alpha  occ. eigenvalues --   -0.26441  -0.25986  -0.25835  -0.25255  -0.22043
 Alpha  occ. eigenvalues --   -0.19712
 Alpha virt. eigenvalues --   -0.07077  -0.03512  -0.00539   0.02489   0.02861
 Alpha virt. eigenvalues --    0.03555   0.04474   0.05068   0.05367   0.05670
 Alpha virt. eigenvalues --    0.06464   0.08393   0.08966   0.09430   0.09463

 Mulliken charges:
               1
     1  Mg   0.818328
     2  C    0.102688
     3  C   -0.198539
     4  C   -0.102355
     5  C   -0.068940
     6  N   -0.638895
     7  C    0.279770
     8  C   -0.131788
     9  C   -0.127339
    10  C    0.386798
    11  C   -0.316460
    12  C   -0.177520
    13  C   -0.235172
    14  C    0.552607
    15  O   -0.539442
    16  O   -0.385818
    17  N   -0.749558
    18  C    0.311988
    19  C    0.062989
    20  C   -0.039577
    21  C    0.346075
    22  C   -0.367853
    23  C   -0.048418
    24  C   -0.232432
    25  N   -0.658453
    26  C    0.263760
    27  C    0.099045
    28  C   -0.062524
    29  C    0.248900
    30  C   -0.373429
    31  C   -0.210722
    32  C   -0.302307
    33  N   -0.726953
    34  C    0.252369
    35  C    0.098963
    36  C   -0.008442
    37  C    0.307813
    38  C   -0.370929
    39  C    0.324035
    40  O   -0.495546
    41  C   -0.343281
    42  C    0.613138
    43  O   -0.405303
    44  O   -0.473234
    45  C   -0.086538
    46  C    0.006639
    47  C   -0.143012
    48  C    0.132832
    49  C   -0.366313
    50  C   -0.213220
    51  C   -0.197087
    52  C   -0.135326
    53  C   -0.069984
    54  C   -0.319339
    55  C   -0.181751
    56  C   -0.169204
    57  C   -0.165224
    58  C   -0.055148
    59  C   -0.330802
    60  C   -0.151590
    61  C   -0.181893
    62  C   -0.138943
    63  C   -0.062698
    64  C   -0.308985
    65  C   -0.294631
    66  H    0.069412
    67  H    0.037745
    68  H    0.046937
    69  H    0.115182
    70  H    0.085885
    71  H    0.108815
    72  H    0.106959
    73  H    0.121548
    74  H    0.120591
    75  H    0.114048
    76  H    0.125436
    77  H    0.120107
    78  H    0.115553
    79  H    0.091476
    80  H    0.107608
    81  H    0.084789
    82  H    0.103331
    83  H    0.089894
    84  H    0.088185
    85  H    0.118382
    86  H    0.122822
    87  H    0.121343
    88  H    0.102612
    89  H    0.120101
    90  H    0.063091
    91  H    0.128557
    92  H    0.101367
    93  H    0.157578
    94  H    0.079751
    95  H    0.151681
    96  H    0.136047
    97  H    0.114850
    98  H    0.121654
    99  H    0.120072
   100  H    0.148308
   101  H    0.071731
   102  H    0.107615
   103  H    0.121476
   104  H    0.111292
   105  H    0.059457
   106  H    0.106500
   107  H    0.093948
   108  H    0.108572
   109  H    0.096479
   110  H    0.096692
   111  H    0.087135
   112  H    0.110649
   113  H    0.093662
   114  H    0.089802
   115  H    0.084736
   116  H    0.093755
   117  H    0.111934
   118  H    0.093071
   119  H    0.095149
   120  H    0.027565
   121  H    0.057498
   122  H    0.105595
   123  H    0.102323
   124  H    0.105995
   125  H    0.092583
   126  H    0.089972
   127  H    0.089740
   128  H    0.084508
   129  H    0.078804
   130  H    0.079445
   131  H    0.080709
   132  H    0.114249
   133  H    0.080108
   134  H    0.099112
   135  H    0.089081
   136  H    0.099855
   137  H    0.081664
 Sum of Mulliken charges =  -0.00000

 Dipole moment (field-independent basis, Debye):
    X=              1.5405    Y=              5.2114    Z=              0.8187  Tot=              5.4956
 Quadrupole moment (field-independent basis, Debye-Ang):
   XX=           -334.3032   YY=           -399.5581   ZZ=           -395.7061
   XY=            -26.9957   XZ=              6.3522   YZ=             -6.8968

 Normal termination of Gaussian 16 at Tue Sep 10 05:48:06 2019.
