 Gaussian 09, Revision D.01,
 Gaussian 09:  ES64L-G09RevD.01 24-Apr-2013

 -------------------------------------
 # td=(NStates=1) CAM-B3LYP/6-31G(d,p)
 -------------------------------------

 --
 TD
 --
 Symbolic Z-matrix:
 Charge =  0 Multiplicity = 1

                         Standard orientation:
 ---------------------------------------------------------------------
 Center     Atomic      Atomic             Coordinates (Angstroms)
 Number     Number       Type             X           Y           Z
 ---------------------------------------------------------------------
      1         12           0       -7.179702    0.575239    0.109940
      2          6           0       -4.837774   -1.892113    0.458722
      3          6           0       -4.760079    2.883502    1.063986
      4          6           0       -9.380182    3.026408   -0.373421
      5          6           0       -9.447235   -1.733603   -0.865022
      6          7           0       -5.068730    0.504588    0.647789
      7          6           0       -4.354061   -0.625940    0.731638
      8          6           0       -2.978674   -0.358908    1.223243
      9          6           0       -3.100550    1.057478    1.762399
     10          6           0       -4.355235    1.539585    1.063925
     11          6           0       -3.085692    1.203499    3.225248
     12          6           0       -1.878217   -0.549222    0.095572
     13          6           0       -0.387161   -0.317622    0.529333
     14          6           0        0.573367   -0.736145   -0.622283
     15          8           0        0.182382   -1.215139   -1.721325
     16          8           0        1.781147   -0.629911   -0.137886
     17          7           0       -7.094188    2.654385    0.358541
     18          6           0       -6.013618    3.413807    0.689636
     19          6           0       -6.425665    4.761910    0.663398
     20          6           0       -7.733800    4.840809    0.395701
     21          6           0       -8.137402    3.436335    0.078417
     22          6           0       -5.421739    5.871295    0.949423
     23          6           0       -8.527396    6.004775    0.169279
     24          6           0       -8.523685    7.205219    0.843933
     25          7           0       -9.078898    0.722189   -0.482909
     26          6           0       -9.930480    1.828661   -0.664770
     27          6           0      -11.184416    1.470390   -1.136662
     28          6           0      -11.189124    0.035924   -1.210955
     29          6           0       -9.917880   -0.331394   -0.845965
     30          6           0      -12.179260    2.442173   -1.376682
     31          6           0      -12.413591   -0.723308   -1.732241
     32          6           0      -12.352701   -1.072249   -3.248683
     33          7           0       -7.280901   -1.356997   -0.107032
     34          6           0       -8.265515   -2.246640   -0.505512
     35          6           0       -7.784746   -3.695637   -0.500305
     36          6           0       -6.443340   -3.525284   -0.094458
     37          6           0       -6.179034   -2.117088    0.034368
     38          6           0       -8.669285   -4.771329   -0.802607
     39          6           0       -5.267683   -4.356296    0.209601
     40          8           0       -5.218278   -5.515584    0.078899
     41          6           0       -4.154981   -3.333450    0.528010
     42          6           0       -3.616901   -3.756184    1.933069
     43          8           0       -3.641772   -3.042415    2.941773
     44          8           0       -2.770794   -4.806042    1.814727
     45          6           0       -2.168850   -4.981076    3.176258
     46          6           0        2.742387   -0.885979   -1.171874
     47          6           0        4.105254   -0.595950   -0.491115
     48          6           0        5.056721    0.270117   -0.984908
     49          6           0        4.996353    1.056069   -2.181473
     50          6           0        6.392232    0.386706   -0.215151
     51          6           0        7.525185   -0.177706   -0.997971
     52          6           0        8.906359   -0.126141   -0.271372
     53          6           0       10.296754   -0.570604   -0.890734
     54          6           0       10.212121   -2.096459   -1.299462
     55          6           0       11.445910   -0.224963    0.024573
     56          6           0       12.782393   -0.428235   -0.714652
     57          6           0       14.044577   -0.066591    0.105070
     58          6           0       15.375737   -0.160490   -0.533973
     59          6           0       15.676708   -1.720844   -0.838773
     60          6           0       16.476242    0.362937    0.415428
     61          6           0       17.896653    0.578125   -0.176845
     62          6           0       18.844073    1.229070    0.717817
     63          6           0       20.231843    1.474443    0.244428
     64          6           0       20.237646    2.150446   -1.090583
     65          6           0       21.074702    2.076082    1.345337
     66          1           0       -3.865604    3.629767    1.058145
     67          1           0      -10.012811    3.897815   -0.577291
     68          1           0      -10.129724   -2.554100   -1.358288
     69          1           0       -2.874010   -0.972024    2.147735
     70          1           0       -2.224512    1.823903    1.399740
     71          1           0       -2.134010    0.702894    3.597898
     72          1           0       -3.307132    2.083440    3.832253
     73          1           0       -3.732498    0.550228    3.923645
     74          1           0       -2.035706   -1.587515   -0.270421
     75          1           0       -2.087897    0.017835   -0.563972
     76          1           0       -0.250741    0.638624    0.868688
     77          1           0       -0.055229   -1.234662    1.430053
     78          1           0       -5.595121    6.871464    0.343887
     79          1           0       -5.387226    6.059528    1.969117
     80          1           0       -4.538783    5.567151    0.730989
     81          1           0       -9.139470    5.717127   -0.900953
     82          1           0       -9.272369    7.942047    0.733873
     83          1           0       -7.801404    7.356227    1.674294
     84          1           0      -12.077404    3.025214   -2.139364
     85          1           0      -13.333841    2.201256   -1.455280
     86          1           0      -12.239630    3.061835   -0.655995
     87          1           0      -12.503704   -1.580720   -1.073811
     88          1           0      -13.380792   -0.250466   -1.675529
     89          1           0      -13.125884   -1.697759   -3.776742
     90          1           0      -12.299611   -0.096925   -3.944739
     91          1           0      -11.324123   -1.358933   -3.508550
     92          1           0       -9.153955   -4.835151   -1.810679
     93          1           0       -8.074251   -5.873865   -0.718644
     94          1           0       -9.575761   -4.741824   -0.160365
     95          1           0       -3.345458   -3.437881   -0.260513
     96          1           0       -1.580458   -4.036613    3.584791
     97          1           0       -2.872386   -5.355917    3.770446
     98          1           0       -1.383793   -5.863855    3.036851
     99          1           0        2.689933   -1.940579   -1.467433
    100          1           0        2.640267   -0.340554   -1.987613
    101          1           0        3.891506   -1.017729    0.665107
    102          1           0        3.821904    1.183575   -2.431363
    103          1           0        5.262689    1.965991   -1.834039
    104          1           0        5.534952    0.605635   -2.988193
    105          1           0        6.491706    1.469467   -0.251999
    106          1           0        6.290440   -0.172772    0.726139
    107          1           0        7.465977   -1.042917   -1.242609
    108          1           0        7.578887    0.421141   -1.908413
    109          1           0        8.919737    0.835488    0.043674
    110          1           0        8.737920   -0.708985    0.759052
    111          1           0       10.605005    0.221516   -1.726315
    112          1           0        9.629561   -2.283056   -2.213655
    113          1           0       11.203838   -2.450628   -1.737306
    114          1           0       10.049892   -2.600988   -0.397479
    115          1           0       11.324820    1.078670   -0.013672
    116          1           0       11.475233   -0.685085    0.989426
    117          1           0       12.864429   -1.579923   -1.156068
    118          1           0       12.681672    0.200106   -1.637971
    119          1           0       14.049367    0.924330    0.639387
    120          1           0       14.075603   -0.737506    1.000701
    121          1           0       15.269454    0.364391   -1.579556
    122          1           0       15.927352   -2.233981    0.110170
    123          1           0       14.786538   -2.320582   -1.244756
    124          1           0       16.395344   -1.705309   -1.696438
    125          1           0       16.154566    1.401908    0.713434
    126          1           0       16.317727   -0.024237    1.624635
    127          1           0       18.187864   -0.511093   -0.207250
    128          1           0       17.742397    0.948696   -1.026912
    129          1           0       18.422448    2.090354    1.128424
    130          1           0       19.016564    0.746761    1.714560
    131          1           0       20.806200    0.521698   -0.183275
    132          1           0       19.821050    3.241226   -0.848867
    133          1           0       21.326685    2.481068   -1.456132
    134          1           0       19.793005    1.620766   -1.754784
    135          1           0       20.891684    1.467042    2.176056
    136          1           0       22.121496    2.216987    0.985288
    137          1           0       20.639957    3.211768    1.385117
 ---------------------------------------------------------------------

 SCF Done:  E(RCAM-B3LYP) =  -2932.49804675     A.U. after   17 cycles

 Excitation energies and oscillator strengths:

 Excited State   1:      Singlet-A      2.1730 eV  570.56 nm  f=0.1547  <S**2>=0.000
     240 -> 242       -0.16508
     240 -> 243       -0.25700
     241 -> 242        0.59477
     241 -> 243       -0.20599
 This state for optimization and/or second-order correction.
 Total Energy, E(TD-HF/TD-KS) =  -2932.41818909
 Copying the excited state density for this state as the 1-particle RhoCI density.

 The electronic state is 1-A.
 Alpha  occ. eigenvalues --  -46.83527 -19.28303 -19.27677 -19.21704 -19.21476
 Alpha  occ. eigenvalues --  -19.21110 -14.41152 -14.39741 -14.38284 -14.37952
 Alpha  occ. eigenvalues --  -10.40354 -10.39967 -10.35331 -10.32482 -10.30979
 Alpha  occ. eigenvalues --  -10.30535 -10.30218 -10.30168 -10.30000 -10.29858
 Alpha  occ. eigenvalues --  -10.29084 -10.28956 -10.28702 -10.28470 -10.28468
 Alpha  occ. eigenvalues --  -10.28188 -10.28122 -10.28039 -10.27845 -10.27800
 Alpha  occ. eigenvalues --  -10.27728 -10.27662 -10.27219 -10.27107 -10.27084
 Alpha  occ. eigenvalues --  -10.27062 -10.26895 -10.26649 -10.26546 -10.26336
 Alpha  occ. eigenvalues --  -10.26228 -10.26172 -10.26033 -10.25962 -10.25905
 Alpha  occ. eigenvalues --  -10.25892 -10.25863 -10.25775 -10.25694 -10.25555
 Alpha  occ. eigenvalues --  -10.25448 -10.25393 -10.25319 -10.25301 -10.25257
 Alpha  occ. eigenvalues --  -10.25251 -10.25136 -10.25129 -10.25026 -10.24512
 Alpha  occ. eigenvalues --  -10.24085 -10.24048 -10.24034 -10.23392 -10.22657
 Alpha  occ. eigenvalues --   -3.12706  -1.87397  -1.86960  -1.86888  -1.20506
 Alpha  occ. eigenvalues --   -1.18323  -1.14827  -1.08524  -1.08078  -1.05790
 Alpha  occ. eigenvalues --   -1.03903  -1.03649  -1.01302  -0.92363  -0.92263
 Alpha  occ. eigenvalues --   -0.91609  -0.90045  -0.89769  -0.88728  -0.88524
 Alpha  occ. eigenvalues --   -0.88433  -0.88066  -0.87843  -0.87089  -0.86594
 Alpha  occ. eigenvalues --   -0.85391  -0.84512  -0.83913  -0.83840  -0.82654
 Alpha  occ. eigenvalues --   -0.82253  -0.80574  -0.80390  -0.79956  -0.78284
 Alpha  occ. eigenvalues --   -0.77872  -0.77326  -0.76930  -0.76621  -0.76417
 Alpha  occ. eigenvalues --   -0.75572  -0.75092  -0.74570  -0.73744  -0.71908
 Alpha  occ. eigenvalues --   -0.71802  -0.71371  -0.69844  -0.69403  -0.68473
 Alpha  occ. eigenvalues --   -0.67776  -0.66983  -0.66009  -0.64987  -0.64854
 Alpha  occ. eigenvalues --   -0.64548  -0.63746  -0.62732  -0.62006  -0.61868
 Alpha  occ. eigenvalues --   -0.61040  -0.61005  -0.60224  -0.59396  -0.58972
 Alpha  occ. eigenvalues --   -0.58265  -0.57710  -0.57611  -0.57387  -0.57142
 Alpha  occ. eigenvalues --   -0.56360  -0.55880  -0.55622  -0.55329  -0.55173
 Alpha  occ. eigenvalues --   -0.54898  -0.54542  -0.54334  -0.54269  -0.53708
 Alpha  occ. eigenvalues --   -0.53506  -0.53206  -0.52656  -0.52377  -0.52117
 Alpha  occ. eigenvalues --   -0.51797  -0.51675  -0.51443  -0.51200  -0.50860
 Alpha  occ. eigenvalues --   -0.50698  -0.50637  -0.50499  -0.49936  -0.49750
 Alpha  occ. eigenvalues --   -0.49471  -0.49220  -0.48961  -0.48864  -0.48606
 Alpha  occ. eigenvalues --   -0.48450  -0.48028  -0.47987  -0.47855  -0.47288
 Alpha  occ. eigenvalues --   -0.46997  -0.46719  -0.46544  -0.46249  -0.45976
 Alpha  occ. eigenvalues --   -0.45807  -0.45571  -0.45536  -0.45383  -0.44954
 Alpha  occ. eigenvalues --   -0.44917  -0.44822  -0.44636  -0.44429  -0.44207
 Alpha  occ. eigenvalues --   -0.44162  -0.43861  -0.43581  -0.43459  -0.43247
 Alpha  occ. eigenvalues --   -0.43091  -0.42617  -0.42501  -0.42358  -0.42270
 Alpha  occ. eigenvalues --   -0.42079  -0.42032  -0.41840  -0.41730  -0.41702
 Alpha  occ. eigenvalues --   -0.41242  -0.40922  -0.40498  -0.40095  -0.39948
 Alpha  occ. eigenvalues --   -0.39782  -0.39521  -0.39418  -0.39351  -0.39272
 Alpha  occ. eigenvalues --   -0.38800  -0.38757  -0.38341  -0.37722  -0.37234
 Alpha  occ. eigenvalues --   -0.37095  -0.37006  -0.36850  -0.36745  -0.36551
 Alpha  occ. eigenvalues --   -0.36369  -0.36326  -0.36200  -0.35699  -0.35135
 Alpha  occ. eigenvalues --   -0.34649  -0.34402  -0.34198  -0.34013  -0.33662
 Alpha  occ. eigenvalues --   -0.33447  -0.32857  -0.32349  -0.30862  -0.30506
 Alpha  occ. eigenvalues --   -0.29857  -0.29447  -0.27202  -0.26763  -0.23211
 Alpha  occ. eigenvalues --   -0.20655
 Alpha virt. eigenvalues --   -0.05291  -0.03545   0.01504   0.04092   0.04807
 Alpha virt. eigenvalues --    0.05090   0.05736   0.06510   0.06961   0.07324
 Alpha virt. eigenvalues --    0.08876   0.10370   0.10791   0.11144   0.11519

 Mulliken charges:
               1
     1  Mg   0.821588
     2  C    0.027822
     3  C   -0.227784
     4  C   -0.207743
     5  C   -0.215007
     6  N   -0.624490
     7  C    0.312795
     8  C   -0.199839
     9  C   -0.120944
    10  C    0.334865
    11  C   -0.323985
    12  C   -0.118664
    13  C   -0.257510
    14  C    0.616779
    15  O   -0.504388
    16  O   -0.432900
    17  N   -0.713046
    18  C    0.332962
    19  C   -0.003987
    20  C    0.018640
    21  C    0.314029
    22  C   -0.349243
    23  C   -0.081999
    24  C   -0.269154
    25  N   -0.712535
    26  C    0.322151
    27  C    0.055859
    28  C    0.001025
    29  C    0.282723
    30  C   -0.388217
    31  C   -0.214378
    32  C   -0.319795
    33  N   -0.734654
    34  C    0.269200
    35  C    0.127491
    36  C   -0.057759
    37  C    0.346565
    38  C   -0.426721
    39  C    0.378672
    40  O   -0.411005
    41  C   -0.319560
    42  C    0.618652
    43  O   -0.475955
    44  O   -0.444623
    45  C   -0.083749
    46  C    0.008695
    47  C   -0.150167
    48  C    0.074847
    49  C   -0.346166
    50  C   -0.207853
    51  C   -0.150841
    52  C   -0.173172
    53  C   -0.051802
    54  C   -0.317480
    55  C   -0.152911
    56  C   -0.163524
    57  C   -0.160575
    58  C   -0.050179
    59  C   -0.313424
    60  C   -0.200069
    61  C   -0.151730
    62  C   -0.162241
    63  C   -0.057999
    64  C   -0.282116
    65  C   -0.289311
    66  H    0.080409
    67  H    0.066745
    68  H    0.085007
    69  H    0.140403
    70  H    0.075423
    71  H    0.100643
    72  H    0.124247
    73  H    0.108979
    74  H    0.111785
    75  H    0.114653
    76  H    0.136643
    77  H    0.092481
    78  H    0.102909
    79  H    0.127241
    80  H    0.115248
    81  H    0.083554
    82  H    0.113236
    83  H    0.107661
    84  H    0.131292
    85  H    0.091614
    86  H    0.135130
    87  H    0.103899
    88  H    0.114340
    89  H    0.106201
    90  H    0.083738
    91  H    0.111274
    92  H    0.139544
    93  H    0.127292
    94  H    0.140980
    95  H    0.177397
    96  H    0.135153
    97  H    0.153771
    98  H    0.104871
    99  H    0.133821
   100  H    0.123814
   101  H    0.089433
   102  H    0.091679
   103  H    0.131885
   104  H    0.143128
   105  H    0.092275
   106  H    0.102983
   107  H    0.104361
   108  H    0.081191
   109  H    0.094923
   110  H    0.054966
   111  H    0.065160
   112  H    0.112531
   113  H    0.090627
   114  H    0.118591
   115  H    0.054689
   116  H    0.096222
   117  H    0.071919
   118  H    0.085960
   119  H    0.082461
   120  H    0.081707
   121  H    0.074122
   122  H    0.107010
   123  H    0.088148
   124  H    0.101002
   125  H    0.080236
   126  H    0.061589
   127  H    0.102676
   128  H    0.106156
   129  H    0.095088
   130  H    0.081796
   131  H    0.059801
   132  H    0.064893
   133  H    0.075901
   134  H    0.118932
   135  H    0.113144
   136  H    0.104055
   137  H    0.073193
 Sum of Mulliken charges =   0.00000

 Dipole moment (field-independent basis, Debye):
    X=              3.2352    Y=              1.9885    Z=              0.4899  Tot=              3.8289
 Quadrupole moment (field-independent basis, Debye-Ang):
   XX=           -367.8052   YY=           -395.6804   ZZ=           -392.5463
   XY=             -4.9059   XZ=              4.2618   YZ=             -5.7373

 Normal termination of Gaussian 09 at Fri Jul  5 20:32:56 2019.
