 Gaussian 16, Revision A.03,
 Gaussian 16:  ES64L-G16RevA.03 25-Dec-2016

 ----------------------------------------------------------------------
 # td=(NStates=1) iop(3/107=0140000000,3/108=0140000000) CAM-B3LYP/6-31
 G(d,p)
 ----------------------------------------------------------------------

 --
 TD
 --
 Symbolic Z-matrix:
 Charge =  0 Multiplicity = 1

                         Standard orientation:
 ---------------------------------------------------------------------
 Center     Atomic      Atomic             Coordinates (Angstroms)
 Number     Number       Type             X           Y           Z
 ---------------------------------------------------------------------
      1         12           0       -7.182145    0.668759    0.055309
      2          6           0       -4.900173   -1.963023    0.554991
      3          6           0       -4.899869    2.792657    1.129406
      4          6           0       -9.443754    3.101536   -0.459978
      5          6           0       -9.580183   -1.719455   -0.669725
      6          7           0       -5.115867    0.388885    0.668738
      7          6           0       -4.307824   -0.717855    0.745769
      8          6           0       -2.891473   -0.426195    1.261236
      9          6           0       -3.116118    1.073661    1.768722
     10          6           0       -4.563532    1.486497    1.174494
     11          6           0       -2.983491    1.174393    3.255541
     12          6           0       -1.929838   -0.435085    0.029607
     13          6           0       -0.441839   -0.319136    0.468928
     14          6           0        0.598351   -0.681873   -0.641156
     15          8           0        0.316351   -1.040901   -1.770969
     16          8           0        1.870707   -0.428951   -0.252527
     17          7           0       -7.121670    2.607134    0.284146
     18          6           0       -6.074619    3.375733    0.800978
     19          6           0       -6.316762    4.761853    0.776800
     20          6           0       -7.653750    4.825768    0.391606
     21          6           0       -8.109294    3.503638   -0.024102
     22          6           0       -5.285099    5.799320    1.132955
     23          6           0       -8.452647    5.967700    0.173033
     24          6           0       -8.388214    7.140286    0.862651
     25          7           0       -9.126460    0.684253   -0.475799
     26          6           0       -9.968621    1.821483   -0.684977
     27          6           0      -11.288643    1.383524   -1.046396
     28          6           0      -11.272344    0.061179   -1.239162
     29          6           0       -9.974949   -0.379018   -0.747443
     30          6           0      -12.216540    2.424490   -1.470277
     31          6           0      -12.486176   -0.679735   -1.692120
     32          6           0      -12.395566   -1.064356   -3.210470
     33          7           0       -7.228018   -1.438915   -0.121203
     34          6           0       -8.310703   -2.299136   -0.428506
     35          6           0       -7.889717   -3.589210   -0.427665
     36          6           0       -6.550843   -3.574919   -0.141061
     37          6           0       -6.183029   -2.223926    0.144901
     38          6           0       -8.700398   -4.885709   -0.751793
     39          6           0       -5.377252   -4.362967    0.210190
     40          8           0       -5.107145   -5.604653    0.083932
     41          6           0       -4.187650   -3.329629    0.626104
     42          6           0       -3.517268   -3.694128    1.926815
     43          8           0       -3.651621   -2.991863    2.982781
     44          8           0       -2.885388   -4.815199    1.802472
     45          6           0       -2.270560   -5.321258    2.964525
     46          6           0        2.745877   -0.418163   -1.245883
     47          6           0        4.133470   -0.266895   -0.587632
     48          6           0        5.155926    0.450581   -1.048655
     49          6           0        5.147095    1.269847   -2.313775
     50          6           0        6.435861    0.524576   -0.298650
     51          6           0        7.629245   -0.101681   -1.111878
     52          6           0        8.872422   -0.110499   -0.257004
     53          6           0       10.222192   -0.560956   -1.052649
     54          6           0       10.095295   -2.007925   -1.438510
     55          6           0       11.395335   -0.250367   -0.167165
     56          6           0       12.791943   -0.545346   -0.823235
     57          6           0       13.914651   -0.174662    0.214056
     58          6           0       15.300718   -0.127864   -0.565647
     59          6           0       15.704414   -1.622502   -1.028856
     60          6           0       16.482714    0.359676    0.411447
     61          6           0       17.904718    0.580152   -0.211152
     62          6           0       18.821699    1.124237    0.858149
     63          6           0       20.309875    1.218461    0.388276
     64          6           0       20.459687    2.060563   -0.826611
     65          6           0       21.113495    1.856308    1.560165
     66          1           0       -4.043005    3.463846    1.579812
     67          1           0      -10.195870    3.863397   -0.834333
     68          1           0      -10.229030   -2.606844   -0.777244
     69          1           0       -2.401360   -1.030520    2.081594
     70          1           0       -2.226908    1.729666    1.525739
     71          1           0       -1.965861    0.884937    3.432010
     72          1           0       -2.910518    2.392186    3.628242
     73          1           0       -3.847738    0.650524    3.788409
     74          1           0       -1.807718   -1.424758   -0.384252
     75          1           0       -2.350835    0.202173   -0.732030
     76          1           0       -0.142263    0.740682    0.998780
     77          1           0       -0.186207   -1.044037    1.279087
     78          1           0       -5.625241    6.584628    0.608157
     79          1           0       -5.294183    6.262296    2.141955
     80          1           0       -4.286835    5.465231    0.960273
     81          1           0       -9.205457    6.246676   -0.605010
     82          1           0       -8.988075    8.053265    0.601047
     83          1           0       -7.758525    7.096931    1.915990
     84          1           0      -11.865845    3.151052   -2.236473
     85          1           0      -13.273041    2.272810   -1.962559
     86          1           0      -12.513443    3.157111   -0.664238
     87          1           0      -12.698412   -1.567098   -1.130710
     88          1           0      -13.552260   -0.369348   -1.816884
     89          1           0      -13.218449   -1.664244   -3.629065
     90          1           0      -12.377971   -0.172497   -3.783727
     91          1           0      -11.615325   -1.854487   -3.473805
     92          1           0       -9.322483   -4.649741   -1.686574
     93          1           0       -8.030066   -5.720026   -0.647849
     94          1           0       -9.552378   -5.128872    0.015131
     95          1           0       -3.472726   -3.433902   -0.202077
     96          1           0       -1.569742   -4.497682    3.351109
     97          1           0       -2.916351   -5.823711    3.570366
     98          1           0       -1.372956   -6.007015    2.774032
     99          1           0        2.813949   -1.537767   -1.706875
    100          1           0        2.710463    0.284209   -1.863729
    101          1           0        4.140177   -0.976270    0.441595
    102          1           0        4.167591    1.416728   -2.996018
    103          1           0        5.401513    2.164392   -2.149384
    104          1           0        5.876080    0.871950   -3.019795
    105          1           0        6.830609    1.446690    0.196328
    106          1           0        6.415217   -0.377541    0.506631
    107          1           0        7.410299   -1.232617   -1.445473
    108          1           0        7.732893    0.323082   -2.107809
    109          1           0        9.079123    1.024429    0.024917
    110          1           0        8.778102   -0.758833    0.672491
    111          1           0       10.137450    0.035519   -2.027859
    112          1           0        9.218850   -2.235679   -1.934405
    113          1           0       10.915680   -2.405918   -2.071717
    114          1           0       10.047594   -2.445145   -0.478224
    115          1           0       11.281912    0.844578    0.057709
    116          1           0       11.249460   -0.853447    0.654814
    117          1           0       12.802332   -1.565141   -1.269450
    118          1           0       12.889843    0.161856   -1.739895
    119          1           0       13.898469    0.814071    0.640595
    120          1           0       14.109380   -0.951086    1.029269
    121          1           0       15.284054    0.602248   -1.392381
    122          1           0       15.983409   -2.066569   -0.008770
    123          1           0       15.120984   -2.129469   -1.602321
    124          1           0       16.633167   -1.419949   -1.395643
    125          1           0       16.200044    1.330933    0.877157
    126          1           0       16.610608   -0.327284    1.194031
    127          1           0       18.380784   -0.304140   -0.707779
    128          1           0       17.650412    1.085555   -1.304135
    129          1           0       18.492046    2.188809    1.235556
    130          1           0       18.856301    0.369281    1.687487
    131          1           0       20.637113    0.098428    0.450343
    132          1           0       20.212265    3.107700   -0.425563
    133          1           0       21.377071    2.147257   -1.046541
    134          1           0       19.873574    1.513543   -1.507986
    135          1           0       20.775836    1.392827    2.416909
    136          1           0       22.259209    1.992411    1.333565
    137          1           0       20.712373    2.777818    1.861786
 ---------------------------------------------------------------------

 SCF Done:  E(RCAM-B3LYP) =  -2933.47139512     A.U. after   16 cycles

 Excitation energies and oscillator strengths:

 Excited State   1:      Singlet-A      2.0257 eV  612.07 nm  f=0.2402  <S**2>=0.000
     240 -> 243       -0.24274
     241 -> 242        0.65998
 This state for optimization and/or second-order correction.
 Total Energy, E(TD-HF/TD-DFT) =  -2933.39695321
 Copying the excited state density for this state as the 1-particle RhoCI density.

 The electronic state is 1-A.
 Alpha  occ. eigenvalues --  -46.79863 -19.23601 -19.22665 -19.17376 -19.15435
 Alpha  occ. eigenvalues --  -19.15335 -14.37942 -14.35681 -14.35522 -14.34371
 Alpha  occ. eigenvalues --  -10.35302 -10.34552 -10.30534 -10.27418 -10.26398
 Alpha  occ. eigenvalues --  -10.26252 -10.26187 -10.26064 -10.25742 -10.25433
 Alpha  occ. eigenvalues --  -10.25185 -10.24764 -10.24044 -10.23813 -10.23726
 Alpha  occ. eigenvalues --  -10.23690 -10.23464 -10.23303 -10.23294 -10.23277
 Alpha  occ. eigenvalues --  -10.23263 -10.23195 -10.23138 -10.22944 -10.22861
 Alpha  occ. eigenvalues --  -10.22836 -10.22709 -10.22639 -10.22596 -10.22572
 Alpha  occ. eigenvalues --  -10.22551 -10.22519 -10.22468 -10.22293 -10.22244
 Alpha  occ. eigenvalues --  -10.22230 -10.22125 -10.22054 -10.21958 -10.21893
 Alpha  occ. eigenvalues --  -10.21839 -10.21777 -10.21555 -10.21376 -10.21321
 Alpha  occ. eigenvalues --  -10.21143 -10.20972 -10.20963 -10.20907 -10.20458
 Alpha  occ. eigenvalues --  -10.20010 -10.19193 -10.18805 -10.18387 -10.18244
 Alpha  occ. eigenvalues --   -3.08519  -1.83452  -1.83003  -1.82924  -1.15963
 Alpha  occ. eigenvalues --   -1.15251  -1.05617  -1.02059  -1.01510  -0.99498
 Alpha  occ. eigenvalues --   -0.98604  -0.98211  -0.97089  -0.86977  -0.85851
 Alpha  occ. eigenvalues --   -0.84862  -0.84761  -0.84585  -0.84399  -0.84222
 Alpha  occ. eigenvalues --   -0.83908  -0.82490  -0.82324  -0.82212  -0.81038
 Alpha  occ. eigenvalues --   -0.80142  -0.79500  -0.79167  -0.78276  -0.78091
 Alpha  occ. eigenvalues --   -0.77074  -0.76989  -0.75814  -0.75057  -0.73922
 Alpha  occ. eigenvalues --   -0.73178  -0.73089  -0.72386  -0.71814  -0.71573
 Alpha  occ. eigenvalues --   -0.71036  -0.70864  -0.69702  -0.69023  -0.68062
 Alpha  occ. eigenvalues --   -0.67091  -0.65625  -0.65366  -0.64121  -0.64012
 Alpha  occ. eigenvalues --   -0.62602  -0.61617  -0.61386  -0.61050  -0.60871
 Alpha  occ. eigenvalues --   -0.59833  -0.59363  -0.58598  -0.57910  -0.57801
 Alpha  occ. eigenvalues --   -0.57562  -0.57027  -0.56077  -0.55941  -0.55381
 Alpha  occ. eigenvalues --   -0.54754  -0.54627  -0.53984  -0.53654  -0.53520
 Alpha  occ. eigenvalues --   -0.52829  -0.52544  -0.51656  -0.51263  -0.50881
 Alpha  occ. eigenvalues --   -0.50780  -0.50539  -0.50266  -0.50143  -0.50033
 Alpha  occ. eigenvalues --   -0.49557  -0.48982  -0.48526  -0.48508  -0.48444
 Alpha  occ. eigenvalues --   -0.47843  -0.47700  -0.47200  -0.47157  -0.47051
 Alpha  occ. eigenvalues --   -0.46721  -0.46306  -0.46151  -0.45779  -0.45677
 Alpha  occ. eigenvalues --   -0.45491  -0.45368  -0.45203  -0.45155  -0.44852
 Alpha  occ. eigenvalues --   -0.44763  -0.44442  -0.43950  -0.43834  -0.43636
 Alpha  occ. eigenvalues --   -0.43248  -0.43089  -0.42754  -0.42670  -0.42432
 Alpha  occ. eigenvalues --   -0.42248  -0.42007  -0.41685  -0.41388  -0.41204
 Alpha  occ. eigenvalues --   -0.41027  -0.40918  -0.40886  -0.40497  -0.40279
 Alpha  occ. eigenvalues --   -0.40220  -0.40136  -0.39951  -0.39641  -0.39616
 Alpha  occ. eigenvalues --   -0.39489  -0.39228  -0.38908  -0.38853  -0.38697
 Alpha  occ. eigenvalues --   -0.38650  -0.38604  -0.38451  -0.38300  -0.37816
 Alpha  occ. eigenvalues --   -0.37540  -0.37272  -0.36986  -0.36860  -0.36503
 Alpha  occ. eigenvalues --   -0.36359  -0.36329  -0.36126  -0.35834  -0.35718
 Alpha  occ. eigenvalues --   -0.35121  -0.35014  -0.34748  -0.34545  -0.34479
 Alpha  occ. eigenvalues --   -0.34352  -0.34117  -0.33883  -0.33765  -0.33355
 Alpha  occ. eigenvalues --   -0.33203  -0.33003  -0.32985  -0.32769  -0.32590
 Alpha  occ. eigenvalues --   -0.32321  -0.32152  -0.31742  -0.30889  -0.30307
 Alpha  occ. eigenvalues --   -0.30065  -0.29641  -0.29207  -0.28909  -0.27134
 Alpha  occ. eigenvalues --   -0.26401  -0.26302  -0.25929  -0.25423  -0.21696
 Alpha  occ. eigenvalues --   -0.20530
 Alpha virt. eigenvalues --   -0.07688  -0.04203  -0.00501   0.02316   0.02943
 Alpha virt. eigenvalues --    0.03430   0.04508   0.04954   0.05512   0.05633
 Alpha virt. eigenvalues --    0.06222   0.08704   0.09072   0.09352   0.09779

 Mulliken charges:
               1
     1  Mg   0.819238
     2  C    0.122925
     3  C   -0.192889
     4  C   -0.182123
     5  C   -0.174267
     6  N   -0.625211
     7  C    0.255037
     8  C   -0.140045
     9  C   -0.148674
    10  C    0.353016
    11  C   -0.285716
    12  C   -0.158296
    13  C   -0.275129
    14  C    0.590219
    15  O   -0.458305
    16  O   -0.422679
    17  N   -0.739336
    18  C    0.330756
    19  C    0.068214
    20  C   -0.017806
    21  C    0.320541
    22  C   -0.364185
    23  C   -0.094614
    24  C   -0.257307
    25  N   -0.689637
    26  C    0.283244
    27  C    0.082509
    28  C    0.072268
    29  C    0.296315
    30  C   -0.417309
    31  C   -0.262520
    32  C   -0.331972
    33  N   -0.730210
    34  C    0.275083
    35  C    0.017856
    36  C    0.042889
    37  C    0.284817
    38  C   -0.372345
    39  C    0.333151
    40  O   -0.493660
    41  C   -0.322598
    42  C    0.611701
    43  O   -0.515281
    44  O   -0.383671
    45  C   -0.086770
    46  C    0.072973
    47  C   -0.160441
    48  C    0.143857
    49  C   -0.368383
    50  C   -0.232128
    51  C   -0.181598
    52  C   -0.167052
    53  C   -0.079584
    54  C   -0.299811
    55  C   -0.145690
    56  C   -0.185763
    57  C   -0.153342
    58  C   -0.093193
    59  C   -0.297318
    60  C   -0.188543
    61  C   -0.182256
    62  C   -0.159155
    63  C   -0.082964
    64  C   -0.263528
    65  C   -0.310696
    66  H    0.079339
    67  H    0.079690
    68  H    0.079562
    69  H    0.122648
    70  H    0.088837
    71  H    0.115614
    72  H    0.057886
    73  H    0.125771
    74  H    0.123042
    75  H    0.125273
    76  H    0.107821
    77  H    0.133542
    78  H    0.137158
    79  H    0.122728
    80  H    0.120972
    81  H    0.097920
    82  H    0.105494
    83  H    0.076985
    84  H    0.127718
    85  H    0.102392
    86  H    0.119373
    87  H    0.111207
    88  H    0.123330
    89  H    0.097987
    90  H    0.121789
    91  H    0.097042
    92  H    0.120330
    93  H    0.155097
    94  H    0.109543
    95  H    0.161390
    96  H    0.118307
    97  H    0.148306
    98  H    0.112950
    99  H    0.094265
   100  H    0.095206
   101  H    0.067852
   102  H    0.090898
   103  H    0.135014
   104  H    0.124140
   105  H    0.106177
   106  H    0.089330
   107  H    0.076838
   108  H    0.094878
   109  H    0.068461
   110  H    0.086246
   111  H    0.065384
   112  H    0.106923
   113  H    0.094312
   114  H    0.097375
   115  H    0.086868
   116  H    0.096075
   117  H    0.099611
   118  H    0.082459
   119  H    0.095555
   120  H    0.083903
   121  H    0.079420
   122  H    0.086367
   123  H    0.105080
   124  H    0.108705
   125  H    0.084934
   126  H    0.094269
   127  H    0.092658
   128  H    0.069039
   129  H    0.076754
   130  H    0.095730
   131  H    0.073205
   132  H    0.089139
   133  H    0.109376
   134  H    0.106234
   135  H    0.096719
   136  H    0.087382
   137  H    0.097566
 Sum of Mulliken charges =  -0.00000

 Dipole moment (field-independent basis, Debye):
    X=              0.4584    Y=              4.6611    Z=              0.1509  Tot=              4.6860
 Quadrupole moment (field-independent basis, Debye-Ang):
   XX=           -337.6212   YY=           -390.4394   ZZ=           -399.6959
   XY=            -23.4563   XZ=             17.7504   YZ=             -7.8164

 Normal termination of Gaussian 16 at Thu Sep 12 01:26:49 2019.
