 Gaussian 09, Revision D.01,
 Gaussian 09:  ES64L-G09RevD.01 24-Apr-2013

 -------------------------------------
 # td=(NStates=1) CAM-B3LYP/6-31G(d,p)
 -------------------------------------

 --
 TD
 --
 Symbolic Z-matrix:
 Charge =  0 Multiplicity = 1

                         Standard orientation:
 ---------------------------------------------------------------------
 Center     Atomic      Atomic             Coordinates (Angstroms)
 Number     Number       Type             X           Y           Z
 ---------------------------------------------------------------------
      1         12           0       -7.149209    0.639028    0.171451
      2          6           0       -4.859911   -1.930498    0.473201
      3          6           0       -4.815735    2.843260    1.125575
      4          6           0       -9.415232    3.170312   -0.338306
      5          6           0       -9.489835   -1.662097   -0.905940
      6          7           0       -5.100240    0.410682    0.753838
      7          6           0       -4.315401   -0.771681    0.817887
      8          6           0       -2.818051   -0.391042    1.294628
      9          6           0       -2.976179    1.117079    1.761732
     10          6           0       -4.358142    1.469633    1.202109
     11          6           0       -3.093346    1.235588    3.225758
     12          6           0       -1.858241   -0.605182    0.115674
     13          6           0       -0.374454   -0.383291    0.478618
     14          6           0        0.492036   -0.662229   -0.759783
     15          8           0        0.059440   -0.885483   -1.849623
     16          8           0        1.800198   -0.554988   -0.323818
     17          7           0       -7.160756    2.609407    0.354638
     18          6           0       -6.082235    3.316998    0.840937
     19          6           0       -6.468904    4.714451    0.832192
     20          6           0       -7.724134    4.812506    0.407774
     21          6           0       -8.141454    3.410890   -0.009635
     22          6           0       -5.436802    5.889131    0.965431
     23          6           0       -8.469430    6.030191   -0.053202
     24          6           0       -8.631762    7.170079    0.668586
     25          7           0       -9.111477    0.685187   -0.564587
     26          6           0       -9.924199    1.816750   -0.630004
     27          6           0      -11.278420    1.452864   -1.023871
     28          6           0      -11.290586    0.122261   -1.063933
     29          6           0       -9.962762   -0.358900   -0.790257
     30          6           0      -12.342290    2.399887   -1.388119
     31          6           0      -12.339425   -0.749243   -1.638034
     32          6           0      -12.436513   -0.976793   -3.170643
     33          7           0       -7.202372   -1.408021   -0.163493
     34          6           0       -8.272274   -2.201804   -0.567522
     35          6           0       -7.813762   -3.588490   -0.532802
     36          6           0       -6.521116   -3.462020   -0.149662
     37          6           0       -6.154235   -2.176983    0.090886
     38          6           0       -8.644246   -4.730338   -0.835853
     39          6           0       -5.382034   -4.400692    0.262300
     40          8           0       -5.238314   -5.550896    0.121438
     41          6           0       -4.212695   -3.348128    0.543381
     42          6           0       -3.621389   -3.754874    1.770635
     43          8           0       -3.831964   -3.151605    3.000256
     44          8           0       -2.683369   -4.640113    1.634663
     45          6           0       -2.120696   -5.142301    2.890239
     46          6           0        2.804382   -0.850103   -1.249258
     47          6           0        4.182542   -0.550172   -0.521680
     48          6           0        5.174191    0.220458   -0.932827
     49          6           0        5.304207    0.868482   -2.353001
     50          6           0        6.421725    0.454609   -0.144161
     51          6           0        7.690612   -0.193882   -0.917133
     52          6           0        8.987300   -0.102698   -0.198924
     53          6           0       10.317498   -0.554821   -0.870587
     54          6           0       10.054333   -2.030039   -1.271400
     55          6           0       11.508278   -0.341444    0.047701
     56          6           0       12.839969   -0.531274   -0.669177
     57          6           0       14.002380   -0.203558    0.228591
     58          6           0       15.460296   -0.253491   -0.414049
     59          6           0       15.879409   -1.715881   -0.720518
     60          6           0       16.440160    0.433283    0.482297
     61          6           0       17.816908    0.630507   -0.136846
     62          6           0       18.812580    1.327246    0.777611
     63          6           0       20.238376    1.531912    0.145786
     64          6           0       20.221478    2.299294   -1.155406
     65          6           0       21.122966    2.188786    1.223163
     66          1           0       -3.988601    3.439891    1.532665
     67          1           0       -9.886973    4.090775   -0.308243
     68          1           0      -10.153352   -2.501870   -1.083656
     69          1           0       -2.592163   -0.856900    2.257336
     70          1           0       -2.139451    1.845386    1.647804
     71          1           0       -1.951043    1.353235    3.670225
     72          1           0       -3.549742    2.187328    3.315706
     73          1           0       -3.712823    0.582521    3.800530
     74          1           0       -2.282891   -1.482612   -0.214765
     75          1           0       -2.081690    0.192197   -0.756399
     76          1           0       -0.352646    0.591013    0.876199
     77          1           0       -0.217163   -1.059629    1.313900
     78          1           0       -5.969603    6.830544    0.510308
     79          1           0       -5.332300    5.975007    2.080900
     80          1           0       -4.430100    5.813958    0.409455
     81          1           0       -9.114855    5.654703   -0.978969
     82          1           0       -9.179814    7.998730    0.346576
     83          1           0       -8.125944    7.154766    1.553989
     84          1           0      -12.301102    3.156288   -2.373069
     85          1           0      -13.365507    1.855673   -1.319559
     86          1           0      -12.453315    3.280526   -0.632654
     87          1           0      -12.293487   -1.733138   -1.182089
     88          1           0      -13.424846   -0.376588   -1.341102
     89          1           0      -13.268266   -1.752239   -3.576414
     90          1           0      -12.557305    0.138710   -3.559306
     91          1           0      -11.452776   -1.212969   -3.508780
     92          1           0       -9.061312   -4.714952   -1.657037
     93          1           0       -8.013432   -5.591381   -0.755906
     94          1           0       -9.482377   -4.853111   -0.132561
     95          1           0       -3.488945   -3.759545   -0.346001
     96          1           0       -1.557223   -4.485644    3.572927
     97          1           0       -3.056180   -5.568442    3.433724
     98          1           0       -1.518505   -5.835513    2.438215
     99          1           0        2.532203   -2.075709   -1.620434
    100          1           0        2.746060   -0.176057   -2.242673
    101          1           0        4.134856   -1.342982    0.425871
    102          1           0        4.166239    1.132676   -2.781692
    103          1           0        5.579197    1.762390   -2.127565
    104          1           0        5.979039    0.250863   -3.006979
    105          1           0        6.527730    1.492002    0.132212
    106          1           0        6.482733   -0.131985    0.887831
    107          1           0        7.474549   -1.249766   -1.144490
    108          1           0        7.615284    0.218780   -1.961876
    109          1           0        9.155562    0.901064    0.046431
    110          1           0        8.718728   -0.429517    0.765793
    111          1           0       10.544344    0.173751   -1.873787
    112          1           0        9.285372   -2.299402   -2.046207
    113          1           0       11.050177   -2.627404   -1.614127
    114          1           0        9.947997   -2.588319   -0.318149
    115          1           0       11.357209    0.453966    0.498245
    116          1           0       11.276889   -0.962826    0.947298
    117          1           0       12.947291   -1.407766   -1.050880
    118          1           0       12.724721    0.059308   -1.531565
    119          1           0       13.850042    0.783647    0.795030
    120          1           0       13.908583   -0.841857    1.057025
    121          1           0       15.170706    0.120903   -1.439044
    122          1           0       15.854983   -2.108773    0.282409
    123          1           0       14.993005   -2.279217   -1.133652
    124          1           0       16.748450   -1.822401   -1.298572
    125          1           0       16.267045    1.346607    0.732254
    126          1           0       16.582071   -0.184477    1.464635
    127          1           0       18.107313   -0.364827   -0.692345
    128          1           0       17.643173    1.148306   -1.072191
    129          1           0       18.529647    2.189705    1.291231
    130          1           0       18.881956    0.576136    1.597223
    131          1           0       20.462749    0.443353   -0.178833
    132          1           0       19.972784    3.355459   -0.891016
    133          1           0       21.254449    2.159271   -1.704399
    134          1           0       19.655397    1.884114   -1.825780
    135          1           0       21.395418    1.513863    2.150039
    136          1           0       22.081056    2.188392    0.696942
    137          1           0       20.962804    3.082530    1.807366
 ---------------------------------------------------------------------

 SCF Done:  E(RCAM-B3LYP) =  -2932.56326908     A.U. after   18 cycles

 Excitation energies and oscillator strengths:

 Excited State   1:      Singlet-A      2.2172 eV  559.18 nm  f=0.1743  <S**2>=0.000
     240 -> 243       -0.27204
     241 -> 242        0.63822
 This state for optimization and/or second-order correction.
 Total Energy, E(TD-HF/TD-KS) =  -2932.48178665
 Copying the excited state density for this state as the 1-particle RhoCI density.

 The electronic state is 1-A.
 Alpha  occ. eigenvalues --  -46.84194 -19.27937 -19.26589 -19.22584 -19.21946
 Alpha  occ. eigenvalues --  -19.18217 -14.42149 -14.39472 -14.39217 -14.38480
 Alpha  occ. eigenvalues --  -10.40081 -10.38917 -10.35919 -10.34375 -10.32143
 Alpha  occ. eigenvalues --  -10.31637 -10.30732 -10.30678 -10.29795 -10.29239
 Alpha  occ. eigenvalues --  -10.28786 -10.28755 -10.28139 -10.28136 -10.28020
 Alpha  occ. eigenvalues --  -10.27959 -10.27920 -10.27901 -10.27877 -10.27718
 Alpha  occ. eigenvalues --  -10.27702 -10.27394 -10.27359 -10.27258 -10.27125
 Alpha  occ. eigenvalues --  -10.26962 -10.26927 -10.26866 -10.26783 -10.26780
 Alpha  occ. eigenvalues --  -10.26662 -10.26495 -10.26374 -10.26296 -10.26289
 Alpha  occ. eigenvalues --  -10.26145 -10.26133 -10.26095 -10.26034 -10.25816
 Alpha  occ. eigenvalues --  -10.25779 -10.25635 -10.25448 -10.25019 -10.24872
 Alpha  occ. eigenvalues --  -10.24691 -10.24385 -10.24284 -10.24133 -10.24097
 Alpha  occ. eigenvalues --  -10.24049 -10.23974 -10.23663 -10.23484 -10.23324
 Alpha  occ. eigenvalues --   -3.13216  -1.87929  -1.87455  -1.87386  -1.18986
 Alpha  occ. eigenvalues --   -1.18477  -1.14953  -1.11564  -1.04762  -1.04360
 Alpha  occ. eigenvalues --   -1.02641  -1.02027  -1.00467  -0.92767  -0.91623
 Alpha  occ. eigenvalues --   -0.90735  -0.90109  -0.89846  -0.89183  -0.88917
 Alpha  occ. eigenvalues --   -0.88354  -0.88219  -0.88021  -0.87838  -0.86416
 Alpha  occ. eigenvalues --   -0.85887  -0.84939  -0.83594  -0.82971  -0.82603
 Alpha  occ. eigenvalues --   -0.82075  -0.81595  -0.80927  -0.80170  -0.78466
 Alpha  occ. eigenvalues --   -0.77706  -0.77196  -0.76477  -0.76228  -0.76053
 Alpha  occ. eigenvalues --   -0.75827  -0.75456  -0.75116  -0.73361  -0.72463
 Alpha  occ. eigenvalues --   -0.71999  -0.70857  -0.69479  -0.68692  -0.67994
 Alpha  occ. eigenvalues --   -0.67356  -0.67040  -0.66599  -0.65538  -0.64516
 Alpha  occ. eigenvalues --   -0.63987  -0.63959  -0.63070  -0.62490  -0.62232
 Alpha  occ. eigenvalues --   -0.62142  -0.60587  -0.59820  -0.59625  -0.59281
 Alpha  occ. eigenvalues --   -0.58769  -0.58614  -0.57892  -0.56906  -0.56772
 Alpha  occ. eigenvalues --   -0.56339  -0.55879  -0.55577  -0.55081  -0.54992
 Alpha  occ. eigenvalues --   -0.54553  -0.54017  -0.53808  -0.53786  -0.53515
 Alpha  occ. eigenvalues --   -0.53390  -0.52737  -0.52298  -0.52264  -0.51859
 Alpha  occ. eigenvalues --   -0.51701  -0.51526  -0.51383  -0.51102  -0.50907
 Alpha  occ. eigenvalues --   -0.50513  -0.50415  -0.50325  -0.50028  -0.49869
 Alpha  occ. eigenvalues --   -0.49547  -0.49233  -0.48991  -0.48661  -0.48503
 Alpha  occ. eigenvalues --   -0.48379  -0.48051  -0.47681  -0.47518  -0.46978
 Alpha  occ. eigenvalues --   -0.46620  -0.46562  -0.46405  -0.46274  -0.46122
 Alpha  occ. eigenvalues --   -0.46032  -0.45787  -0.45550  -0.45304  -0.45138
 Alpha  occ. eigenvalues --   -0.44933  -0.44655  -0.44415  -0.44258  -0.44196
 Alpha  occ. eigenvalues --   -0.44070  -0.43904  -0.43599  -0.43267  -0.43102
 Alpha  occ. eigenvalues --   -0.42929  -0.42682  -0.42557  -0.42412  -0.41976
 Alpha  occ. eigenvalues --   -0.41889  -0.41740  -0.41534  -0.41468  -0.41376
 Alpha  occ. eigenvalues --   -0.41373  -0.40973  -0.40833  -0.40668  -0.40406
 Alpha  occ. eigenvalues --   -0.40166  -0.39924  -0.39798  -0.39419  -0.39091
 Alpha  occ. eigenvalues --   -0.38801  -0.38042  -0.37979  -0.37694  -0.37363
 Alpha  occ. eigenvalues --   -0.37259  -0.37011  -0.36623  -0.36576  -0.36425
 Alpha  occ. eigenvalues --   -0.36183  -0.36101  -0.36021  -0.35758  -0.35435
 Alpha  occ. eigenvalues --   -0.35381  -0.34873  -0.34661  -0.33713  -0.33139
 Alpha  occ. eigenvalues --   -0.33033  -0.32902  -0.31458  -0.30751  -0.30613
 Alpha  occ. eigenvalues --   -0.29577  -0.29223  -0.28577  -0.28278  -0.23647
 Alpha  occ. eigenvalues --   -0.21199
 Alpha virt. eigenvalues --   -0.05396  -0.03392   0.01967   0.03482   0.04612
 Alpha virt. eigenvalues --    0.05167   0.05955   0.06332   0.06620   0.07357
 Alpha virt. eigenvalues --    0.08245   0.10476   0.11097   0.11194   0.11812

 Mulliken charges:
               1
     1  Mg   0.819431
     2  C    0.112905
     3  C   -0.203033
     4  C   -0.137796
     5  C   -0.153974
     6  N   -0.636133
     7  C    0.235289
     8  C   -0.139203
     9  C   -0.151459
    10  C    0.341194
    11  C   -0.309559
    12  C   -0.150809
    13  C   -0.272693
    14  C    0.625058
    15  O   -0.434238
    16  O   -0.461958
    17  N   -0.738121
    18  C    0.344731
    19  C    0.001260
    20  C   -0.030794
    21  C    0.314831
    22  C   -0.353534
    23  C   -0.089181
    24  C   -0.234466
    25  N   -0.658027
    26  C    0.240452
    27  C    0.080978
    28  C    0.036427
    29  C    0.287998
    30  C   -0.383803
    31  C   -0.246821
    32  C   -0.292371
    33  N   -0.747133
    34  C    0.230656
    35  C    0.022810
    36  C   -0.058501
    37  C    0.345797
    38  C   -0.366466
    39  C    0.379375
    40  O   -0.405784
    41  C   -0.358062
    42  C    0.623925
    43  O   -0.578634
    44  O   -0.423675
    45  C   -0.074382
    46  C    0.020130
    47  C   -0.116453
    48  C    0.087623
    49  C   -0.337723
    50  C   -0.227018
    51  C   -0.193103
    52  C   -0.178414
    53  C   -0.056866
    54  C   -0.306160
    55  C   -0.152412
    56  C   -0.165316
    57  C   -0.192688
    58  C   -0.078463
    59  C   -0.312002
    60  C   -0.138852
    61  C   -0.203945
    62  C   -0.170688
    63  C   -0.059655
    64  C   -0.285542
    65  C   -0.326102
    66  H    0.082153
    67  H    0.080071
    68  H    0.084892
    69  H    0.140540
    70  H    0.111080
    71  H    0.075492
    72  H    0.111088
    73  H    0.141533
    74  H    0.119509
    75  H    0.096964
    76  H    0.139068
    77  H    0.137240
    78  H    0.110434
    79  H    0.120087
    80  H    0.119286
    81  H    0.095497
    82  H    0.115914
    83  H    0.112849
    84  H    0.103043
    85  H    0.109589
    86  H    0.106328
    87  H    0.100645
    88  H    0.081737
    89  H    0.097670
    90  H    0.093827
    91  H    0.118275
    92  H    0.133298
    93  H    0.139662
    94  H    0.121050
    95  H    0.168613
    96  H    0.142292
    97  H    0.138602
    98  H    0.130001
    99  H    0.077617
   100  H    0.097998
   101  H    0.086832
   102  H    0.083262
   103  H    0.136781
   104  H    0.139524
   105  H    0.112406
   106  H    0.085385
   107  H    0.103578
   108  H    0.082826
   109  H    0.093237
   110  H    0.095389
   111  H    0.050036
   112  H    0.111249
   113  H    0.066850
   114  H    0.105775
   115  H    0.096800
   116  H    0.073079
   117  H    0.108210
   118  H    0.093898
   119  H    0.074087
   120  H    0.093368
   121  H    0.081803
   122  H    0.105098
   123  H    0.090003
   124  H    0.114438
   125  H    0.104523
   126  H    0.072170
   127  H    0.066993
   128  H    0.092984
   129  H    0.094599
   130  H    0.092157
   131  H    0.082183
   132  H    0.099014
   133  H    0.078927
   134  H    0.117249
   135  H    0.082198
   136  H    0.103267
   137  H    0.117017
 Sum of Mulliken charges =   0.00000

 Dipole moment (field-independent basis, Debye):
    X=              3.2156    Y=              3.8669    Z=              0.8303  Tot=              5.0973
 Quadrupole moment (field-independent basis, Debye-Ang):
   XX=           -363.8813   YY=           -384.3002   ZZ=           -400.5586
   XY=            -16.1988   XZ=              9.2409   YZ=              2.9977

 Normal termination of Gaussian 09 at Tue Jul  2 12:55:40 2019.
