 Gaussian 09, Revision D.01,
 Gaussian 09:  ES64L-G09RevD.01 24-Apr-2013

 -------------------------------------
 # td=(NStates=1) CAM-B3LYP/6-31G(d,p)
 -------------------------------------

 --
 TD
 --
 Symbolic Z-matrix:
 Charge =  0 Multiplicity = 1

                         Standard orientation:
 ---------------------------------------------------------------------
 Center     Atomic      Atomic             Coordinates (Angstroms)
 Number     Number       Type             X           Y           Z
 ---------------------------------------------------------------------
      1         12           0       -7.149540    0.689380    0.075719
      2          6           0       -4.909382   -1.925562    0.474766
      3          6           0       -4.903370    2.781968    1.212919
      4          6           0       -9.373630    3.208167   -0.409655
      5          6           0       -9.555922   -1.692354   -1.018708
      6          7           0       -5.101739    0.338995    0.734591
      7          6           0       -4.349172   -0.700100    0.697261
      8          6           0       -2.919238   -0.428042    1.156152
      9          6           0       -3.009054    1.044308    1.604859
     10          6           0       -4.370511    1.448310    1.183677
     11          6           0       -2.845189    1.123727    3.131304
     12          6           0       -1.961106   -0.599216    0.007302
     13          6           0       -0.513152   -0.325443    0.532765
     14          6           0        0.559214   -0.716448   -0.594724
     15          8           0        0.300206   -1.122722   -1.757740
     16          8           0        1.810936   -0.532252   -0.239008
     17          7           0       -7.099606    2.712713    0.210027
     18          6           0       -5.999977    3.350319    0.772199
     19          6           0       -6.351272    4.792881    0.815952
     20          6           0       -7.666891    4.907525    0.399100
     21          6           0       -8.082410    3.586552    0.047126
     22          6           0       -5.373692    5.985709    1.116462
     23          6           0       -8.460032    6.135337    0.266931
     24          6           0       -8.296095    7.212810    0.879116
     25          7           0       -9.105623    0.729507   -0.614725
     26          6           0       -9.792213    1.862380   -0.741265
     27          6           0      -11.140471    1.522677   -1.140910
     28          6           0      -11.171905    0.137873   -1.291163
     29          6           0       -9.885562   -0.284355   -0.965249
     30          6           0      -12.324664    2.475749   -1.302028
     31          6           0      -12.411205   -0.640753   -1.802092
     32          6           0      -12.026857   -1.286017   -3.265674
     33          7           0       -7.233198   -1.362881   -0.115990
     34          6           0       -8.317218   -2.213216   -0.525304
     35          6           0       -7.887833   -3.555688   -0.546653
     36          6           0       -6.557899   -3.604067   -0.188898
     37          6           0       -6.238932   -2.125176    0.117267
     38          6           0       -8.697478   -4.807226   -0.938553
     39          6           0       -5.391845   -4.390107    0.231914
     40          8           0       -5.311587   -5.579857    0.363424
     41          6           0       -4.181795   -3.324464    0.510331
     42          6           0       -3.687760   -3.661819    1.943336
     43          8           0       -3.981710   -3.157558    2.998716
     44          8           0       -2.856997   -4.717064    1.887444
     45          6           0       -2.478434   -5.350675    3.124173
     46          6           0        2.857223   -0.748821   -1.177689
     47          6           0        4.143616   -0.494995   -0.411909
     48          6           0        5.194843    0.244514   -0.910234
     49          6           0        5.099808    1.236541   -1.991747
     50          6           0        6.435222    0.246553   -0.191731
     51          6           0        7.810792   -0.204860   -0.924070
     52          6           0        9.016840   -0.169979   -0.079865
     53          6           0       10.198933   -0.664103   -0.878892
     54          6           0       10.136434   -2.032094   -1.509658
     55          6           0       11.434230   -0.491054    0.005977
     56          6           0       12.729008   -0.583766   -0.714612
     57          6           0       13.892194   -0.112163    0.172157
     58          6           0       15.301105   -0.149980   -0.480675
     59          6           0       15.678157   -1.506745   -0.911443
     60          6           0       16.413830    0.434245    0.346998
     61          6           0       17.763553    0.512521   -0.173893
     62          6           0       18.757563    1.265606    0.792492
     63          6           0       20.209473    1.350025    0.196558
     64          6           0       20.346685    2.326348   -1.014370
     65          6           0       21.061552    1.969606    1.242554
     66          1           0       -4.237520    3.555921    1.780951
     67          1           0       -9.977108    4.132064   -0.787185
     68          1           0      -10.350819   -2.237241   -1.610709
     69          1           0       -2.782188   -1.249060    1.833356
     70          1           0       -2.272790    1.761410    1.175321
     71          1           0       -1.676515    0.848124    3.333613
     72          1           0       -2.958924    2.188433    3.430412
     73          1           0       -3.430485    0.221730    3.637297
     74          1           0       -2.016302   -1.668316   -0.170826
     75          1           0       -2.334100    0.109079   -0.840414
     76          1           0       -0.220673    0.783601    0.805659
     77          1           0       -0.254969   -0.886521    1.396235
     78          1           0       -5.722780    6.803685    0.474066
     79          1           0       -5.278035    6.324982    2.269963
     80          1           0       -4.471252    5.552334    1.005558
     81          1           0       -8.988270    5.995448   -0.738146
     82          1           0       -8.974069    8.153504    0.588759
     83          1           0       -7.689122    7.420906    1.764821
     84          1           0      -12.045009    3.161463   -2.290983
     85          1           0      -13.354062    1.893234   -1.377599
     86          1           0      -12.159690    3.212136   -0.286994
     87          1           0      -12.510597   -1.380740   -1.105849
     88          1           0      -13.340726    0.234156   -1.940946
     89          1           0      -12.981213   -1.790494   -3.715548
     90          1           0      -11.739690   -0.509624   -3.911168
     91          1           0      -11.102434   -1.906419   -3.261693
     92          1           0       -8.896427   -4.817829   -1.941227
     93          1           0       -8.112030   -5.611830   -0.970981
     94          1           0       -9.551358   -4.920037   -0.356347
     95          1           0       -3.407914   -3.556946   -0.221532
     96          1           0       -1.896050   -4.603622    3.870537
     97          1           0       -3.433655   -5.716784    3.705767
     98          1           0       -1.647013   -6.097134    2.839020
     99          1           0        2.837368   -1.682701   -1.603554
    100          1           0        2.863728    0.101777   -2.045950
    101          1           0        4.047403   -1.047622    0.537355
    102          1           0        3.987262    1.732772   -2.194448
    103          1           0        5.649588    2.186848   -1.665150
    104          1           0        5.411077    0.793201   -2.993307
    105          1           0        6.658453    1.168011    0.442098
    106          1           0        6.222558   -0.551108    0.737893
    107          1           0        7.535253   -1.255801   -1.174838
    108          1           0        7.759205    0.437522   -1.929993
    109          1           0        9.299692    0.896313    0.163248
    110          1           0        9.080652   -0.728995    0.713894
    111          1           0       10.129397    0.120288   -1.726417
    112          1           0        9.359455   -2.034048   -2.285468
    113          1           0       11.020249   -2.603250   -1.984990
    114          1           0        9.693981   -2.731543   -0.611169
    115          1           0       11.717122    0.467780    0.427125
    116          1           0       11.340757   -1.350960    0.797377
    117          1           0       13.138326   -1.582746   -1.053488
    118          1           0       12.651398   -0.258708   -1.662157
    119          1           0       13.748961    0.890426    0.661971
    120          1           0       13.790732   -0.675011    1.299914
    121          1           0       15.248131    0.491695   -1.452469
    122          1           0       15.701966   -2.098611    0.096759
    123          1           0       14.962197   -1.996999   -1.674787
    124          1           0       16.751116   -1.396146   -1.454070
    125          1           0       16.163794    1.364104    0.754015
    126          1           0       16.507729   -0.238676    1.342885
    127          1           0       18.101208   -0.657709   -0.220881
    128          1           0       17.949489    0.839657   -1.240518
    129          1           0       18.308377    2.086050    0.885618
    130          1           0       18.836979    0.616153    1.655700
    131          1           0       20.552144    0.395883   -0.180574
    132          1           0       20.193318    3.363908   -0.740559
    133          1           0       21.348470    2.288321   -1.575664
    134          1           0       19.731058    2.121792   -1.826023
    135          1           0       21.040891    1.653761    2.292897
    136          1           0       22.179381    1.934757    1.064985
    137          1           0       20.735145    2.976979    1.331020
 ---------------------------------------------------------------------

 SCF Done:  E(RCAM-B3LYP) =  -2932.62713644     A.U. after   15 cycles

 Excitation energies and oscillator strengths:

 Excited State   1:      Singlet-A      2.0466 eV  605.80 nm  f=0.1789  <S**2>=0.000
     240 -> 243       -0.27492
     241 -> 242        0.64539
 This state for optimization and/or second-order correction.
 Total Energy, E(TD-HF/TD-KS) =  -2932.55192406
 Copying the excited state density for this state as the 1-particle RhoCI density.

 The electronic state is 1-A.
 Alpha  occ. eigenvalues --  -46.85250 -19.26877 -19.25979 -19.20842 -19.20706
 Alpha  occ. eigenvalues --  -19.19810 -14.42094 -14.39767 -14.39172 -14.38588
 Alpha  occ. eigenvalues --  -10.39485 -10.39148 -10.35614 -10.33338 -10.32057
 Alpha  occ. eigenvalues --  -10.31977 -10.29768 -10.29758 -10.29564 -10.29523
 Alpha  occ. eigenvalues --  -10.29312 -10.29086 -10.28906 -10.28878 -10.28602
 Alpha  occ. eigenvalues --  -10.28551 -10.28350 -10.28318 -10.28256 -10.28227
 Alpha  occ. eigenvalues --  -10.28205 -10.27879 -10.27865 -10.27780 -10.27674
 Alpha  occ. eigenvalues --  -10.27402 -10.27266 -10.27125 -10.27027 -10.26992
 Alpha  occ. eigenvalues --  -10.26945 -10.26908 -10.26819 -10.26639 -10.26586
 Alpha  occ. eigenvalues --  -10.26488 -10.26377 -10.26334 -10.26293 -10.26276
 Alpha  occ. eigenvalues --  -10.26248 -10.26126 -10.26045 -10.25720 -10.25529
 Alpha  occ. eigenvalues --  -10.25265 -10.25144 -10.24899 -10.24648 -10.24416
 Alpha  occ. eigenvalues --  -10.24112 -10.23995 -10.23902 -10.23738 -10.23658
 Alpha  occ. eigenvalues --   -3.14145  -1.88867  -1.88373  -1.88314  -1.19067
 Alpha  occ. eigenvalues --   -1.18243  -1.12059  -1.08959  -1.06546  -1.06212
 Alpha  occ. eigenvalues --   -1.04725  -1.04044  -1.03502  -0.92297  -0.91450
 Alpha  occ. eigenvalues --   -0.91341  -0.91069  -0.90660  -0.89853  -0.88940
 Alpha  occ. eigenvalues --   -0.88821  -0.87978  -0.87482  -0.86646  -0.86325
 Alpha  occ. eigenvalues --   -0.85514  -0.84436  -0.83428  -0.82699  -0.82404
 Alpha  occ. eigenvalues --   -0.81371  -0.80636  -0.80379  -0.80098  -0.78960
 Alpha  occ. eigenvalues --   -0.78073  -0.76702  -0.76243  -0.75958  -0.75764
 Alpha  occ. eigenvalues --   -0.75088  -0.74432  -0.74005  -0.73211  -0.72769
 Alpha  occ. eigenvalues --   -0.71577  -0.70460  -0.70037  -0.69010  -0.67713
 Alpha  occ. eigenvalues --   -0.66651  -0.66585  -0.65872  -0.65186  -0.64762
 Alpha  occ. eigenvalues --   -0.64534  -0.63738  -0.63517  -0.63024  -0.61688
 Alpha  occ. eigenvalues --   -0.61105  -0.60177  -0.59810  -0.59466  -0.58797
 Alpha  occ. eigenvalues --   -0.58617  -0.58322  -0.57479  -0.56999  -0.56877
 Alpha  occ. eigenvalues --   -0.56640  -0.55895  -0.55472  -0.55026  -0.54893
 Alpha  occ. eigenvalues --   -0.54381  -0.54131  -0.53786  -0.53447  -0.53336
 Alpha  occ. eigenvalues --   -0.52828  -0.52534  -0.52246  -0.51880  -0.51818
 Alpha  occ. eigenvalues --   -0.51641  -0.51599  -0.51308  -0.51211  -0.50931
 Alpha  occ. eigenvalues --   -0.50821  -0.50587  -0.49970  -0.49856  -0.49777
 Alpha  occ. eigenvalues --   -0.49455  -0.49001  -0.48984  -0.48738  -0.48448
 Alpha  occ. eigenvalues --   -0.48187  -0.48023  -0.47592  -0.47436  -0.46955
 Alpha  occ. eigenvalues --   -0.46786  -0.46659  -0.46607  -0.46308  -0.45999
 Alpha  occ. eigenvalues --   -0.45869  -0.45532  -0.45234  -0.45068  -0.44690
 Alpha  occ. eigenvalues --   -0.44655  -0.44606  -0.44509  -0.43981  -0.43948
 Alpha  occ. eigenvalues --   -0.43790  -0.43663  -0.43600  -0.43358  -0.42983
 Alpha  occ. eigenvalues --   -0.42872  -0.42702  -0.42539  -0.42269  -0.42235
 Alpha  occ. eigenvalues --   -0.42029  -0.41901  -0.41719  -0.41454  -0.41270
 Alpha  occ. eigenvalues --   -0.41179  -0.40905  -0.40615  -0.40492  -0.40138
 Alpha  occ. eigenvalues --   -0.39964  -0.39676  -0.39251  -0.39165  -0.38938
 Alpha  occ. eigenvalues --   -0.38842  -0.38659  -0.38538  -0.38182  -0.37780
 Alpha  occ. eigenvalues --   -0.37759  -0.37530  -0.37290  -0.36613  -0.36490
 Alpha  occ. eigenvalues --   -0.36047  -0.35949  -0.35747  -0.35717  -0.35397
 Alpha  occ. eigenvalues --   -0.35373  -0.34924  -0.34323  -0.34001  -0.33776
 Alpha  occ. eigenvalues --   -0.33192  -0.32905  -0.32551  -0.31030  -0.30055
 Alpha  occ. eigenvalues --   -0.29766  -0.28930  -0.28330  -0.27233  -0.23069
 Alpha  occ. eigenvalues --   -0.20825
 Alpha virt. eigenvalues --   -0.05971  -0.03512   0.01792   0.04463   0.04627
 Alpha virt. eigenvalues --    0.05793   0.06151   0.06273   0.06570   0.07633
 Alpha virt. eigenvalues --    0.08522   0.09966   0.10617   0.11537   0.11764

 Mulliken charges:
               1
     1  Mg   0.823829
     2  C    0.042463
     3  C   -0.235300
     4  C   -0.184890
     5  C   -0.165700
     6  N   -0.621745
     7  C    0.328491
     8  C   -0.166349
     9  C   -0.151908
    10  C    0.324862
    11  C   -0.290978
    12  C   -0.142350
    13  C   -0.267531
    14  C    0.577439
    15  O   -0.501881
    16  O   -0.443728
    17  N   -0.736675
    18  C    0.349705
    19  C   -0.022191
    20  C   -0.003870
    21  C    0.313893
    22  C   -0.344605
    23  C   -0.019845
    24  C   -0.271750
    25  N   -0.697295
    26  C    0.306485
    27  C   -0.001504
    28  C    0.000451
    29  C    0.293767
    30  C   -0.344921
    31  C   -0.208847
    32  C   -0.323421
    33  N   -0.710486
    34  C    0.243267
    35  C   -0.023581
    36  C    0.002577
    37  C    0.322820
    38  C   -0.351078
    39  C    0.370446
    40  O   -0.440436
    41  C   -0.328663
    42  C    0.614577
    43  O   -0.476375
    44  O   -0.441849
    45  C   -0.074827
    46  C    0.026181
    47  C   -0.137922
    48  C    0.146862
    49  C   -0.368773
    50  C   -0.243609
    51  C   -0.185322
    52  C   -0.135024
    53  C   -0.079901
    54  C   -0.303629
    55  C   -0.162468
    56  C   -0.167328
    57  C   -0.183222
    58  C   -0.048807
    59  C   -0.283069
    60  C   -0.152328
    61  C   -0.200042
    62  C   -0.146518
    63  C   -0.066735
    64  C   -0.320837
    65  C   -0.299812
    66  H    0.075264
    67  H    0.091380
    68  H    0.101402
    69  H    0.126896
    70  H    0.115284
    71  H    0.081538
    72  H    0.112101
    73  H    0.133888
    74  H    0.123151
    75  H    0.117367
    76  H    0.124722
    77  H    0.143119
    78  H    0.134730
    79  H    0.093358
    80  H    0.119451
    81  H    0.098594
    82  H    0.087754
    83  H    0.118790
    84  H    0.100179
    85  H    0.105103
    86  H    0.099815
    87  H    0.126093
    88  H    0.074086
    89  H    0.096719
    90  H    0.127148
    91  H    0.111092
    92  H    0.125893
    93  H    0.142050
    94  H    0.130598
    95  H    0.163208
    96  H    0.102842
    97  H    0.135752
    98  H    0.125596
    99  H    0.144732
   100  H    0.093119
   101  H    0.103216
   102  H    0.097605
   103  H    0.118653
   104  H    0.126902
   105  H    0.094241
   106  H    0.062785
   107  H    0.108793
   108  H    0.085173
   109  H    0.096555
   110  H    0.101738
   111  H    0.068826
   112  H    0.111919
   113  H    0.112449
   114  H    0.068375
   115  H    0.099783
   116  H    0.079303
   117  H    0.079721
   118  H    0.105367
   119  H    0.083644
   120  H    0.053160
   121  H    0.073130
   122  H    0.090555
   123  H    0.092725
   124  H    0.087786
   125  H    0.090813
   126  H    0.064032
   127  H    0.067654
   128  H    0.087944
   129  H    0.099527
   130  H    0.103773
   131  H    0.093703
   132  H    0.102163
   133  H    0.090296
   134  H    0.102946
   135  H    0.089705
   136  H    0.090165
   137  H    0.103868
 Sum of Mulliken charges =   0.00000

 Dipole moment (field-independent basis, Debye):
    X=              3.0604    Y=              4.4571    Z=              0.0149  Tot=              5.4067
 Quadrupole moment (field-independent basis, Debye-Ang):
   XX=           -374.4772   YY=           -393.7459   ZZ=           -397.3517
   XY=            -10.2618   XZ=             10.4531   YZ=              0.9280

 Normal termination of Gaussian 09 at Sat Jul  6 12:53:47 2019.
