 Gaussian 09, Revision D.01,
 Gaussian 09:  ES64L-G09RevD.01 24-Apr-2013

 -------------------------------------
 # td=(NStates=1) CAM-B3LYP/6-31G(d,p)
 -------------------------------------

 --
 TD
 --
 Symbolic Z-matrix:
 Charge =  0 Multiplicity = 1

                         Standard orientation:
 ---------------------------------------------------------------------
 Center     Atomic      Atomic             Coordinates (Angstroms)
 Number     Number       Type             X           Y           Z
 ---------------------------------------------------------------------
      1         12           0       -7.213291    0.628080    0.099352
      2          6           0       -4.822615   -1.947177    0.547338
      3          6           0       -4.820125    2.832725    1.097591
      4          6           0       -9.359048    3.110098   -0.499678
      5          6           0       -9.528452   -1.694078   -0.782259
      6          7           0       -5.132269    0.323839    0.658586
      7          6           0       -4.337147   -0.735463    0.840663
      8          6           0       -2.852204   -0.404945    1.205069
      9          6           0       -3.028520    1.101955    1.607892
     10          6           0       -4.448610    1.474512    1.146319
     11          6           0       -2.900402    1.240698    3.132614
     12          6           0       -1.833903   -0.587215    0.124029
     13          6           0       -0.348855   -0.463853    0.475626
     14          6           0        0.515544   -0.560773   -0.693987
     15          8           0        0.186968   -0.954769   -1.819442
     16          8           0        1.835009   -0.428349   -0.302494
     17          7           0       -7.149864    2.617907    0.259530
     18          6           0       -6.090347    3.389655    0.803812
     19          6           0       -6.456484    4.772992    0.824648
     20          6           0       -7.795317    4.914504    0.329305
     21          6           0       -8.124111    3.490385    0.033433
     22          6           0       -5.515392    5.853653    1.045671
     23          6           0       -8.502534    6.075372    0.136031
     24          6           0       -8.404725    7.305570    0.780704
     25          7           0       -9.105325    0.655636   -0.493607
     26          6           0       -9.824847    1.777992   -0.662867
     27          6           0      -11.265581    1.442253   -1.075102
     28          6           0      -11.280775    0.045857   -1.264162
     29          6           0       -9.958022   -0.365720   -0.848210
     30          6           0      -12.212711    2.422618   -1.241896
     31          6           0      -12.382712   -0.796709   -1.583680
     32          6           0      -12.423120   -1.094100   -3.119910
     33          7           0       -7.211542   -1.468141   -0.079173
     34          6           0       -8.303498   -2.233836   -0.452270
     35          6           0       -7.838635   -3.639026   -0.456664
     36          6           0       -6.600601   -3.576847    0.057606
     37          6           0       -6.214601   -2.220510    0.182753
     38          6           0       -8.665220   -4.844993   -0.885057
     39          6           0       -5.300694   -4.396217    0.234652
     40          8           0       -5.201774   -5.610577    0.284276
     41          6           0       -4.137074   -3.373453    0.477085
     42          6           0       -3.534780   -3.687220    1.837992
     43          8           0       -3.705661   -3.065006    2.904981
     44          8           0       -2.663404   -4.678030    1.727669
     45          6           0       -2.011378   -5.186389    2.834662
     46          6           0        2.847742   -0.702932   -1.362206
     47          6           0        4.100152   -0.397922   -0.571155
     48          6           0        5.179246    0.306986   -1.026657
     49          6           0        5.054507    1.118049   -2.253011
     50          6           0        6.387567    0.449093   -0.168796
     51          6           0        7.634459   -0.160327   -1.028265
     52          6           0        8.846277   -0.107409   -0.160008
     53          6           0       10.198295   -0.469030   -0.940143
     54          6           0       10.159701   -2.009466   -1.330086
     55          6           0       11.378307   -0.133137   -0.030493
     56          6           0       12.790470   -0.416980   -0.746925
     57          6           0       13.985425   -0.075042    0.143729
     58          6           0       15.315998   -0.217269   -0.362902
     59          6           0       15.557677   -1.682965   -0.829095
     60          6           0       16.447538    0.335555    0.534827
     61          6           0       17.858151    0.343541   -0.032318
     62          6           0       18.777286    1.288305    0.736340
     63          6           0       20.193347    1.328708    0.214678
     64          6           0       20.427859    2.073514   -1.047037
     65          6           0       21.061791    2.075927    1.378581
     66          1           0       -4.071799    3.456524    1.421246
     67          1           0      -10.213693    3.973238   -0.642213
     68          1           0      -10.337069   -2.374214   -1.115808
     69          1           0       -2.550083   -0.958807    2.198005
     70          1           0       -2.341888    1.767320    1.042707
     71          1           0       -1.960839    0.924512    3.387490
     72          1           0       -3.396164    2.196030    3.353123
     73          1           0       -3.558098    0.499945    3.628876
     74          1           0       -1.833913   -1.537528   -0.449320
     75          1           0       -2.165791    0.173783   -0.733707
     76          1           0       -0.236719    0.707312    0.613243
     77          1           0       -0.141777   -1.018487    1.426275
     78          1           0       -5.790964    6.598658    0.315677
     79          1           0       -5.551281    6.166845    2.018737
     80          1           0       -4.619982    5.505032    0.415748
     81          1           0       -9.488395    5.962908   -0.469655
     82          1           0       -8.940656    8.227802    0.552385
     83          1           0       -7.578288    7.356278    1.564162
     84          1           0      -11.991552    3.161841   -2.085161
     85          1           0      -13.175873    2.066459   -1.550744
     86          1           0      -12.284620    2.939804   -0.325452
     87          1           0      -12.304406   -1.795845   -0.922652
     88          1           0      -13.350067   -0.348801   -1.258703
     89          1           0      -13.379850   -1.686722   -3.159872
     90          1           0      -12.392632   -0.196192   -3.817959
     91          1           0      -11.400174   -1.625807   -3.502155
     92          1           0       -8.830661   -4.867385   -2.015662
     93          1           0       -8.255860   -5.736022   -0.712200
     94          1           0       -9.690995   -5.024957   -0.402647
     95          1           0       -3.373105   -3.719529   -0.147492
     96          1           0       -1.186177   -4.542883    3.229048
     97          1           0       -2.821300   -5.068707    3.847060
     98          1           0       -1.582596   -6.185484    2.553114
     99          1           0        2.758975   -1.777860   -1.616561
    100          1           0        2.721149   -0.072411   -2.173441
    101          1           0        4.124217   -0.905496    0.441892
    102          1           0        4.052446    1.244100   -2.581473
    103          1           0        5.591170    2.111089   -1.894100
    104          1           0        5.602199    0.425253   -2.910267
    105          1           0        6.809603    1.298107   -0.008237
    106          1           0        6.538352   -0.059296    0.896228
    107          1           0        7.233460   -1.100744   -1.413034
    108          1           0        7.755511    0.383017   -1.874748
    109          1           0        8.820840    0.910108    0.455008
    110          1           0        8.592898   -0.836073    0.607278
    111          1           0       10.403702    0.137141   -1.868877
    112          1           0        9.288740   -2.302586   -2.050112
    113          1           0       11.122709   -2.385860   -1.904192
    114          1           0        9.932409   -2.617882   -0.575665
    115          1           0       11.566581    0.929689    0.315973
    116          1           0       11.491870   -0.738190    0.942883
    117          1           0       12.793530   -1.502261   -1.031882
    118          1           0       12.731599    0.116014   -1.550593
    119          1           0       13.614053    0.922062    0.341443
    120          1           0       13.919157   -0.554714    1.202747
    121          1           0       15.603514    0.394279   -1.288679
    122          1           0       15.552092   -2.419900    0.016562
    123          1           0       14.959181   -2.045727   -1.389598
    124          1           0       16.666781   -1.989883   -1.132252
    125          1           0       16.326930    1.194160    0.935231
    126          1           0       16.478016   -0.187401    1.342375
    127          1           0       18.396648   -0.743083   -0.203803
    128          1           0       17.781605    0.716957   -1.159323
    129          1           0       18.325004    2.283837    0.791859
    130          1           0       18.972867    0.919271    1.730266
    131          1           0       20.587810    0.456366    0.076898
    132          1           0       20.204589    3.154932   -0.801919
    133          1           0       21.346317    2.009141   -1.417530
    134          1           0       19.845870    1.797766   -2.034610
    135          1           0       21.102185    1.645434    2.321513
    136          1           0       22.135515    2.240818    0.905474
    137          1           0       20.624762    3.068039    1.479392
 ---------------------------------------------------------------------

 SCF Done:  E(RCAM-B3LYP) =  -2932.62102832     A.U. after   18 cycles

 Excitation energies and oscillator strengths:

 Excited State   1:      Singlet-A      1.9376 eV  639.90 nm  f=0.2808  <S**2>=0.000
     240 -> 243       -0.21289
     241 -> 242        0.66593
 This state for optimization and/or second-order correction.
 Total Energy, E(TD-HF/TD-KS) =  -2932.54982418
 Copying the excited state density for this state as the 1-particle RhoCI density.

 The electronic state is 1-A.
 Alpha  occ. eigenvalues --  -46.84472 -19.26981 -19.25415 -19.20949 -19.20845
 Alpha  occ. eigenvalues --  -19.20384 -14.41437 -14.39782 -14.39642 -14.38695
 Alpha  occ. eigenvalues --  -10.39280 -10.39261 -10.35780 -10.32992 -10.31452
 Alpha  occ. eigenvalues --  -10.30967 -10.29991 -10.29887 -10.29578 -10.29151
 Alpha  occ. eigenvalues --  -10.28621 -10.28605 -10.28603 -10.28542 -10.28183
 Alpha  occ. eigenvalues --  -10.28098 -10.28078 -10.27961 -10.27954 -10.27878
 Alpha  occ. eigenvalues --  -10.27674 -10.27538 -10.27478 -10.27265 -10.27141
 Alpha  occ. eigenvalues --  -10.27100 -10.27061 -10.27032 -10.26672 -10.26650
 Alpha  occ. eigenvalues --  -10.26646 -10.26598 -10.26359 -10.26222 -10.26062
 Alpha  occ. eigenvalues --  -10.25986 -10.25915 -10.25719 -10.25670 -10.25655
 Alpha  occ. eigenvalues --  -10.25557 -10.25543 -10.25115 -10.25011 -10.24858
 Alpha  occ. eigenvalues --  -10.24768 -10.24764 -10.24746 -10.24519 -10.24454
 Alpha  occ. eigenvalues --  -10.24407 -10.23797 -10.23732 -10.23135 -10.21736
 Alpha  occ. eigenvalues --   -3.13544  -1.88245  -1.87798  -1.87716  -1.19557
 Alpha  occ. eigenvalues --   -1.15994  -1.11041  -1.07906  -1.07660  -1.05175
 Alpha  occ. eigenvalues --   -1.03769  -1.02916  -1.02300  -0.91694  -0.91252
 Alpha  occ. eigenvalues --   -0.91171  -0.90152  -0.90050  -0.89773  -0.89587
 Alpha  occ. eigenvalues --   -0.88660  -0.88528  -0.87739  -0.86887  -0.86322
 Alpha  occ. eigenvalues --   -0.85649  -0.84625  -0.84425  -0.83489  -0.82851
 Alpha  occ. eigenvalues --   -0.81788  -0.81113  -0.80330  -0.79798  -0.78123
 Alpha  occ. eigenvalues --   -0.78071  -0.77383  -0.76816  -0.76438  -0.76050
 Alpha  occ. eigenvalues --   -0.75494  -0.75289  -0.74858  -0.72954  -0.72266
 Alpha  occ. eigenvalues --   -0.70956  -0.70377  -0.69590  -0.69282  -0.68011
 Alpha  occ. eigenvalues --   -0.67144  -0.67103  -0.66010  -0.64454  -0.64366
 Alpha  occ. eigenvalues --   -0.63989  -0.63982  -0.63489  -0.63248  -0.62448
 Alpha  occ. eigenvalues --   -0.62399  -0.60479  -0.60096  -0.59499  -0.58930
 Alpha  occ. eigenvalues --   -0.58453  -0.58225  -0.57707  -0.56982  -0.56687
 Alpha  occ. eigenvalues --   -0.56551  -0.55563  -0.55348  -0.55137  -0.54962
 Alpha  occ. eigenvalues --   -0.54366  -0.54092  -0.53956  -0.53929  -0.53679
 Alpha  occ. eigenvalues --   -0.53567  -0.53213  -0.52638  -0.52100  -0.51622
 Alpha  occ. eigenvalues --   -0.51572  -0.51188  -0.51071  -0.50905  -0.50815
 Alpha  occ. eigenvalues --   -0.50569  -0.50250  -0.50143  -0.49942  -0.49899
 Alpha  occ. eigenvalues --   -0.49351  -0.49096  -0.49006  -0.48875  -0.48662
 Alpha  occ. eigenvalues --   -0.48535  -0.48420  -0.47822  -0.47564  -0.47448
 Alpha  occ. eigenvalues --   -0.46828  -0.46709  -0.46382  -0.46152  -0.46094
 Alpha  occ. eigenvalues --   -0.45568  -0.45239  -0.45056  -0.44839  -0.44627
 Alpha  occ. eigenvalues --   -0.44570  -0.44323  -0.44259  -0.44065  -0.43985
 Alpha  occ. eigenvalues --   -0.43751  -0.43690  -0.43591  -0.43431  -0.43094
 Alpha  occ. eigenvalues --   -0.43017  -0.42885  -0.42606  -0.42526  -0.42300
 Alpha  occ. eigenvalues --   -0.41835  -0.41780  -0.41418  -0.41344  -0.41333
 Alpha  occ. eigenvalues --   -0.41251  -0.41042  -0.40849  -0.40519  -0.40426
 Alpha  occ. eigenvalues --   -0.40095  -0.39895  -0.39774  -0.39350  -0.39233
 Alpha  occ. eigenvalues --   -0.39084  -0.38898  -0.38647  -0.38103  -0.38040
 Alpha  occ. eigenvalues --   -0.37930  -0.37327  -0.37034  -0.36592  -0.36343
 Alpha  occ. eigenvalues --   -0.36252  -0.36157  -0.35968  -0.35712  -0.35260
 Alpha  occ. eigenvalues --   -0.34988  -0.34977  -0.34780  -0.33843  -0.33478
 Alpha  occ. eigenvalues --   -0.33216  -0.33063  -0.32229  -0.30762  -0.29915
 Alpha  occ. eigenvalues --   -0.29805  -0.28259  -0.27830  -0.26621  -0.22832
 Alpha  occ. eigenvalues --   -0.20644
 Alpha virt. eigenvalues --   -0.06603  -0.02695   0.02068   0.03272   0.05268
 Alpha virt. eigenvalues --    0.05789   0.06318   0.06506   0.06591   0.06995
 Alpha virt. eigenvalues --    0.08746   0.10639   0.11150   0.11798   0.12292

 Mulliken charges:
               1
     1  Mg   0.836742
     2  C    0.049641
     3  C   -0.204774
     4  C   -0.200819
     5  C   -0.192502
     6  N   -0.629317
     7  C    0.321959
     8  C   -0.139872
     9  C   -0.158839
    10  C    0.311135
    11  C   -0.309027
    12  C   -0.169930
    13  C   -0.259725
    14  C    0.618977
    15  O   -0.482291
    16  O   -0.504321
    17  N   -0.717184
    18  C    0.308575
    19  C   -0.038663
    20  C    0.094510
    21  C    0.328189
    22  C   -0.375243
    23  C   -0.120829
    24  C   -0.251676
    25  N   -0.704621
    26  C    0.307257
    27  C    0.034010
    28  C    0.097254
    29  C    0.277145
    30  C   -0.411030
    31  C   -0.270191
    32  C   -0.297937
    33  N   -0.710329
    34  C    0.262982
    35  C    0.026923
    36  C   -0.041015
    37  C    0.319249
    38  C   -0.375952
    39  C    0.383061
    40  O   -0.447068
    41  C   -0.312864
    42  C    0.621969
    43  O   -0.496314
    44  O   -0.410361
    45  C   -0.086969
    46  C    0.021715
    47  C   -0.138901
    48  C    0.087401
    49  C   -0.339333
    50  C   -0.216793
    51  C   -0.202950
    52  C   -0.184549
    53  C   -0.055457
    54  C   -0.316058
    55  C   -0.185676
    56  C   -0.192957
    57  C   -0.166824
    58  C   -0.055355
    59  C   -0.298453
    60  C   -0.150330
    61  C   -0.181348
    62  C   -0.161070
    63  C   -0.055151
    64  C   -0.298868
    65  C   -0.327992
    66  H    0.080480
    67  H    0.085415
    68  H    0.089175
    69  H    0.116118
    70  H    0.102795
    71  H    0.119026
    72  H    0.107984
    73  H    0.125951
    74  H    0.122194
    75  H    0.097785
    76  H    0.125530
    77  H    0.147743
    78  H    0.131760
    79  H    0.136128
    80  H    0.115725
    81  H    0.082632
    82  H    0.118864
    83  H    0.093568
    84  H    0.117899
    85  H    0.111637
    86  H    0.134755
    87  H    0.097776
    88  H    0.111352
    89  H    0.107212
    90  H    0.113749
    91  H    0.097250
    92  H    0.114666
    93  H    0.149987
    94  H    0.111226
    95  H    0.167613
    96  H    0.116096
    97  H    0.107511
    98  H    0.130889
    99  H    0.132119
   100  H    0.122971
   101  H    0.089931
   102  H    0.122250
   103  H    0.109077
   104  H    0.130055
   105  H    0.111720
   106  H    0.087272
   107  H    0.100894
   108  H    0.107592
   109  H    0.078792
   110  H    0.105065
   111  H    0.089255
   112  H    0.088230
   113  H    0.096052
   114  H    0.124793
   115  H    0.084767
   116  H    0.084248
   117  H    0.086753
   118  H    0.105820
   119  H    0.086264
   120  H    0.076123
   121  H    0.075083
   122  H    0.082053
   123  H    0.109625
   124  H    0.080789
   125  H    0.091738
   126  H    0.099150
   127  H    0.064877
   128  H    0.071733
   129  H    0.090492
   130  H    0.095407
   131  H    0.096965
   132  H    0.086515
   133  H    0.112571
   134  H    0.080208
   135  H    0.110418
   136  H    0.079399
   137  H    0.103476
 Sum of Mulliken charges =   0.00000

 Dipole moment (field-independent basis, Debye):
    X=              1.1248    Y=              4.0906    Z=             -0.1533  Tot=              4.2452
 Quadrupole moment (field-independent basis, Debye-Ang):
   XX=           -337.7297   YY=           -392.6500   ZZ=           -399.0780
   XY=            -25.7691   XZ=             16.4033   YZ=              0.9666

 Normal termination of Gaussian 09 at Fri Jul  5 09:12:19 2019.
