 Gaussian 09, Revision D.01,
 Gaussian 09:  ES64L-G09RevD.01 24-Apr-2013

 -------------------------------------
 # td=(NStates=1) CAM-B3LYP/6-31G(d,p)
 -------------------------------------

 --
 TD
 --
 Symbolic Z-matrix:
 Charge =  0 Multiplicity = 1

                         Standard orientation:
 ---------------------------------------------------------------------
 Center     Atomic      Atomic             Coordinates (Angstroms)
 Number     Number       Type             X           Y           Z
 ---------------------------------------------------------------------
      1         12           0       -7.088137    0.572987    0.091962
      2          6           0       -4.777791   -1.999279    0.455297
      3          6           0       -4.786221    2.796550    1.136548
      4          6           0       -9.438178    3.061548   -0.406773
      5          6           0       -9.496994   -1.812247   -0.848088
      6          7           0       -5.140617    0.367367    0.742032
      7          6           0       -4.371841   -0.774922    0.802103
      8          6           0       -2.983331   -0.517477    1.335627
      9          6           0       -2.996513    1.052560    1.732034
     10          6           0       -4.453833    1.511019    1.289510
     11          6           0       -2.927911    1.204125    3.322860
     12          6           0       -1.877729   -0.674702    0.228887
     13          6           0       -0.543412   -0.346422    0.646934
     14          6           0        0.498110   -0.491389   -0.554089
     15          8           0        0.200780   -0.827614   -1.697853
     16          8           0        1.830578   -0.259773   -0.123594
     17          7           0       -7.110630    2.571222    0.224314
     18          6           0       -6.033389    3.362933    0.704636
     19          6           0       -6.430692    4.650108    0.793743
     20          6           0       -7.752331    4.816072    0.369472
     21          6           0       -8.156518    3.391252    0.119254
     22          6           0       -5.423438    5.837373    1.095221
     23          6           0       -8.651077    5.950028    0.204765
     24          6           0       -8.653138    7.108369    0.929521
     25          7           0       -9.111092    0.588003   -0.510039
     26          6           0       -9.847643    1.799856   -0.666652
     27          6           0      -11.202389    1.477589   -1.142804
     28          6           0      -11.258978    0.102546   -1.315251
     29          6           0       -9.917552   -0.456284   -0.886702
     30          6           0      -12.264703    2.476338   -1.360174
     31          6           0      -12.341921   -0.760360   -1.866444
     32          6           0      -12.188889   -0.910968   -3.470931
     33          7           0       -7.161551   -1.407754   -0.293082
     34          6           0       -8.299849   -2.167501   -0.506584
     35          6           0       -7.901340   -3.655579   -0.415936
     36          6           0       -6.556407   -3.652391   -0.126738
     37          6           0       -6.116704   -2.242556    0.067333
     38          6           0       -8.718695   -4.804915   -0.915318
     39          6           0       -5.421435   -4.389319    0.188020
     40          8           0       -5.208082   -5.605466    0.253746
     41          6           0       -4.172620   -3.368249    0.554602
     42          6           0       -3.440926   -3.666682    1.920683
     43          8           0       -3.667761   -3.054459    2.917879
     44          8           0       -2.624888   -4.807162    1.828919
     45          6           0       -1.957497   -5.227293    2.959907
     46          6           0        2.756238   -0.556051   -1.185632
     47          6           0        4.193368   -0.275203   -0.565041
     48          6           0        5.154496    0.483529   -0.910332
     49          6           0        5.121622    1.329987   -2.222762
     50          6           0        6.465061    0.459542   -0.211662
     51          6           0        7.683890   -0.140993   -0.983445
     52          6           0        8.928193    0.005114   -0.267683
     53          6           0       10.256233   -0.487636   -0.993284
     54          6           0       10.072707   -2.033920   -1.490069
     55          6           0       11.449562   -0.274942   -0.128474
     56          6           0       12.762073   -0.508318   -0.818072
     57          6           0       13.901745   -0.158826    0.056646
     58          6           0       15.305809   -0.174625   -0.489983
     59          6           0       15.773403   -1.638984   -0.809424
     60          6           0       16.270572    0.453312    0.450443
     61          6           0       17.691792    0.516078   -0.161774
     62          6           0       18.723083    1.295441    0.721773
     63          6           0       20.178872    1.337484    0.257996
     64          6           0       20.394148    2.041206   -1.041046
     65          6           0       21.134065    1.775681    1.374561
     66          1           0       -4.101942    3.395086    1.581431
     67          1           0      -10.125843    3.731105   -0.445081
     68          1           0      -10.273539   -2.499642   -1.370533
     69          1           0       -2.610377   -0.876364    2.287933
     70          1           0       -2.278977    1.685078    1.547142
     71          1           0       -1.944999    1.111481    3.796420
     72          1           0       -3.115989    2.241716    3.612898
     73          1           0       -3.806596    0.548046    3.638735
     74          1           0       -1.978447   -1.732385   -0.226954
     75          1           0       -2.349545   -0.238839   -0.736425
     76          1           0       -0.299798    0.663973    1.001521
     77          1           0        0.010645   -1.104163    1.425034
     78          1           0       -5.717277    6.711358    0.399290
     79          1           0       -5.653134    6.240936    2.106301
     80          1           0       -4.413724    5.568616    1.048775
     81          1           0       -9.526447    5.721299   -0.356563
     82          1           0       -9.481752    7.785951    0.791423
     83          1           0       -7.833804    7.338107    1.618948
     84          1           0      -11.908629    3.246656   -2.098349
     85          1           0      -13.137904    2.053998   -1.642725
     86          1           0      -12.469624    2.998595   -0.332288
     87          1           0      -12.278333   -1.998425   -1.496483
     88          1           0      -13.427388   -0.255180   -1.782096
     89          1           0      -13.077529   -1.457932   -3.726814
     90          1           0      -12.224238    0.222263   -4.009688
     91          1           0      -11.258764   -1.470326   -3.606230
     92          1           0       -8.990953   -4.639116   -1.960363
     93          1           0       -8.117747   -5.651244   -0.546492
     94          1           0       -9.658587   -4.901961   -0.074802
     95          1           0       -3.756031   -3.587419   -0.332776
     96          1           0       -1.138354   -4.541488    3.450187
     97          1           0       -2.549451   -5.615834    3.700075
     98          1           0       -1.375985   -6.072487    2.461275
     99          1           0        2.541924   -1.427598   -1.635559
    100          1           0        2.711865    0.267585   -1.922619
    101          1           0        4.162254   -0.906668    0.401106
    102          1           0        4.212108    1.518081   -2.727736
    103          1           0        5.528400    2.315854   -2.087458
    104          1           0        5.456146    0.824953   -2.989477
    105          1           0        6.658409    1.536996    0.210982
    106          1           0        6.272134   -0.238569    0.543480
    107          1           0        7.606930   -1.276168   -0.961255
    108          1           0        7.941658    0.177455   -2.112031
    109          1           0        9.130612    1.068140    0.085745
    110          1           0        8.778819   -0.526518    0.827797
    111          1           0       10.391525    0.192416   -1.768754
    112          1           0        9.187057   -2.020163   -2.056122
    113          1           0       10.966885   -2.129290   -2.121941
    114          1           0        9.920162   -2.576837   -0.574041
    115          1           0       11.255045    0.801632    0.279646
    116          1           0       11.562745   -0.955198    0.868851
    117          1           0       12.580883   -1.599382   -0.967838
    118          1           0       12.682275    0.152846   -1.639924
    119          1           0       13.750164    0.797107    0.361542
    120          1           0       13.836136   -0.693713    1.053535
    121          1           0       15.263293    0.306049   -1.457320
    122          1           0       15.712062   -2.303849   -0.000633
    123          1           0       15.125057   -2.273151   -1.501201
    124          1           0       16.786225   -1.693416   -1.381424
    125          1           0       15.848484    1.598016    0.645510
    126          1           0       16.193565   -0.090503    1.349004
    127          1           0       18.107000   -0.458817   -0.372379
    128          1           0       17.833490    0.944150   -1.240183
    129          1           0       18.274910    2.310903    0.704881
    130          1           0       18.745638    0.826428    1.811752
    131          1           0       20.565089    0.191260    0.203679
    132          1           0       20.205550    3.055386   -0.786755
    133          1           0       21.455773    2.131270   -1.489719
    134          1           0       19.762587    1.607357   -1.865086
    135          1           0       21.235368    1.135868    2.123273
    136          1           0       22.198779    2.021397    1.128527
    137          1           0       20.784990    2.729698    1.915278
 ---------------------------------------------------------------------

 SCF Done:  E(RCAM-B3LYP) =  -2932.65085065     A.U. after   18 cycles

 Excitation energies and oscillator strengths:

 Excited State   1:      Singlet-A      1.9106 eV  648.94 nm  f=0.3320  <S**2>=0.000
     240 -> 243       -0.17475
     241 -> 242        0.67405
 This state for optimization and/or second-order correction.
 Total Energy, E(TD-HF/TD-KS) =  -2932.58063817
 Copying the excited state density for this state as the 1-particle RhoCI density.

 The electronic state is 1-A.
 Alpha  occ. eigenvalues --  -46.83450 -19.26150 -19.26120 -19.22449 -19.21974
 Alpha  occ. eigenvalues --  -19.20862 -14.41467 -14.40303 -14.39929 -14.39022
 Alpha  occ. eigenvalues --  -10.40469 -10.40082 -10.35810 -10.31325 -10.31005
 Alpha  occ. eigenvalues --  -10.30869 -10.30765 -10.30585 -10.30193 -10.30169
 Alpha  occ. eigenvalues --  -10.30030 -10.29894 -10.29630 -10.28868 -10.28681
 Alpha  occ. eigenvalues --  -10.28521 -10.28482 -10.28456 -10.27713 -10.27576
 Alpha  occ. eigenvalues --  -10.27490 -10.27172 -10.26973 -10.26923 -10.26834
 Alpha  occ. eigenvalues --  -10.26830 -10.26816 -10.26797 -10.26747 -10.26670
 Alpha  occ. eigenvalues --  -10.26522 -10.26516 -10.26484 -10.26337 -10.26151
 Alpha  occ. eigenvalues --  -10.26098 -10.26057 -10.26034 -10.25937 -10.25892
 Alpha  occ. eigenvalues --  -10.25877 -10.25828 -10.25688 -10.25575 -10.25516
 Alpha  occ. eigenvalues --  -10.25487 -10.25233 -10.24921 -10.24735 -10.24617
 Alpha  occ. eigenvalues --  -10.24496 -10.24333 -10.23866 -10.23738 -10.23692
 Alpha  occ. eigenvalues --   -3.12634  -1.87336  -1.86852  -1.86842  -1.18053
 Alpha  occ. eigenvalues --   -1.16355  -1.11096  -1.10511  -1.08786  -1.03710
 Alpha  occ. eigenvalues --   -1.02842  -1.01477  -1.00718  -0.93295  -0.91845
 Alpha  occ. eigenvalues --   -0.91178  -0.89787  -0.89568  -0.89435  -0.88834
 Alpha  occ. eigenvalues --   -0.88478  -0.88075  -0.87828  -0.87487  -0.86062
 Alpha  occ. eigenvalues --   -0.85415  -0.84311  -0.83836  -0.82769  -0.82251
 Alpha  occ. eigenvalues --   -0.81314  -0.81095  -0.80784  -0.79986  -0.78435
 Alpha  occ. eigenvalues --   -0.77548  -0.77192  -0.76590  -0.76369  -0.76354
 Alpha  occ. eigenvalues --   -0.75544  -0.75105  -0.74618  -0.73446  -0.72919
 Alpha  occ. eigenvalues --   -0.71322  -0.70494  -0.69476  -0.69130  -0.68384
 Alpha  occ. eigenvalues --   -0.67021  -0.66756  -0.65526  -0.65351  -0.64695
 Alpha  occ. eigenvalues --   -0.63667  -0.63071  -0.63021  -0.62960  -0.62007
 Alpha  occ. eigenvalues --   -0.61438  -0.60425  -0.60158  -0.59628  -0.59226
 Alpha  occ. eigenvalues --   -0.58882  -0.58439  -0.57629  -0.57342  -0.56244
 Alpha  occ. eigenvalues --   -0.56118  -0.55533  -0.55450  -0.55043  -0.54819
 Alpha  occ. eigenvalues --   -0.54633  -0.54079  -0.53701  -0.53199  -0.53151
 Alpha  occ. eigenvalues --   -0.52989  -0.52824  -0.52398  -0.52184  -0.51952
 Alpha  occ. eigenvalues --   -0.51845  -0.51616  -0.51288  -0.51041  -0.50905
 Alpha  occ. eigenvalues --   -0.50537  -0.50350  -0.50181  -0.49878  -0.49680
 Alpha  occ. eigenvalues --   -0.49448  -0.49038  -0.48851  -0.48600  -0.48514
 Alpha  occ. eigenvalues --   -0.48334  -0.48311  -0.47834  -0.47576  -0.47541
 Alpha  occ. eigenvalues --   -0.47413  -0.47269  -0.47004  -0.46860  -0.46586
 Alpha  occ. eigenvalues --   -0.46213  -0.45732  -0.45586  -0.45445  -0.45131
 Alpha  occ. eigenvalues --   -0.44982  -0.44611  -0.44434  -0.44405  -0.44179
 Alpha  occ. eigenvalues --   -0.43993  -0.43976  -0.43861  -0.43570  -0.43173
 Alpha  occ. eigenvalues --   -0.43090  -0.42848  -0.42535  -0.41874  -0.41721
 Alpha  occ. eigenvalues --   -0.41665  -0.41567  -0.41289  -0.41046  -0.40982
 Alpha  occ. eigenvalues --   -0.40856  -0.40809  -0.40737  -0.40239  -0.40091
 Alpha  occ. eigenvalues --   -0.39986  -0.39621  -0.39380  -0.39148  -0.39138
 Alpha  occ. eigenvalues --   -0.38970  -0.38756  -0.38220  -0.37758  -0.37435
 Alpha  occ. eigenvalues --   -0.37360  -0.37260  -0.36714  -0.36524  -0.36236
 Alpha  occ. eigenvalues --   -0.36166  -0.36071  -0.35632  -0.35469  -0.35190
 Alpha  occ. eigenvalues --   -0.34918  -0.34779  -0.34468  -0.34309  -0.34161
 Alpha  occ. eigenvalues --   -0.33855  -0.33078  -0.32644  -0.31759  -0.31013
 Alpha  occ. eigenvalues --   -0.30741  -0.30223  -0.28003  -0.26776  -0.23969
 Alpha  occ. eigenvalues --   -0.20894
 Alpha virt. eigenvalues --   -0.07354  -0.03247   0.00837   0.04121   0.04882
 Alpha virt. eigenvalues --    0.05857   0.06378   0.06964   0.07242   0.07987
 Alpha virt. eigenvalues --    0.08093   0.09085   0.11263   0.11506   0.12140

 Mulliken charges:
               1
     1  Mg   0.809005
     2  C    0.078541
     3  C   -0.153777
     4  C   -0.102556
     5  C   -0.171201
     6  N   -0.673394
     7  C    0.310424
     8  C   -0.154366
     9  C   -0.138161
    10  C    0.305713
    11  C   -0.340142
    12  C   -0.173557
    13  C   -0.250569
    14  C    0.595307
    15  O   -0.462468
    16  O   -0.502705
    17  N   -0.707396
    18  C    0.293277
    19  C   -0.022667
    20  C    0.022683
    21  C    0.267246
    22  C   -0.365482
    23  C   -0.082633
    24  C   -0.240851
    25  N   -0.686105
    26  C    0.282080
    27  C    0.032294
    28  C    0.049022
    29  C    0.280133
    30  C   -0.364098
    31  C   -0.269804
    32  C   -0.284393
    33  N   -0.716077
    34  C    0.327717
    35  C   -0.010432
    36  C    0.117999
    37  C    0.245310
    38  C   -0.365073
    39  C    0.276581
    40  O   -0.466871
    41  C   -0.277661
    42  C    0.628063
    43  O   -0.436398
    44  O   -0.454073
    45  C   -0.080813
    46  C    0.028682
    47  C   -0.159774
    48  C    0.134085
    49  C   -0.373452
    50  C   -0.221147
    51  C   -0.168356
    52  C   -0.160213
    53  C   -0.075744
    54  C   -0.327181
    55  C   -0.166878
    56  C   -0.163271
    57  C   -0.168051
    58  C   -0.052249
    59  C   -0.325543
    60  C   -0.145952
    61  C   -0.191413
    62  C   -0.159384
    63  C   -0.041112
    64  C   -0.304915
    65  C   -0.315483
    66  H    0.071112
    67  H    0.063922
    68  H    0.098697
    69  H    0.144896
    70  H    0.096582
    71  H    0.105082
    72  H    0.101454
    73  H    0.122963
    74  H    0.108970
    75  H    0.127764
    76  H    0.144772
    77  H    0.129642
    78  H    0.115841
    79  H    0.114136
    80  H    0.117854
    81  H    0.086741
    82  H    0.104193
    83  H    0.103879
    84  H    0.122654
    85  H    0.119070
    86  H    0.113542
    87  H    0.074292
    88  H    0.094633
    89  H    0.114986
    90  H    0.084834
    91  H    0.113012
    92  H    0.148397
    93  H    0.160746
    94  H    0.103391
    95  H    0.168163
    96  H    0.097576
    97  H    0.134072
    98  H    0.118317
    99  H    0.138457
   100  H    0.108910
   101  H    0.079113
   102  H    0.108304
   103  H    0.111799
   104  H    0.136113
   105  H    0.092154
   106  H    0.114063
   107  H    0.101997
   108  H    0.079050
   109  H    0.075826
   110  H    0.054732
   111  H    0.094292
   112  H    0.112404
   113  H    0.112885
   114  H    0.116799
   115  H    0.066880
   116  H    0.058075
   117  H    0.103662
   118  H    0.091556
   119  H    0.097111
   120  H    0.072874
   121  H    0.087123
   122  H    0.106116
   123  H    0.086153
   124  H    0.092148
   125  H    0.061943
   126  H    0.105371
   127  H    0.105029
   128  H    0.078806
   129  H    0.089615
   130  H    0.075170
   131  H    0.057280
   132  H    0.109312
   133  H    0.092666
   134  H    0.099725
   135  H    0.116945
   136  H    0.094793
   137  H    0.078242
 Sum of Mulliken charges =   0.00000

 Dipole moment (field-independent basis, Debye):
    X=             -0.4626    Y=              2.3866    Z=             -0.4337  Tot=              2.4694
 Quadrupole moment (field-independent basis, Debye-Ang):
   XX=           -337.5274   YY=           -398.5241   ZZ=           -396.8791
   XY=             -9.2137   XZ=             12.9157   YZ=              0.1901

 Normal termination of Gaussian 09 at Sat Jul  6 20:35:12 2019.
