 Gaussian 09, Revision D.01,
 Gaussian 09:  ES64L-G09RevD.01 24-Apr-2013

 -------------------------------------
 # td=(NStates=1) CAM-B3LYP/6-31G(d,p)
 -------------------------------------

 --
 TD
 --
 Symbolic Z-matrix:
 Charge =  0 Multiplicity = 1

                         Standard orientation:
 ---------------------------------------------------------------------
 Center     Atomic      Atomic             Coordinates (Angstroms)
 Number     Number       Type             X           Y           Z
 ---------------------------------------------------------------------
      1         12           0       -7.171370    0.597780    0.076472
      2          6           0       -4.867240   -1.879299    0.509493
      3          6           0       -4.740656    2.903276    1.134300
      4          6           0       -9.439602    3.073118   -0.279019
      5          6           0       -9.450794   -1.745666   -0.813632
      6          7           0       -5.007782    0.539127    0.636622
      7          6           0       -4.339523   -0.668926    0.822128
      8          6           0       -2.827895   -0.321119    1.150848
      9          6           0       -2.962520    1.151746    1.654640
     10          6           0       -4.412428    1.559609    1.078608
     11          6           0       -2.904036    1.343669    3.122745
     12          6           0       -1.885720   -0.571252   -0.003611
     13          6           0       -0.412958   -0.624649    0.483386
     14          6           0        0.513932   -0.751229   -0.609123
     15          8           0        0.259746   -1.131745   -1.698959
     16          8           0        1.755941   -0.446536   -0.222296
     17          7           0       -7.112036    2.584511    0.379927
     18          6           0       -6.063842    3.412990    0.788522
     19          6           0       -6.499250    4.871737    0.680608
     20          6           0       -7.779246    4.847075    0.301702
     21          6           0       -8.191565    3.479043    0.127236
     22          6           0       -5.539156    5.918218    1.115895
     23          6           0       -8.652721    5.978216    0.124986
     24          6           0       -8.541208    7.132931    0.942892
     25          7           0       -9.069510    0.685805   -0.582863
     26          6           0       -9.813253    1.848392   -0.804631
     27          6           0      -11.189976    1.459119   -1.214167
     28          6           0      -11.156522    0.098801   -1.392029
     29          6           0       -9.847759   -0.320415   -0.847097
     30          6           0      -12.231709    2.364126   -1.629307
     31          6           0      -12.231492   -0.820838   -1.813714
     32          6           0      -12.230849   -1.039738   -3.286062
     33          7           0       -7.259080   -1.452654   -0.076414
     34          6           0       -8.266514   -2.304297   -0.513657
     35          6           0       -7.837065   -3.611046   -0.432518
     36          6           0       -6.448901   -3.531361   -0.131009
     37          6           0       -6.219038   -2.150688    0.096429
     38          6           0       -8.609075   -4.934511   -0.751801
     39          6           0       -5.369486   -4.339137    0.241802
     40          8           0       -5.177135   -5.519994    0.219840
     41          6           0       -4.163294   -3.254191    0.621498
     42          6           0       -3.507752   -3.559039    2.042702
     43          8           0       -3.797013   -2.946636    3.037259
     44          8           0       -2.780693   -4.646568    1.894660
     45          6           0       -2.282755   -5.217452    3.047540
     46          6           0        2.737435   -0.725517   -1.164948
     47          6           0        4.064009   -0.509700   -0.547363
     48          6           0        5.024192    0.202409   -0.921702
     49          6           0        5.058986    0.984175   -2.154258
     50          6           0        6.323548    0.245475   -0.267710
     51          6           0        7.661899   -0.257833   -0.885000
     52          6           0        8.974254   -0.290603   -0.117940
     53          6           0       10.202662   -0.668910   -0.998788
     54          6           0       10.146644   -2.142924   -1.530900
     55          6           0       11.387444   -0.293667   -0.113300
     56          6           0       12.793281   -0.506490   -0.722601
     57          6           0       13.976306   -0.099092    0.235846
     58          6           0       15.340715   -0.172001   -0.373022
     59          6           0       15.706222   -1.589504   -0.844125
     60          6           0       16.424979    0.400011    0.389919
     61          6           0       17.812339    0.660676   -0.251027
     62          6           0       18.825949    1.274546    0.757251
     63          6           0       20.297234    1.427441    0.227954
     64          6           0       20.336345    2.356126   -1.059580
     65          6           0       21.029484    1.986495    1.388911
     66          1           0       -4.086473    3.811811    1.214110
     67          1           0      -10.002072    3.918605   -0.332962
     68          1           0      -10.418215   -2.292461   -0.920734
     69          1           0       -2.705866   -1.002997    1.928292
     70          1           0       -2.282659    1.941219    1.122665
     71          1           0       -1.955285    1.202038    3.556697
     72          1           0       -3.226283    2.426632    3.431473
     73          1           0       -3.635932    0.650190    3.817756
     74          1           0       -2.111348   -1.424468   -0.431994
     75          1           0       -2.283841    0.324217   -0.510328
     76          1           0       -0.169611    0.363800    0.952717
     77          1           0       -0.248555   -1.688312    1.002672
     78          1           0       -5.696392    6.847805    0.655446
     79          1           0       -5.517432    6.069008    2.078884
     80          1           0       -4.552730    5.726311    1.075013
     81          1           0       -9.408297    5.945873   -0.694514
     82          1           0       -8.987055    8.068676    0.514368
     83          1           0       -7.691256    7.197374    1.660276
     84          1           0      -11.953446    2.935439   -2.592275
     85          1           0      -13.206178    1.977673   -1.367118
     86          1           0      -12.232080    3.038455   -0.860006
     87          1           0      -12.317655   -1.610178   -1.197572
     88          1           0      -13.211871   -0.342140   -1.471548
     89          1           0      -13.185072   -1.582172   -3.582772
     90          1           0      -12.312507    0.171061   -3.583489
     91          1           0      -11.170892   -1.498801   -3.599675
     92          1           0       -8.892609   -5.038442   -1.742521
     93          1           0       -8.100485   -5.885316   -0.474070
     94          1           0       -9.554336   -5.022818   -0.106443
     95          1           0       -3.448063   -3.330745   -0.150320
     96          1           0       -1.810475   -4.432838    3.625639
     97          1           0       -3.100110   -5.662394    3.903250
     98          1           0       -1.766504   -6.111783    2.807690
     99          1           0        2.472732   -1.805896   -1.173286
    100          1           0        2.666155   -0.215600   -2.118035
    101          1           0        4.246071   -1.230854    0.320670
    102          1           0        4.001855    1.038433   -2.525497
    103          1           0        5.580707    2.033551   -2.033428
    104          1           0        5.584335    0.493326   -2.947067
    105          1           0        6.655427    1.264709   -0.029198
    106          1           0        6.382874   -0.345585    0.780797
    107          1           0        7.616938   -1.361096   -1.311021
    108          1           0        7.685261    0.510823   -1.847569
    109          1           0        9.243252    0.598835    0.657824
    110          1           0        8.900626   -1.008420    0.732464
    111          1           0       10.182970   -0.017585   -1.906202
    112          1           0        9.226590   -2.616632   -2.024475
    113          1           0       11.001076   -2.441972   -2.173174
    114          1           0       10.241391   -2.824369   -0.625112
    115          1           0       11.245301    0.771712    0.323118
    116          1           0       11.577352   -0.962993    0.897714
    117          1           0       13.072878   -1.477636   -0.867587
    118          1           0       12.822937    0.060657   -1.774155
    119          1           0       13.815513    1.005676    0.670940
    120          1           0       13.819032   -0.602231    1.163560
    121          1           0       15.347116    0.474610   -1.216278
    122          1           0       15.837713   -2.211957   -0.015781
    123          1           0       14.927543   -2.023320   -1.569735
    124          1           0       16.597585   -1.622331   -1.544344
    125          1           0       16.077769    1.428129    0.737844
    126          1           0       16.434305   -0.321182    1.360026
    127          1           0       18.326023   -0.205402   -0.741831
    128          1           0       17.863375    1.363501   -1.243636
    129          1           0       18.377212    2.244317    0.783729
    130          1           0       18.843572    0.720533    1.706473
    131          1           0       20.683360    0.403631   -0.131765
    132          1           0       20.033750    3.365901   -0.705255
    133          1           0       21.253563    2.330455   -1.570978
    134          1           0       19.649305    2.038879   -2.057601
    135          1           0       21.246821    1.523739    2.384469
    136          1           0       21.910922    2.277473    1.030566
    137          1           0       20.566543    3.046829    1.926442
 ---------------------------------------------------------------------

 SCF Done:  E(RCAM-B3LYP) =  -2932.63394781     A.U. after   15 cycles

 Excitation energies and oscillator strengths:

 Excited State   1:      Singlet-A      2.0354 eV  609.13 nm  f=0.2860  <S**2>=0.000
     240 -> 243        0.20162
     241 -> 242        0.66708
 This state for optimization and/or second-order correction.
 Total Energy, E(TD-HF/TD-KS) =  -2932.55914743
 Copying the excited state density for this state as the 1-particle RhoCI density.

 The electronic state is 1-A.
 Alpha  occ. eigenvalues --  -46.84820 -19.27726 -19.25292 -19.21353 -19.20096
 Alpha  occ. eigenvalues --  -19.19959 -14.41031 -14.39541 -14.39412 -14.39407
 Alpha  occ. eigenvalues --  -10.39617 -10.37568 -10.34399 -10.32142 -10.30879
 Alpha  occ. eigenvalues --  -10.30756 -10.30577 -10.30251 -10.29080 -10.28903
 Alpha  occ. eigenvalues --  -10.28890 -10.28798 -10.28716 -10.28509 -10.28471
 Alpha  occ. eigenvalues --  -10.28333 -10.28237 -10.27824 -10.27783 -10.27709
 Alpha  occ. eigenvalues --  -10.27621 -10.27615 -10.27481 -10.27472 -10.27336
 Alpha  occ. eigenvalues --  -10.27194 -10.26768 -10.26764 -10.26510 -10.26440
 Alpha  occ. eigenvalues --  -10.26324 -10.26250 -10.26149 -10.26112 -10.26072
 Alpha  occ. eigenvalues --  -10.25970 -10.25930 -10.25888 -10.25872 -10.25801
 Alpha  occ. eigenvalues --  -10.25707 -10.25606 -10.25491 -10.25451 -10.25368
 Alpha  occ. eigenvalues --  -10.25288 -10.25278 -10.25179 -10.25090 -10.24859
 Alpha  occ. eigenvalues --  -10.24607 -10.24419 -10.24398 -10.24379 -10.24036
 Alpha  occ. eigenvalues --   -3.13825  -1.88532  -1.88074  -1.87990  -1.20666
 Alpha  occ. eigenvalues --   -1.20111  -1.11546  -1.10959  -1.10499  -1.06597
 Alpha  occ. eigenvalues --   -1.04623  -1.03827  -1.01399  -0.92724  -0.91878
 Alpha  occ. eigenvalues --   -0.91010  -0.90424  -0.89836  -0.89597  -0.89336
 Alpha  occ. eigenvalues --   -0.88759  -0.88469  -0.87635  -0.87008  -0.86430
 Alpha  occ. eigenvalues --   -0.85043  -0.84499  -0.84065  -0.83514  -0.82889
 Alpha  occ. eigenvalues --   -0.81845  -0.81299  -0.80348  -0.79825  -0.78940
 Alpha  occ. eigenvalues --   -0.78422  -0.77622  -0.76372  -0.75876  -0.75618
 Alpha  occ. eigenvalues --   -0.75530  -0.75031  -0.74684  -0.73612  -0.73087
 Alpha  occ. eigenvalues --   -0.70777  -0.70616  -0.69268  -0.69194  -0.68513
 Alpha  occ. eigenvalues --   -0.67169  -0.66208  -0.65272  -0.64976  -0.64284
 Alpha  occ. eigenvalues --   -0.63718  -0.63190  -0.62997  -0.62775  -0.62388
 Alpha  occ. eigenvalues --   -0.61915  -0.61059  -0.59980  -0.59536  -0.59310
 Alpha  occ. eigenvalues --   -0.59161  -0.58795  -0.58214  -0.57977  -0.57627
 Alpha  occ. eigenvalues --   -0.56191  -0.55985  -0.55832  -0.55231  -0.55021
 Alpha  occ. eigenvalues --   -0.54312  -0.54238  -0.54071  -0.53405  -0.53360
 Alpha  occ. eigenvalues --   -0.53091  -0.52883  -0.52673  -0.52281  -0.51941
 Alpha  occ. eigenvalues --   -0.51506  -0.51373  -0.51182  -0.50906  -0.50661
 Alpha  occ. eigenvalues --   -0.50375  -0.50201  -0.50041  -0.49762  -0.49666
 Alpha  occ. eigenvalues --   -0.49420  -0.49352  -0.49036  -0.48789  -0.48555
 Alpha  occ. eigenvalues --   -0.48267  -0.48064  -0.47706  -0.47501  -0.47488
 Alpha  occ. eigenvalues --   -0.47167  -0.47022  -0.46828  -0.46548  -0.46110
 Alpha  occ. eigenvalues --   -0.45819  -0.45708  -0.45594  -0.45368  -0.44939
 Alpha  occ. eigenvalues --   -0.44866  -0.44511  -0.44484  -0.44282  -0.43996
 Alpha  occ. eigenvalues --   -0.43963  -0.43656  -0.43580  -0.43366  -0.43147
 Alpha  occ. eigenvalues --   -0.42940  -0.42882  -0.42593  -0.42492  -0.42470
 Alpha  occ. eigenvalues --   -0.41954  -0.41764  -0.41636  -0.41539  -0.41370
 Alpha  occ. eigenvalues --   -0.41229  -0.40868  -0.40596  -0.40172  -0.39599
 Alpha  occ. eigenvalues --   -0.39555  -0.39334  -0.39289  -0.38866  -0.38710
 Alpha  occ. eigenvalues --   -0.38455  -0.38069  -0.38063  -0.37832  -0.36999
 Alpha  occ. eigenvalues --   -0.36985  -0.36785  -0.36533  -0.36254  -0.36241
 Alpha  occ. eigenvalues --   -0.36060  -0.35861  -0.35744  -0.35535  -0.35286
 Alpha  occ. eigenvalues --   -0.34919  -0.34676  -0.34668  -0.33989  -0.33894
 Alpha  occ. eigenvalues --   -0.33552  -0.32645  -0.32238  -0.30643  -0.30597
 Alpha  occ. eigenvalues --   -0.29939  -0.29314  -0.28771  -0.27986  -0.23676
 Alpha  occ. eigenvalues --   -0.20848
 Alpha virt. eigenvalues --   -0.06513  -0.02561   0.01712   0.03522   0.06027
 Alpha virt. eigenvalues --    0.06127   0.06474   0.06970   0.07610   0.07776
 Alpha virt. eigenvalues --    0.09144   0.10250   0.11281   0.11881   0.12278

 Mulliken charges:
               1
     1  Mg   0.830116
     2  C    0.062540
     3  C   -0.200597
     4  C   -0.130972
     5  C   -0.196954
     6  N   -0.608042
     7  C    0.237745
     8  C   -0.157698
     9  C   -0.147805
    10  C    0.364302
    11  C   -0.302217
    12  C   -0.123204
    13  C   -0.270386
    14  C    0.604035
    15  O   -0.467292
    16  O   -0.468433
    17  N   -0.706970
    18  C    0.264884
    19  C    0.020658
    20  C    0.048910
    21  C    0.271490
    22  C   -0.380812
    23  C   -0.115678
    24  C   -0.244141
    25  N   -0.674497
    26  C    0.242081
    27  C   -0.006769
    28  C    0.035100
    29  C    0.282074
    30  C   -0.376226
    31  C   -0.245941
    32  C   -0.274435
    33  N   -0.735526
    34  C    0.298204
    35  C    0.048662
    36  C   -0.021964
    37  C    0.356604
    38  C   -0.376765
    39  C    0.345257
    40  O   -0.449693
    41  C   -0.328757
    42  C    0.605213
    43  O   -0.462174
    44  O   -0.395666
    45  C   -0.087986
    46  C    0.022988
    47  C   -0.142213
    48  C    0.205253
    49  C   -0.376197
    50  C   -0.245154
    51  C   -0.155552
    52  C   -0.174269
    53  C   -0.035175
    54  C   -0.328114
    55  C   -0.170773
    56  C   -0.172362
    57  C   -0.184187
    58  C   -0.040836
    59  C   -0.317739
    60  C   -0.147915
    61  C   -0.195264
    62  C   -0.150208
    63  C   -0.064356
    64  C   -0.310696
    65  C   -0.295928
    66  H    0.079365
    67  H    0.064336
    68  H    0.096330
    69  H    0.116386
    70  H    0.089466
    71  H    0.118064
    72  H    0.095719
    73  H    0.103432
    74  H    0.118534
    75  H    0.110280
    76  H    0.137146
    77  H    0.135185
    78  H    0.125180
    79  H    0.142854
    80  H    0.117549
    81  H    0.107675
    82  H    0.106054
    83  H    0.108734
    84  H    0.129209
    85  H    0.116341
    86  H    0.127963
    87  H    0.113176
    88  H    0.088833
    89  H    0.104773
    90  H    0.089151
    91  H    0.105251
    92  H    0.139275
    93  H    0.146621
    94  H    0.108820
    95  H    0.151987
    96  H    0.130989
    97  H    0.087637
    98  H    0.135575
    99  H    0.110233
   100  H    0.116804
   101  H    0.080947
   102  H    0.097850
   103  H    0.101002
   104  H    0.139119
   105  H    0.107194
   106  H    0.066561
   107  H    0.084148
   108  H    0.055301
   109  H    0.069060
   110  H    0.097227
   111  H    0.097749
   112  H    0.107054
   113  H    0.109213
   114  H    0.096056
   115  H    0.097139
   116  H    0.063082
   117  H    0.116516
   118  H    0.065785
   119  H    0.059334
   120  H    0.092010
   121  H    0.091223
   122  H    0.108258
   123  H    0.089505
   124  H    0.098992
   125  H    0.081448
   126  H    0.056916
   127  H    0.083240
   128  H    0.068477
   129  H    0.101654
   130  H    0.095604
   131  H    0.085514
   132  H    0.110060
   133  H    0.114025
   134  H    0.075141
   135  H    0.112967
   136  H    0.109608
   137  H    0.058516
 Sum of Mulliken charges =   0.00000

 Dipole moment (field-independent basis, Debye):
    X=              1.2038    Y=              3.5591    Z=              0.2219  Tot=              3.7637
 Quadrupole moment (field-independent basis, Debye-Ang):
   XX=           -322.0635   YY=           -385.2112   ZZ=           -400.7119
   XY=            -18.9208   XZ=              7.5463   YZ=             -4.4015

 Normal termination of Gaussian 09 at Fri Jul  5 09:38:57 2019.
