 Gaussian 09, Revision D.01,
 Gaussian 09:  ES64L-G09RevD.01 24-Apr-2013

 -------------------------------------
 # td=(NStates=1) CAM-B3LYP/6-31G(d,p)
 -------------------------------------

 --
 TD
 --
 Symbolic Z-matrix:
 Charge =  0 Multiplicity = 1

                         Standard orientation:
 ---------------------------------------------------------------------
 Center     Atomic      Atomic             Coordinates (Angstroms)
 Number     Number       Type             X           Y           Z
 ---------------------------------------------------------------------
      1         12           0       -7.140998    0.629376    0.160741
      2          6           0       -4.848914   -1.965524    0.642554
      3          6           0       -4.763615    2.790457    1.271432
      4          6           0       -9.378413    3.125017   -0.394881
      5          6           0       -9.475891   -1.716654   -0.988461
      6          7           0       -5.141877    0.427001    0.831109
      7          6           0       -4.376674   -0.695409    0.866260
      8          6           0       -2.894844   -0.359890    1.273054
      9          6           0       -3.023156    1.145178    1.688849
     10          6           0       -4.370960    1.475199    1.184731
     11          6           0       -2.762695    1.307839    3.173396
     12          6           0       -2.032263   -0.621866    0.137168
     13          6           0       -0.456970   -0.441980    0.543982
     14          6           0        0.458219   -0.634548   -0.586240
     15          8           0        0.048928   -1.023517   -1.698527
     16          8           0        1.736779   -0.611865   -0.232371
     17          7           0       -7.137738    2.605125    0.456785
     18          6           0       -6.029271    3.429592    0.821940
     19          6           0       -6.437395    4.791440    0.762880
     20          6           0       -7.700462    4.876736    0.405952
     21          6           0       -8.143679    3.478528    0.169929
     22          6           0       -5.398743    5.919429    1.192286
     23          6           0       -8.518728    6.030113    0.196300
     24          6           0       -8.415248    7.216812    0.783708
     25          7           0       -8.987817    0.739168   -0.533473
     26          6           0       -9.738651    1.826925   -0.638273
     27          6           0      -11.066062    1.520349   -1.205287
     28          6           0      -11.177583    0.191404   -1.386676
     29          6           0       -9.882097   -0.290347   -0.955481
     30          6           0      -12.261563    2.570647   -1.500067
     31          6           0      -12.326966   -0.665466   -1.828537
     32          6           0      -12.128576   -0.938831   -3.327225
     33          7           0       -7.205057   -1.445815   -0.168176
     34          6           0       -8.253454   -2.187908   -0.681022
     35          6           0       -7.851939   -3.624056   -0.640285
     36          6           0       -6.484346   -3.656541   -0.269275
     37          6           0       -6.184579   -2.312249    0.098173
     38          6           0       -8.640540   -4.861586   -1.013711
     39          6           0       -5.354730   -4.460809    0.291408
     40          8           0       -5.212761   -5.641317    0.303819
     41          6           0       -4.144477   -3.357102    0.625377
     42          6           0       -3.517268   -3.723832    1.964019
     43          8           0       -3.766703   -3.151940    2.982228
     44          8           0       -2.746446   -4.837578    1.855508
     45          6           0       -2.173963   -5.302268    3.110776
     46          6           0        2.711569   -0.759830   -1.254355
     47          6           0        4.054920   -0.390760   -0.529523
     48          6           0        5.146406    0.303413   -1.018767
     49          6           0        5.103034    1.102731   -2.339357
     50          6           0        6.339123    0.501612   -0.180401
     51          6           0        7.577380   -0.172060   -0.966094
     52          6           0        8.853836   -0.255629   -0.142193
     53          6           0       10.158425   -0.616058   -0.875408
     54          6           0       10.008002   -2.078744   -1.474694
     55          6           0       11.393375   -0.479076    0.082995
     56          6           0       12.789680   -0.696627   -0.631624
     57          6           0       13.885061   -0.179367    0.236665
     58          6           0       15.368009   -0.150900   -0.530047
     59          6           0       15.765456   -1.693247   -0.817334
     60          6           0       16.437381    0.426727    0.408064
     61          6           0       17.862724    0.614847   -0.229284
     62          6           0       18.799082    1.296890    0.772059
     63          6           0       20.170566    1.495144    0.150545
     64          6           0       20.139192    2.462113   -1.069147
     65          6           0       21.108720    1.994837    1.253310
     66          1           0       -4.034488    3.543209    1.658217
     67          1           0      -10.153390    3.827201   -0.636898
     68          1           0      -10.150377   -2.341622   -1.285596
     69          1           0       -2.500790   -0.870528    2.127915
     70          1           0       -2.241881    1.772899    1.182266
     71          1           0       -1.875575    1.036487    3.518076
     72          1           0       -2.915250    2.378237    3.539316
     73          1           0       -3.594780    0.823244    3.699652
     74          1           0       -2.017452   -1.617705   -0.464604
     75          1           0       -2.040314    0.068157   -0.691113
     76          1           0       -0.444006    0.595536    0.830456
     77          1           0       -0.113068   -0.968177    1.464136
     78          1           0       -5.736276    6.709882    0.778518
     79          1           0       -5.555715    6.202314    2.297641
     80          1           0       -4.480104    5.595472    0.843574
     81          1           0       -9.161498    5.929488   -0.797126
     82          1           0       -8.994816    8.145496    0.637516
     83          1           0       -7.685492    7.436646    1.685845
     84          1           0      -11.917195    3.056960   -2.476013
     85          1           0      -13.077161    2.047444   -1.824040
     86          1           0      -12.525205    3.179380   -0.680620
     87          1           0      -12.238182   -1.695082   -1.138969
     88          1           0      -13.359076   -0.158606   -1.466493
     89          1           0      -13.062427   -1.539106   -3.534303
     90          1           0      -12.089029    0.098737   -3.832678
     91          1           0      -11.173671   -1.525319   -3.665331
     92          1           0       -8.961751   -4.587753   -1.925610
     93          1           0       -7.879855   -5.732166   -0.995575
     94          1           0       -9.431118   -5.128799   -0.274518
     95          1           0       -3.299649   -3.538992   -0.065680
     96          1           0       -1.277812   -4.555372    3.465291
     97          1           0       -3.095281   -5.522247    3.909029
     98          1           0       -1.846537   -6.272429    2.836767
     99          1           0        2.590624   -1.814162   -1.533689
    100          1           0        2.412319   -0.148102   -2.161051
    101          1           0        4.216102   -1.108089    0.445300
    102          1           0        4.075995    1.233668   -2.736662
    103          1           0        5.696659    2.244236   -2.391139
    104          1           0        5.580741    0.464265   -3.073375
    105          1           0        6.541490    1.466174   -0.169524
    106          1           0        6.155174   -0.001088    0.896328
    107          1           0        7.362023   -1.277386   -1.138587
    108          1           0        7.584918    0.243121   -1.896892
    109          1           0        9.169556    0.695904    0.347691
    110          1           0        8.531120   -0.903577    0.662126
    111          1           0       10.303332    0.086324   -1.717533
    112          1           0        9.310061   -2.035991   -2.368233
    113          1           0       10.905961   -2.362727   -2.010712
    114          1           0        9.653556   -3.085382   -0.867587
    115          1           0       11.392650    0.607132    0.430548
    116          1           0       11.439694   -1.223253    1.120597
    117          1           0       13.156218   -1.749507   -1.086643
    118          1           0       12.465236   -0.055985   -1.595629
    119          1           0       13.827155    0.872983    0.509963
    120          1           0       13.913733   -0.695700    0.972179
    121          1           0       15.140200    0.205240   -1.294683
    122          1           0       15.842884   -2.075186    0.242211
    123          1           0       15.200020   -2.302084   -1.469205
    124          1           0       16.933782   -1.826899   -1.248455
    125          1           0       16.234013    1.638161    0.676904
    126          1           0       16.550986   -0.049311    1.420683
    127          1           0       18.616722   -0.352312   -0.571994
    128          1           0       17.595913    1.131016   -1.270208
    129          1           0       18.625103    2.484900    0.786684
    130          1           0       18.757768    0.806095    1.598060
    131          1           0       20.547433    0.634720   -0.182237
    132          1           0       19.513878    3.325455   -0.866352
    133          1           0       20.986647    2.693056   -1.446852
    134          1           0       19.501304    2.092113   -1.888828
    135          1           0       20.971348    1.389862    2.125671
    136          1           0       22.112470    2.133735    0.953072
    137          1           0       20.542775    2.895676    1.556138
 ---------------------------------------------------------------------

 SCF Done:  E(RCAM-B3LYP) =  -2932.55807805     A.U. after   15 cycles

 Excitation energies and oscillator strengths:

 Excited State   1:      Singlet-A      1.9782 eV  626.75 nm  f=0.2608  <S**2>=0.000
     240 -> 243        0.23569
     241 -> 242        0.66086
 This state for optimization and/or second-order correction.
 Total Energy, E(TD-HF/TD-KS) =  -2932.48538072
 Copying the excited state density for this state as the 1-particle RhoCI density.

 The electronic state is 1-A.
 Alpha  occ. eigenvalues --  -46.83597 -19.26344 -19.25595 -19.21100 -19.19999
 Alpha  occ. eigenvalues --  -19.19944 -14.41315 -14.39587 -14.39355 -14.38851
 Alpha  occ. eigenvalues --  -10.38770 -10.37854 -10.35957 -10.32856 -10.32707
 Alpha  occ. eigenvalues --  -10.30494 -10.30164 -10.30016 -10.29417 -10.29344
 Alpha  occ. eigenvalues --  -10.29221 -10.29147 -10.28933 -10.28734 -10.28483
 Alpha  occ. eigenvalues --  -10.28341 -10.28257 -10.28044 -10.27971 -10.27934
 Alpha  occ. eigenvalues --  -10.27919 -10.27631 -10.27596 -10.27523 -10.27505
 Alpha  occ. eigenvalues --  -10.27294 -10.27220 -10.27110 -10.26866 -10.26803
 Alpha  occ. eigenvalues --  -10.26694 -10.26432 -10.26332 -10.26274 -10.26256
 Alpha  occ. eigenvalues --  -10.26206 -10.26162 -10.26105 -10.26001 -10.25991
 Alpha  occ. eigenvalues --  -10.25942 -10.25934 -10.25705 -10.25614 -10.25567
 Alpha  occ. eigenvalues --  -10.25522 -10.25150 -10.25143 -10.24771 -10.24761
 Alpha  occ. eigenvalues --  -10.24537 -10.24269 -10.23350 -10.23261 -10.22731
 Alpha  occ. eigenvalues --   -3.12763  -1.87460  -1.87019  -1.86941  -1.18710
 Alpha  occ. eigenvalues --   -1.17180  -1.12778  -1.08874  -1.07730  -1.04290
 Alpha  occ. eigenvalues --   -1.03360  -1.02422  -1.01749  -0.90981  -0.90664
 Alpha  occ. eigenvalues --   -0.90511  -0.90209  -0.89472  -0.89425  -0.88924
 Alpha  occ. eigenvalues --   -0.87997  -0.87530  -0.87034  -0.86678  -0.85734
 Alpha  occ. eigenvalues --   -0.84498  -0.83964  -0.83192  -0.82475  -0.82191
 Alpha  occ. eigenvalues --   -0.81199  -0.80363  -0.79955  -0.79542  -0.78291
 Alpha  occ. eigenvalues --   -0.77961  -0.77547  -0.77049  -0.75996  -0.75610
 Alpha  occ. eigenvalues --   -0.74662  -0.74511  -0.73893  -0.73338  -0.72072
 Alpha  occ. eigenvalues --   -0.71404  -0.70050  -0.69330  -0.68726  -0.67740
 Alpha  occ. eigenvalues --   -0.67433  -0.66672  -0.65051  -0.64951  -0.64396
 Alpha  occ. eigenvalues --   -0.64248  -0.63699  -0.63495  -0.63017  -0.62212
 Alpha  occ. eigenvalues --   -0.60664  -0.60305  -0.59658  -0.58781  -0.58375
 Alpha  occ. eigenvalues --   -0.58213  -0.57546  -0.56955  -0.56691  -0.56658
 Alpha  occ. eigenvalues --   -0.55905  -0.55658  -0.54928  -0.54657  -0.54484
 Alpha  occ. eigenvalues --   -0.54329  -0.53733  -0.53617  -0.53117  -0.52806
 Alpha  occ. eigenvalues --   -0.52555  -0.52286  -0.51898  -0.51650  -0.51510
 Alpha  occ. eigenvalues --   -0.51292  -0.50849  -0.50733  -0.50640  -0.50337
 Alpha  occ. eigenvalues --   -0.50269  -0.50130  -0.49960  -0.49792  -0.49705
 Alpha  occ. eigenvalues --   -0.49272  -0.49179  -0.49017  -0.48820  -0.48387
 Alpha  occ. eigenvalues --   -0.48337  -0.48039  -0.47847  -0.47518  -0.47232
 Alpha  occ. eigenvalues --   -0.47045  -0.46945  -0.46661  -0.46189  -0.46035
 Alpha  occ. eigenvalues --   -0.45738  -0.45345  -0.45196  -0.45020  -0.44753
 Alpha  occ. eigenvalues --   -0.44689  -0.44484  -0.44295  -0.44263  -0.44232
 Alpha  occ. eigenvalues --   -0.43856  -0.43592  -0.43073  -0.43021  -0.42807
 Alpha  occ. eigenvalues --   -0.42689  -0.42608  -0.42448  -0.42197  -0.41979
 Alpha  occ. eigenvalues --   -0.41839  -0.41629  -0.41228  -0.41186  -0.41003
 Alpha  occ. eigenvalues --   -0.40835  -0.40789  -0.40480  -0.40413  -0.40382
 Alpha  occ. eigenvalues --   -0.39989  -0.39616  -0.39534  -0.39382  -0.39289
 Alpha  occ. eigenvalues --   -0.38718  -0.38473  -0.38396  -0.38357  -0.38065
 Alpha  occ. eigenvalues --   -0.37563  -0.37206  -0.36989  -0.36637  -0.36172
 Alpha  occ. eigenvalues --   -0.36149  -0.35931  -0.35795  -0.35641  -0.35525
 Alpha  occ. eigenvalues --   -0.35341  -0.35120  -0.34473  -0.33540  -0.33073
 Alpha  occ. eigenvalues --   -0.32749  -0.32436  -0.31923  -0.30736  -0.29923
 Alpha  occ. eigenvalues --   -0.29399  -0.29265  -0.28590  -0.28268  -0.22836
 Alpha  occ. eigenvalues --   -0.20597
 Alpha virt. eigenvalues --   -0.06257  -0.02681   0.02501   0.04724   0.05217
 Alpha virt. eigenvalues --    0.06106   0.06597   0.07008   0.07173   0.07854
 Alpha virt. eigenvalues --    0.08532   0.10740   0.11561   0.12033   0.12044

 Mulliken charges:
               1
     1  Mg   0.823017
     2  C    0.090575
     3  C   -0.223376
     4  C   -0.157524
     5  C   -0.134273
     6  N   -0.631930
     7  C    0.289314
     8  C   -0.146727
     9  C   -0.151129
    10  C    0.377147
    11  C   -0.310262
    12  C   -0.174637
    13  C   -0.298019
    14  C    0.609428
    15  O   -0.501837
    16  O   -0.452333
    17  N   -0.709294
    18  C    0.267230
    19  C   -0.023287
    20  C    0.031702
    21  C    0.296462
    22  C   -0.327888
    23  C   -0.071479
    24  C   -0.259189
    25  N   -0.694607
    26  C    0.340658
    27  C   -0.057658
    28  C    0.090108
    29  C    0.209350
    30  C   -0.359696
    31  C   -0.238118
    32  C   -0.292762
    33  N   -0.707055
    34  C    0.318616
    35  C   -0.031127
    36  C   -0.007091
    37  C    0.238432
    38  C   -0.366532
    39  C    0.391562
    40  O   -0.425970
    41  C   -0.338095
    42  C    0.613751
    43  O   -0.459237
    44  O   -0.463790
    45  C   -0.072327
    46  C    0.006581
    47  C   -0.146484
    48  C    0.124131
    49  C   -0.357641
    50  C   -0.208817
    51  C   -0.203144
    52  C   -0.156384
    53  C   -0.063199
    54  C   -0.317609
    55  C   -0.159154
    56  C   -0.178953
    57  C   -0.158615
    58  C   -0.023222
    59  C   -0.318059
    60  C   -0.176127
    61  C   -0.153413
    62  C   -0.136373
    63  C   -0.078962
    64  C   -0.311946
    65  C   -0.301948
    66  H    0.079535
    67  H    0.093200
    68  H    0.059037
    69  H    0.127658
    70  H    0.103847
    71  H    0.121673
    72  H    0.095990
    73  H    0.126913
    74  H    0.124674
    75  H    0.123753
    76  H    0.131983
    77  H    0.130760
    78  H    0.126864
    79  H    0.112291
    80  H    0.120083
    81  H    0.095792
    82  H    0.112561
    83  H    0.088411
    84  H    0.115652
    85  H    0.115722
    86  H    0.130714
    87  H    0.085103
    88  H    0.103946
    89  H    0.105812
    90  H    0.109699
    91  H    0.115270
    92  H    0.135981
    93  H    0.141538
    94  H    0.128606
    95  H    0.154688
    96  H    0.111536
    97  H    0.118169
    98  H    0.137780
    99  H    0.132866
   100  H    0.122467
   101  H    0.081735
   102  H    0.119058
   103  H    0.085056
   104  H    0.135905
   105  H    0.119105
   106  H    0.088229
   107  H    0.097869
   108  H    0.101356
   109  H    0.072610
   110  H    0.102402
   111  H    0.096306
   112  H    0.092852
   113  H    0.104899
   114  H    0.088943
   115  H    0.093427
   116  H    0.058729
   117  H    0.087877
   118  H    0.060092
   119  H    0.089738
   120  H    0.099840
   121  H    0.077059
   122  H    0.097355
   123  H    0.110870
   124  H    0.068901
   125  H    0.065620
   126  H    0.093442
   127  H    0.055769
   128  H    0.082943
   129  H    0.072239
   130  H    0.097049
   131  H    0.090515
   132  H    0.093571
   133  H    0.109202
   134  H    0.096785
   135  H    0.098327
   136  H    0.102730
   137  H    0.090252
 Sum of Mulliken charges =   0.00000

 Dipole moment (field-independent basis, Debye):
    X=              1.4257    Y=              4.1217    Z=             -0.4876  Tot=              4.3885
 Quadrupole moment (field-independent basis, Debye-Ang):
   XX=           -334.7851   YY=           -391.3996   ZZ=           -395.2220
   XY=            -18.3433   XZ=             12.1120   YZ=             -3.0652

 Normal termination of Gaussian 09 at Wed Jul  3 18:12:23 2019.
