 Gaussian 16, Revision A.03,
 Gaussian 16:  ES64L-G16RevA.03 25-Dec-2016

 ----------------------------------------------------------------------
 # td=(NStates=1) iop(3/107=0140000000,3/108=0140000000) CAM-B3LYP/6-31
 G(d,p)
 ----------------------------------------------------------------------

 --
 TD
 --
 Symbolic Z-matrix:
 Charge =  0 Multiplicity = 1

                         Standard orientation:
 ---------------------------------------------------------------------
 Center     Atomic      Atomic             Coordinates (Angstroms)
 Number     Number       Type             X           Y           Z
 ---------------------------------------------------------------------
      1         12           0       -7.184041    0.662867    0.202211
      2          6           0       -4.807720   -1.911093    0.487979
      3          6           0       -4.806960    2.758755    1.175911
      4          6           0       -9.430329    3.034987   -0.337477
      5          6           0       -9.542201   -1.747884   -0.815784
      6          7           0       -5.124766    0.374334    0.877529
      7          6           0       -4.382778   -0.654929    0.878775
      8          6           0       -2.874221   -0.324487    1.230199
      9          6           0       -3.057628    0.977838    1.657359
     10          6           0       -4.404119    1.455787    1.209721
     11          6           0       -3.057407    1.145390    3.205498
     12          6           0       -1.905081   -0.475114    0.151861
     13          6           0       -0.429597   -0.226813    0.532638
     14          6           0        0.513839   -0.640243   -0.616340
     15          8           0        0.189884   -1.019723   -1.724784
     16          8           0        1.705700   -0.352813   -0.329507
     17          7           0       -7.041523    2.597467    0.365045
     18          6           0       -5.973053    3.304791    0.806121
     19          6           0       -6.353433    4.665711    0.806702
     20          6           0       -7.668583    4.883445    0.292398
     21          6           0       -8.128992    3.501693    0.061200
     22          6           0       -5.546516    5.902504    1.390351
     23          6           0       -8.432429    6.021904    0.086771
     24          6           0       -8.349555    7.319918    0.621776
     25          7           0       -9.145320    0.637812   -0.564891
     26          6           0       -9.941007    1.778669   -0.623002
     27          6           0      -11.233171    1.429046   -1.106957
     28          6           0      -11.249468    0.114342   -1.287969
     29          6           0       -9.898890   -0.390987   -1.000740
     30          6           0      -12.312428    2.451903   -1.337054
     31          6           0      -12.327392   -0.738875   -1.912829
     32          6           0      -12.152148   -1.042006   -3.425089
     33          7           0       -7.191503   -1.383832   -0.295080
     34          6           0       -8.306564   -2.224206   -0.419634
     35          6           0       -7.757133   -3.592417   -0.638853
     36          6           0       -6.514789   -3.584807   -0.162204
     37          6           0       -6.149400   -2.205321    0.032482
     38          6           0       -8.680357   -4.739379   -0.877173
     39          6           0       -5.362621   -4.406677    0.164772
     40          8           0       -5.157596   -5.556907    0.142465
     41          6           0       -4.192756   -3.369118    0.590773
     42          6           0       -3.637172   -3.806651    1.886201
     43          8           0       -3.723583   -3.159403    2.910655
     44          8           0       -2.755947   -4.849479    1.826824
     45          6           0       -2.393473   -5.337689    3.080547
     46          6           0        2.746633   -0.625350   -1.318715
     47          6           0        4.095721   -0.468776   -0.557335
     48          6           0        5.114850    0.356529   -0.947420
     49          6           0        5.139737    1.190429   -2.273584
     50          6           0        6.427882    0.398041   -0.154781
     51          6           0        7.603523   -0.043161   -0.953348
     52          6           0        8.913182   -0.168479   -0.112367
     53          6           0       10.230396   -0.528118   -0.738070
     54          6           0       10.151129   -2.014253   -1.199588
     55          6           0       11.432106   -0.143305    0.144274
     56          6           0       12.682930   -0.333062   -0.605906
     57          6           0       13.928776   -0.091891    0.273649
     58          6           0       15.303650   -0.179037   -0.488945
     59          6           0       15.646755   -1.399559   -1.099546
     60          6           0       16.428473    0.457272    0.398499
     61          6           0       17.806328    0.499378   -0.187034
     62          6           0       18.835896    1.143863    0.648228
     63          6           0       20.273002    1.216387    0.116779
     64          6           0       20.363627    1.950136   -1.096375
     65          6           0       21.309058    1.719236    1.226931
     66          1           0       -4.042375    3.544198    1.446992
     67          1           0      -10.107419    3.912809   -0.508515
     68          1           0      -10.372785   -2.411475   -1.140122
     69          1           0       -2.623194   -0.908019    1.980741
     70          1           0       -2.154545    1.665488    1.220134
     71          1           0       -2.280090    0.793429    3.756086
     72          1           0       -3.038922    2.226723    3.347810
     73          1           0       -3.709655    0.678836    3.870098
     74          1           0       -1.916042   -1.492427   -0.378355
     75          1           0       -2.010035    0.270263   -0.736179
     76          1           0       -0.193413    0.850641    0.758976
     77          1           0       -0.349904   -0.823082    1.381545
     78          1           0       -5.956227    6.974047    0.954975
     79          1           0       -5.841815    5.888807    2.489491
     80          1           0       -4.240992    5.800469    1.315975
     81          1           0       -9.199163    5.715552   -0.548281
     82          1           0       -8.994513    8.040230    0.486000
     83          1           0       -7.514212    7.495929    1.471392
     84          1           0      -11.927495    3.142099   -2.096275
     85          1           0      -13.270588    1.971690   -1.562499
     86          1           0      -12.444269    3.108631   -0.446380
     87          1           0      -12.412449   -1.502489   -1.308476
     88          1           0      -13.299158   -0.444530   -1.724911
     89          1           0      -13.048392   -1.589155   -3.852600
     90          1           0      -12.101693   -0.178555   -4.131674
     91          1           0      -11.356555   -1.897944   -3.729089
     92          1           0       -9.060861   -5.006725   -1.997574
     93          1           0       -8.010916   -5.698705   -0.757558
     94          1           0       -9.534349   -5.011702   -0.230354
     95          1           0       -3.339347   -3.459259   -0.300841
     96          1           0       -1.759679   -4.503007    3.841414
     97          1           0       -3.243274   -5.724739    3.596220
     98          1           0       -1.889775   -6.185569    2.745005
     99          1           0        2.669519   -1.629000   -1.580816
    100          1           0        2.839249    0.124449   -2.165630
    101          1           0        4.381669   -0.900680    0.421811
    102          1           0        4.164082    1.512287   -2.603506
    103          1           0        5.732923    2.211177   -2.102306
    104          1           0        5.673209    0.617123   -2.957586
    105          1           0        6.616286    1.330548    0.210577
    106          1           0        6.242469   -0.116879    0.866681
    107          1           0        7.537792   -1.015201   -1.465596
    108          1           0        7.695544    0.725074   -1.867608
    109          1           0        9.048568    0.767094    0.527233
    110          1           0        8.596053   -0.937266    0.818797
    111          1           0       10.219413   -0.159964   -1.658332
    112          1           0        9.124110   -2.146733   -1.725939
    113          1           0       10.939079   -2.214743   -1.961925
    114          1           0       10.070123   -2.513880   -0.351848
    115          1           0       11.137320    0.833786    0.612560
    116          1           0       11.448874   -0.770668    0.963376
    117          1           0       12.729165   -1.399786   -1.109420
    118          1           0       12.719714    0.386144   -1.475027
    119          1           0       13.882294    1.014079    0.557924
    120          1           0       14.016809   -0.664987    1.246444
    121          1           0       15.271463    0.430071   -1.273139
    122          1           0       15.683396   -2.052340   -0.272251
    123          1           0       14.772295   -1.765674   -1.679650
    124          1           0       16.632716   -1.419987   -1.513077
    125          1           0       16.267491    1.483187    0.761410
    126          1           0       16.621369    0.087612    1.351388
    127          1           0       18.323023   -0.591902   -0.615926
    128          1           0       17.774915    1.015371   -1.068895
    129          1           0       18.358265    2.065362    0.827060
    130          1           0       18.923762    0.686475    1.742088
    131          1           0       20.589142    0.154940   -0.093994
    132          1           0       20.213780    2.945285   -0.747937
    133          1           0       21.377322    2.084162   -1.429047
    134          1           0       19.689099    1.548278   -1.881646
    135          1           0       21.282312    1.089102    2.217713
    136          1           0       22.329974    1.650229    0.901593
    137          1           0       21.183393    2.681538    1.465626
 ---------------------------------------------------------------------

 SCF Done:  E(RCAM-B3LYP) =  -2933.46335550     A.U. after   16 cycles

 Excitation energies and oscillator strengths:

 Excited State   1:      Singlet-A      2.0545 eV  603.47 nm  f=0.2383  <S**2>=0.000
     240 -> 243        0.27339
     241 -> 242        0.64471
 This state for optimization and/or second-order correction.
 Total Energy, E(TD-HF/TD-DFT) =  -2933.38785345
 Copying the excited state density for this state as the 1-particle RhoCI density.

 The electronic state is 1-A.
 Alpha  occ. eigenvalues --  -46.80237 -19.22563 -19.21447 -19.17197 -19.16139
 Alpha  occ. eigenvalues --  -19.15050 -14.37374 -14.35183 -14.35046 -14.34806
 Alpha  occ. eigenvalues --  -10.33927 -10.33562 -10.30992 -10.28598 -10.26495
 Alpha  occ. eigenvalues --  -10.25849 -10.25820 -10.25579 -10.25183 -10.24985
 Alpha  occ. eigenvalues --  -10.24923 -10.24873 -10.24355 -10.24265 -10.24220
 Alpha  occ. eigenvalues --  -10.24064 -10.23682 -10.23447 -10.23155 -10.22974
 Alpha  occ. eigenvalues --  -10.22930 -10.22917 -10.22783 -10.22781 -10.22692
 Alpha  occ. eigenvalues --  -10.22607 -10.22598 -10.22566 -10.22516 -10.22402
 Alpha  occ. eigenvalues --  -10.22393 -10.22105 -10.22047 -10.22035 -10.21764
 Alpha  occ. eigenvalues --  -10.21721 -10.21654 -10.21400 -10.21321 -10.21229
 Alpha  occ. eigenvalues --  -10.21188 -10.21090 -10.20752 -10.20721 -10.20400
 Alpha  occ. eigenvalues --  -10.20332 -10.20320 -10.20220 -10.19947 -10.19867
 Alpha  occ. eigenvalues --  -10.19838 -10.19789 -10.19466 -10.18994 -10.18283
 Alpha  occ. eigenvalues --   -3.08776  -1.83716  -1.83253  -1.83171  -1.15956
 Alpha  occ. eigenvalues --   -1.13243  -1.09689  -1.03939  -1.03399  -1.02528
 Alpha  occ. eigenvalues --   -0.98427  -0.97624  -0.96889  -0.87290  -0.86749
 Alpha  occ. eigenvalues --   -0.86294  -0.86146  -0.85156  -0.84642  -0.84328
 Alpha  occ. eigenvalues --   -0.83719  -0.83101  -0.82737  -0.82054  -0.81715
 Alpha  occ. eigenvalues --   -0.80430  -0.79647  -0.78932  -0.78664  -0.78014
 Alpha  occ. eigenvalues --   -0.76805  -0.76338  -0.76207  -0.75476  -0.73988
 Alpha  occ. eigenvalues --   -0.72791  -0.71950  -0.71734  -0.71666  -0.71473
 Alpha  occ. eigenvalues --   -0.71367  -0.70682  -0.69818  -0.69377  -0.67776
 Alpha  occ. eigenvalues --   -0.67556  -0.66634  -0.65950  -0.65107  -0.64607
 Alpha  occ. eigenvalues --   -0.63862  -0.62618  -0.61652  -0.61154  -0.60900
 Alpha  occ. eigenvalues --   -0.60232  -0.59614  -0.59547  -0.59306  -0.58360
 Alpha  occ. eigenvalues --   -0.57481  -0.56998  -0.56660  -0.55402  -0.55001
 Alpha  occ. eigenvalues --   -0.54698  -0.54384  -0.54022  -0.53591  -0.53276
 Alpha  occ. eigenvalues --   -0.52288  -0.52181  -0.51340  -0.51114  -0.50884
 Alpha  occ. eigenvalues --   -0.50446  -0.50327  -0.49714  -0.49627  -0.49549
 Alpha  occ. eigenvalues --   -0.49176  -0.49074  -0.49005  -0.48247  -0.48197
 Alpha  occ. eigenvalues --   -0.48038  -0.47923  -0.47592  -0.47323  -0.47182
 Alpha  occ. eigenvalues --   -0.47136  -0.46774  -0.46392  -0.46282  -0.46192
 Alpha  occ. eigenvalues --   -0.45856  -0.45764  -0.45432  -0.45308  -0.45024
 Alpha  occ. eigenvalues --   -0.44503  -0.44461  -0.44361  -0.44137  -0.43872
 Alpha  occ. eigenvalues --   -0.43698  -0.43598  -0.43217  -0.42662  -0.42484
 Alpha  occ. eigenvalues --   -0.42223  -0.41961  -0.41762  -0.41722  -0.41586
 Alpha  occ. eigenvalues --   -0.41388  -0.41282  -0.41131  -0.41096  -0.40801
 Alpha  occ. eigenvalues --   -0.40616  -0.40368  -0.40028  -0.39922  -0.39742
 Alpha  occ. eigenvalues --   -0.39592  -0.39377  -0.39257  -0.39221  -0.39032
 Alpha  occ. eigenvalues --   -0.38662  -0.38427  -0.38238  -0.38211  -0.38090
 Alpha  occ. eigenvalues --   -0.37723  -0.37616  -0.37477  -0.37120  -0.36995
 Alpha  occ. eigenvalues --   -0.36553  -0.36322  -0.36173  -0.35881  -0.35837
 Alpha  occ. eigenvalues --   -0.35644  -0.35401  -0.35068  -0.35059  -0.34693
 Alpha  occ. eigenvalues --   -0.34678  -0.34380  -0.34327  -0.33573  -0.33342
 Alpha  occ. eigenvalues --   -0.33232  -0.32875  -0.32679  -0.32629  -0.32584
 Alpha  occ. eigenvalues --   -0.32286  -0.32098  -0.31925  -0.31332  -0.30673
 Alpha  occ. eigenvalues --   -0.30017  -0.29600  -0.29436  -0.28694  -0.27592
 Alpha  occ. eigenvalues --   -0.27281  -0.27191  -0.26301  -0.24037  -0.21361
 Alpha  occ. eigenvalues --   -0.20108
 Alpha virt. eigenvalues --   -0.07021  -0.04122  -0.00152   0.01447   0.03156
 Alpha virt. eigenvalues --    0.04171   0.04306   0.05004   0.05536   0.06281
 Alpha virt. eigenvalues --    0.06532   0.08869   0.09193   0.10227   0.10277

 Mulliken charges:
               1
     1  Mg   0.832075
     2  C    0.048593
     3  C   -0.199627
     4  C   -0.190070
     5  C   -0.170039
     6  N   -0.618129
     7  C    0.302982
     8  C   -0.073707
     9  C   -0.168391
    10  C    0.374620
    11  C   -0.323067
    12  C   -0.184176
    13  C   -0.271617
    14  C    0.585328
    15  O   -0.492566
    16  O   -0.412710
    17  N   -0.785761
    18  C    0.402755
    19  C   -0.027200
    20  C    0.070225
    21  C    0.257142
    22  C   -0.367237
    23  C   -0.067330
    24  C   -0.247322
    25  N   -0.679267
    26  C    0.299197
    27  C    0.082377
    28  C   -0.037204
    29  C    0.295943
    30  C   -0.377518
    31  C   -0.215873
    32  C   -0.311295
    33  N   -0.677954
    34  C    0.239988
    35  C    0.013952
    36  C    0.089353
    37  C    0.273493
    38  C   -0.405686
    39  C    0.344934
    40  O   -0.411642
    41  C   -0.340824
    42  C    0.628719
    43  O   -0.472088
    44  O   -0.434619
    45  C   -0.069284
    46  C    0.015035
    47  C   -0.136986
    48  C    0.099790
    49  C   -0.373240
    50  C   -0.215230
    51  C   -0.167318
    52  C   -0.174633
    53  C   -0.055826
    54  C   -0.312853
    55  C   -0.157696
    56  C   -0.181514
    57  C   -0.181918
    58  C   -0.044677
    59  C   -0.301959
    60  C   -0.193118
    61  C   -0.166082
    62  C   -0.159090
    63  C   -0.050737
    64  C   -0.295422
    65  C   -0.331166
    66  H    0.075463
    67  H    0.073182
    68  H    0.091819
    69  H    0.116924
    70  H    0.078986
    71  H    0.109035
    72  H    0.105452
    73  H    0.127779
    74  H    0.113201
    75  H    0.099227
    76  H    0.129110
    77  H    0.135462
    78  H    0.110861
    79  H    0.130080
    80  H    0.072602
    81  H    0.079900
    82  H    0.106255
    83  H    0.087968
    84  H    0.126436
    85  H    0.113698
    86  H    0.119196
    87  H    0.112684
    88  H    0.101565
    89  H    0.095810
    90  H    0.118108
    91  H    0.093106
    92  H    0.105943
    93  H    0.122412
    94  H    0.138221
    95  H    0.147585
    96  H    0.089718
    97  H    0.127082
    98  H    0.123772
    99  H    0.146485
   100  H    0.121136
   101  H    0.083711
   102  H    0.119084
   103  H    0.096170
   104  H    0.144545
   105  H    0.119083
   106  H    0.080723
   107  H    0.102794
   108  H    0.076367
   109  H    0.072133
   110  H    0.049855
   111  H    0.097158
   112  H    0.082319
   113  H    0.100147
   114  H    0.116848
   115  H    0.090100
   116  H    0.103617
   117  H    0.085386
   118  H    0.091261
   119  H    0.086699
   120  H    0.086073
   121  H    0.092116
   122  H    0.097665
   123  H    0.091340
   124  H    0.109058
   125  H    0.082713
   126  H    0.096312
   127  H    0.036042
   128  H    0.104255
   129  H    0.087885
   130  H    0.063887
   131  H    0.077150
   132  H    0.098889
   133  H    0.098295
   134  H    0.104841
   135  H    0.087100
   136  H    0.102828
   137  H    0.114455
 Sum of Mulliken charges =  -0.00000

 Dipole moment (field-independent basis, Debye):
    X=              1.1095    Y=              3.5424    Z=              0.7135  Tot=              3.7800
 Quadrupole moment (field-independent basis, Debye-Ang):
   XX=           -327.0055   YY=           -396.7358   ZZ=           -395.5045
   XY=              1.8892   XZ=              3.3313   YZ=             -1.0643

 Normal termination of Gaussian 16 at Sat Sep  7 05:39:41 2019.
