 Gaussian 16, Revision A.03,
 Gaussian 16:  ES64L-G16RevA.03 25-Dec-2016

 ----------------------------------------------------------------------
 # td=(NStates=1) iop(3/107=0140000000,3/108=0140000000) CAM-B3LYP/6-31
 G(d,p)
 ----------------------------------------------------------------------

 --
 TD
 --
 Symbolic Z-matrix:
 Charge =  0 Multiplicity = 1

                         Standard orientation:
 ---------------------------------------------------------------------
 Center     Atomic      Atomic             Coordinates (Angstroms)
 Number     Number       Type             X           Y           Z
 ---------------------------------------------------------------------
      1         12           0       -7.104880    0.656731    0.145848
      2          6           0       -4.760609   -1.879797    0.471579
      3          6           0       -4.785656    2.777147    1.087628
      4          6           0       -9.373834    3.056299   -0.386376
      5          6           0       -9.486201   -1.654036   -0.782354
      6          7           0       -5.044421    0.366237    0.654987
      7          6           0       -4.285397   -0.769815    0.838742
      8          6           0       -2.868683   -0.370560    1.313041
      9          6           0       -2.986048    1.091702    1.678100
     10          6           0       -4.352285    1.428662    1.116464
     11          6           0       -2.873333    1.160756    3.166945
     12          6           0       -1.915493   -0.696457    0.105336
     13          6           0       -0.434907   -0.432850    0.541982
     14          6           0        0.496246   -0.690291   -0.631772
     15          8           0        0.192491   -1.076299   -1.766819
     16          8           0        1.780424   -0.555853   -0.226748
     17          7           0       -7.096165    2.609302    0.245321
     18          6           0       -6.009193    3.355079    0.785986
     19          6           0       -6.339019    4.811837    0.800792
     20          6           0       -7.640639    4.907723    0.394765
     21          6           0       -8.165104    3.481826    0.012909
     22          6           0       -5.370043    5.906090    1.156616
     23          6           0       -8.393545    6.083842    0.137240
     24          6           0       -8.383061    7.258316    0.873341
     25          7           0       -8.991419    0.720619   -0.613227
     26          6           0       -9.863178    1.937049   -0.773998
     27          6           0      -11.220500    1.514651   -1.100911
     28          6           0      -11.192559    0.135950   -1.211517
     29          6           0       -9.827151   -0.334523   -0.899517
     30          6           0      -12.299060    2.558875   -1.440435
     31          6           0      -12.378942   -0.681405   -1.631111
     32          6           0      -12.206121   -1.207221   -2.988134
     33          7           0       -7.163176   -1.319149   -0.190556
     34          6           0       -8.287092   -2.167752   -0.529719
     35          6           0       -7.863358   -3.543439   -0.518836
     36          6           0       -6.458183   -3.543332   -0.125708
     37          6           0       -6.186755   -2.112524    0.093360
     38          6           0       -8.606248   -4.777547   -1.003143
     39          6           0       -5.361989   -4.335066    0.187297
     40          8           0       -5.226006   -5.542015    0.263456
     41          6           0       -4.243314   -3.342543    0.480943
     42          6           0       -3.685367   -3.742052    1.855538
     43          8           0       -3.923624   -3.313384    2.968299
     44          8           0       -2.798169   -4.766918    1.688042
     45          6           0       -2.450985   -5.294512    3.062665
     46          6           0        2.844784   -0.706276   -1.174352
     47          6           0        4.145559   -0.493250   -0.605231
     48          6           0        5.059984    0.320664   -0.979192
     49          6           0        5.065803    1.183458   -2.252730
     50          6           0        6.332192    0.476296   -0.166130
     51          6           0        7.599602   -0.156962   -0.969065
     52          6           0        8.876293   -0.187468   -0.082056
     53          6           0       10.056381   -0.610583   -0.946161
     54          6           0        9.999198   -2.070938   -1.288210
     55          6           0       11.419070   -0.312034   -0.077152
     56          6           0       12.769223   -0.467726   -0.787073
     57          6           0       13.998676   -0.028395    0.125801
     58          6           0       15.365137   -0.324095   -0.537629
     59          6           0       15.739836   -1.709976   -0.935612
     60          6           0       16.475513    0.372540    0.372956
     61          6           0       17.810209    0.521370   -0.174296
     62          6           0       18.783959    1.166011    0.844322
     63          6           0       20.176314    1.418585    0.256810
     64          6           0       20.215434    2.465212   -0.923277
     65          6           0       21.184640    1.898759    1.370039
     66          1           0       -4.232927    3.540018    1.391505
     67          1           0      -10.042544    3.971520   -0.505203
     68          1           0      -10.370378   -2.316227   -0.859331
     69          1           0       -2.564861   -1.038262    2.174243
     70          1           0       -2.241687    1.869643    1.360386
     71          1           0       -1.693567    1.332606    3.518063
     72          1           0       -3.360287    2.165914    3.502511
     73          1           0       -3.465326    0.279984    3.717972
     74          1           0       -2.003649   -1.626835   -0.226588
     75          1           0       -2.072135   -0.167234   -0.848641
     76          1           0       -0.440142    0.697398    0.786793
     77          1           0       -0.151869   -0.888779    1.372471
     78          1           0       -5.576749    6.810896    0.553903
     79          1           0       -5.644385    6.420020    2.199227
     80          1           0       -4.453993    5.644759    1.008299
     81          1           0       -9.008290    6.051147   -0.762563
     82          1           0       -9.006938    8.098973    0.409514
     83          1           0       -7.764469    7.480339    1.762129
     84          1           0      -11.864067    3.100186   -2.288071
     85          1           0      -13.233393    2.037512   -1.955025
     86          1           0      -12.461644    3.197882   -0.478976
     87          1           0      -12.533247   -1.621001   -1.081162
     88          1           0      -13.455568   -0.251795   -1.595084
     89          1           0      -13.138763   -1.928677   -3.191648
     90          1           0      -12.207629   -0.524699   -3.777187
     91          1           0      -11.340573   -1.989667   -3.156833
     92          1           0       -8.634766   -4.546952   -2.015597
     93          1           0       -8.030003   -5.433007   -0.572486
     94          1           0       -9.495645   -4.809907   -0.570946
     95          1           0       -3.312221   -3.636082   -0.262660
     96          1           0       -1.576430   -4.781579    3.470729
     97          1           0       -3.310412   -5.558030    3.653126
     98          1           0       -2.148747   -6.280435    2.612561
     99          1           0        2.637509   -1.671254   -1.402157
    100          1           0        2.781056   -0.139440   -2.061249
    101          1           0        4.312557   -1.201160    0.280602
    102          1           0        3.948509    1.301733   -2.624196
    103          1           0        5.377896    2.216968   -2.347851
    104          1           0        5.812693    0.794392   -2.957333
    105          1           0        6.544228    1.448033    0.182040
    106          1           0        6.255443   -0.012766    0.821254
    107          1           0        7.189813   -1.044110   -1.363477
    108          1           0        7.588595    0.572787   -1.814165
    109          1           0        9.014913    0.855404    0.473112
    110          1           0        8.753092   -1.080722    0.636072
    111          1           0       10.255508    0.097051   -2.026554
    112          1           0        9.149976   -2.321756   -2.001602
    113          1           0       10.848262   -2.575643   -1.802988
    114          1           0        9.646268   -2.979637   -0.535850
    115          1           0       11.256395    0.742227    0.371637
    116          1           0       11.543161   -0.752800    0.819636
    117          1           0       13.181337   -1.485360   -0.989644
    118          1           0       12.581384    0.242651   -1.739002
    119          1           0       14.082366    0.978972    0.375949
    120          1           0       13.912226   -0.390714    1.136850
    121          1           0       15.389422    0.182262   -1.720761
    122          1           0       15.792025   -2.425829   -0.128177
    123          1           0       15.095642   -2.205563   -1.472010
    124          1           0       16.806524   -1.763341   -1.244523
    125          1           0       16.066946    1.373139    0.609490
    126          1           0       16.573991   -0.303370    1.325255
    127          1           0       18.462257   -0.408383   -0.511066
    128          1           0       17.706932    0.997619   -1.117092
    129          1           0       18.579353    2.328718    1.149167
    130          1           0       18.769659    0.555668    1.762300
    131          1           0       20.581299    0.417619   -0.017439
    132          1           0       19.929525    3.525591   -0.514387
    133          1           0       21.003677    2.711075   -1.293806
    134          1           0       19.692549    1.983364   -1.818989
    135          1           0       20.858772    1.161679    2.312505
    136          1           0       22.193688    1.870784    0.982260
    137          1           0       20.624563    2.748712    1.828091
 ---------------------------------------------------------------------

 SCF Done:  E(RCAM-B3LYP) =  -2933.40504875     A.U. after   15 cycles

 Excitation energies and oscillator strengths:

 Excited State   1:      Singlet-A      1.9403 eV  639.00 nm  f=0.2732  <S**2>=0.000
     240 -> 243        0.16157
     241 -> 242        0.68591
 This state for optimization and/or second-order correction.
 Total Energy, E(TD-HF/TD-DFT) =  -2933.33374470
 Copying the excited state density for this state as the 1-particle RhoCI density.

 The electronic state is 1-A.
 Alpha  occ. eigenvalues --  -46.78828 -19.21208 -19.20689 -19.16333 -19.15857
 Alpha  occ. eigenvalues --  -19.14509 -14.37525 -14.35412 -14.35220 -14.34855
 Alpha  occ. eigenvalues --  -10.34462 -10.33286 -10.28726 -10.27117 -10.26099
 Alpha  occ. eigenvalues --  -10.25931 -10.25451 -10.25078 -10.24939 -10.24866
 Alpha  occ. eigenvalues --  -10.24865 -10.24419 -10.24307 -10.24276 -10.24221
 Alpha  occ. eigenvalues --  -10.24131 -10.24113 -10.23787 -10.23711 -10.23637
 Alpha  occ. eigenvalues --  -10.23553 -10.23419 -10.23394 -10.23325 -10.23284
 Alpha  occ. eigenvalues --  -10.23175 -10.23097 -10.22695 -10.22637 -10.22627
 Alpha  occ. eigenvalues --  -10.22585 -10.22423 -10.22418 -10.22325 -10.22276
 Alpha  occ. eigenvalues --  -10.22063 -10.21985 -10.21912 -10.21853 -10.21655
 Alpha  occ. eigenvalues --  -10.21454 -10.21437 -10.21357 -10.21200 -10.21079
 Alpha  occ. eigenvalues --  -10.21026 -10.21023 -10.20847 -10.20755 -10.20608
 Alpha  occ. eigenvalues --  -10.20494 -10.20300 -10.19705 -10.18972 -10.18445
 Alpha  occ. eigenvalues --   -3.07700  -1.82609  -1.82177  -1.82129  -1.12211
 Alpha  occ. eigenvalues --   -1.11179  -1.04954  -1.03091  -1.02141  -0.99711
 Alpha  occ. eigenvalues --   -0.98196  -0.96241  -0.94727  -0.87285  -0.86652
 Alpha  occ. eigenvalues --   -0.85251  -0.85109  -0.84965  -0.84157  -0.84036
 Alpha  occ. eigenvalues --   -0.83570  -0.83327  -0.83119  -0.82748  -0.81467
 Alpha  occ. eigenvalues --   -0.80188  -0.79456  -0.79014  -0.78541  -0.78406
 Alpha  occ. eigenvalues --   -0.77156  -0.76861  -0.75674  -0.75221  -0.73747
 Alpha  occ. eigenvalues --   -0.73134  -0.72419  -0.72126  -0.71767  -0.71527
 Alpha  occ. eigenvalues --   -0.71202  -0.70397  -0.69483  -0.69134  -0.68917
 Alpha  occ. eigenvalues --   -0.66814  -0.66257  -0.64646  -0.64460  -0.63986
 Alpha  occ. eigenvalues --   -0.63348  -0.62490  -0.61563  -0.60839  -0.60131
 Alpha  occ. eigenvalues --   -0.59684  -0.59118  -0.58724  -0.58236  -0.57250
 Alpha  occ. eigenvalues --   -0.57034  -0.56864  -0.56292  -0.55782  -0.54986
 Alpha  occ. eigenvalues --   -0.54722  -0.53974  -0.53580  -0.53207  -0.52498
 Alpha  occ. eigenvalues --   -0.52134  -0.51707  -0.51324  -0.51233  -0.50832
 Alpha  occ. eigenvalues --   -0.50643  -0.50190  -0.49958  -0.49733  -0.49288
 Alpha  occ. eigenvalues --   -0.48846  -0.48754  -0.48582  -0.48481  -0.48259
 Alpha  occ. eigenvalues --   -0.47694  -0.47592  -0.47109  -0.47057  -0.46878
 Alpha  occ. eigenvalues --   -0.46653  -0.46533  -0.46264  -0.46138  -0.46025
 Alpha  occ. eigenvalues --   -0.45764  -0.45546  -0.45432  -0.45358  -0.44819
 Alpha  occ. eigenvalues --   -0.44383  -0.44120  -0.44016  -0.43902  -0.43685
 Alpha  occ. eigenvalues --   -0.43544  -0.43479  -0.43158  -0.42827  -0.42525
 Alpha  occ. eigenvalues --   -0.42344  -0.41989  -0.41821  -0.41617  -0.41464
 Alpha  occ. eigenvalues --   -0.41303  -0.41116  -0.41028  -0.40483  -0.40439
 Alpha  occ. eigenvalues --   -0.40408  -0.39946  -0.39835  -0.39701  -0.39633
 Alpha  occ. eigenvalues --   -0.39298  -0.39273  -0.38978  -0.38874  -0.38649
 Alpha  occ. eigenvalues --   -0.38639  -0.38345  -0.38082  -0.37802  -0.37681
 Alpha  occ. eigenvalues --   -0.37635  -0.37485  -0.37270  -0.37045  -0.36943
 Alpha  occ. eigenvalues --   -0.36442  -0.36304  -0.36062  -0.35952  -0.35910
 Alpha  occ. eigenvalues --   -0.35702  -0.35501  -0.35188  -0.35104  -0.34514
 Alpha  occ. eigenvalues --   -0.34392  -0.33845  -0.33688  -0.33632  -0.33503
 Alpha  occ. eigenvalues --   -0.33209  -0.32930  -0.32453  -0.32185  -0.32101
 Alpha  occ. eigenvalues --   -0.31988  -0.31906  -0.31725  -0.30498  -0.30318
 Alpha  occ. eigenvalues --   -0.30124  -0.29859  -0.29399  -0.28808  -0.27656
 Alpha  occ. eigenvalues --   -0.26827  -0.26280  -0.25704  -0.25234  -0.22819
 Alpha  occ. eigenvalues --   -0.19453
 Alpha virt. eigenvalues --   -0.07193  -0.03529   0.00271   0.01653   0.03799
 Alpha virt. eigenvalues --    0.04471   0.04536   0.04552   0.05183   0.06086
 Alpha virt. eigenvalues --    0.07112   0.08700   0.08841   0.09086   0.09516

 Mulliken charges:
               1
     1  Mg   0.807938
     2  C    0.052056
     3  C   -0.168291
     4  C   -0.199225
     5  C   -0.183274
     6  N   -0.636549
     7  C    0.317379
     8  C   -0.159617
     9  C   -0.122619
    10  C    0.382587
    11  C   -0.299603
    12  C   -0.174706
    13  C   -0.258442
    14  C    0.603279
    15  O   -0.487846
    16  O   -0.481133
    17  N   -0.724215
    18  C    0.276763
    19  C    0.055932
    20  C    0.017682
    21  C    0.300065
    22  C   -0.365340
    23  C   -0.112963
    24  C   -0.239230
    25  N   -0.692277
    26  C    0.280148
    27  C    0.032471
    28  C    0.035904
    29  C    0.332666
    30  C   -0.363925
    31  C   -0.256626
    32  C   -0.296102
    33  N   -0.705877
    34  C    0.279308
    35  C   -0.046066
    36  C    0.036996
    37  C    0.307868
    38  C   -0.322698
    39  C    0.345290
    40  O   -0.486032
    41  C   -0.331886
    42  C    0.622042
    43  O   -0.490721
    44  O   -0.455933
    45  C   -0.101025
    46  C    0.044140
    47  C   -0.131337
    48  C    0.145068
    49  C   -0.384388
    50  C   -0.248427
    51  C   -0.182904
    52  C   -0.165962
    53  C   -0.019066
    54  C   -0.316616
    55  C   -0.177543
    56  C   -0.165336
    57  C   -0.189065
    58  C   -0.039654
    59  C   -0.312069
    60  C   -0.169484
    61  C   -0.167284
    62  C   -0.149156
    63  C   -0.073766
    64  C   -0.282250
    65  C   -0.300414
    66  H    0.042816
    67  H    0.064813
    68  H    0.089440
    69  H    0.123567
    70  H    0.110400
    71  H    0.088815
    72  H    0.093804
    73  H    0.122503
    74  H    0.127102
    75  H    0.121704
    76  H    0.118611
    77  H    0.139898
    78  H    0.128986
    79  H    0.111020
    80  H    0.124594
    81  H    0.103341
    82  H    0.098069
    83  H    0.104279
    84  H    0.136121
    85  H    0.103593
    86  H    0.124350
    87  H    0.109212
    88  H    0.104890
    89  H    0.071053
    90  H    0.120709
    91  H    0.094000
    92  H    0.144407
    93  H    0.151687
    94  H    0.122808
    95  H    0.150574
    96  H    0.130508
    97  H    0.152571
    98  H    0.121670
    99  H    0.118329
   100  H    0.108844
   101  H    0.081886
   102  H    0.100048
   103  H    0.123933
   104  H    0.129084
   105  H    0.106299
   106  H    0.087358
   107  H    0.114783
   108  H    0.092515
   109  H    0.086814
   110  H    0.104147
   111  H    0.052656
   112  H    0.096991
   113  H    0.113462
   114  H    0.079359
   115  H    0.066983
   116  H    0.099456
   117  H    0.098982
   118  H    0.075159
   119  H    0.096952
   120  H    0.092275
   121  H    0.036306
   122  H    0.086707
   123  H    0.112051
   124  H    0.102183
   125  H    0.098430
   126  H    0.074256
   127  H    0.073356
   128  H    0.105046
   129  H    0.057047
   130  H    0.093777
   131  H    0.077181
   132  H    0.080569
   133  H    0.113374
   134  H    0.090845
   135  H    0.064022
   136  H    0.114851
   137  H    0.103123
 Sum of Mulliken charges =  -0.00000

 Dipole moment (field-independent basis, Debye):
    X=              1.3249    Y=              5.6142    Z=              0.6720  Tot=              5.8074
 Quadrupole moment (field-independent basis, Debye-Ang):
   XX=           -332.7805   YY=           -392.4254   ZZ=           -398.7084
   XY=            -26.7672   XZ=              7.3471   YZ=             -1.7707

 Normal termination of Gaussian 16 at Tue Sep 10 05:58:45 2019.
