 Gaussian 16, Revision A.03,
 Gaussian 16:  ES64L-G16RevA.03 25-Dec-2016

 ----------------------------------------------------------------------
 # td=(NStates=1) iop(3/107=0140000000,3/108=0140000000) CAM-B3LYP/6-31
 G(d,p)
 ----------------------------------------------------------------------

 --
 TD
 --
 Symbolic Z-matrix:
 Charge =  0 Multiplicity = 1

                         Standard orientation:
 ---------------------------------------------------------------------
 Center     Atomic      Atomic             Coordinates (Angstroms)
 Number     Number       Type             X           Y           Z
 ---------------------------------------------------------------------
      1         12           0       -7.114903    0.607547    0.130788
      2          6           0       -4.897592   -1.931007    0.329331
      3          6           0       -4.797599    2.838320    1.044911
      4          6           0       -9.340920    3.222650   -0.276885
      5          6           0       -9.604024   -1.672161   -0.856367
      6          7           0       -5.166002    0.460528    0.707636
      7          6           0       -4.328050   -0.697733    0.824789
      8          6           0       -2.934490   -0.431506    1.237799
      9          6           0       -3.054387    1.033246    1.735491
     10          6           0       -4.312102    1.551876    1.089329
     11          6           0       -3.101944    1.115237    3.259560
     12          6           0       -1.897931   -0.843299    0.062439
     13          6           0       -0.477291   -0.768681    0.521789
     14          6           0        0.548073   -0.835129   -0.632354
     15          8           0        0.168686   -1.164545   -1.769421
     16          8           0        1.799230   -0.512531   -0.241605
     17          7           0       -7.033781    2.662011    0.367962
     18          6           0       -5.968616    3.409911    0.673581
     19          6           0       -6.257449    4.790966    0.702829
     20          6           0       -7.618144    4.860830    0.355571
     21          6           0       -8.052283    3.520336    0.068750
     22          6           0       -5.303828    5.993721    0.910330
     23          6           0       -8.421900    6.053059    0.287658
     24          6           0       -8.272255    7.215340    0.813040
     25          7           0       -9.172223    0.757506   -0.469425
     26          6           0       -9.838143    1.839840   -0.595935
     27          6           0      -11.124374    1.564171   -1.088043
     28          6           0      -11.238893    0.211959   -1.223408
     29          6           0       -9.924257   -0.380410   -0.861774
     30          6           0      -12.284202    2.647924   -1.230868
     31          6           0      -12.388960   -0.489878   -1.806566
     32          6           0      -12.215088   -0.972283   -3.310890
     33          7           0       -7.259897   -1.318887   -0.204556
     34          6           0       -8.368671   -2.225054   -0.441690
     35          6           0       -7.880607   -3.679351   -0.456107
     36          6           0       -6.611353   -3.488872   -0.171887
     37          6           0       -6.230197   -2.184793    0.078885
     38          6           0       -8.748107   -4.838150   -0.758092
     39          6           0       -5.437777   -4.368878    0.311994
     40          8           0       -5.335228   -5.607686    0.250653
     41          6           0       -4.268993   -3.332429    0.463363
     42          6           0       -3.651306   -3.612302    1.849312
     43          8           0       -3.873099   -3.006639    2.901054
     44          8           0       -2.903736   -4.674737    1.722994
     45          6           0       -2.316529   -5.358154    2.924550
     46          6           0        2.800320   -0.776256   -1.145615
     47          6           0        4.109185   -0.514542   -0.482324
     48          6           0        5.073042    0.277621   -0.864316
     49          6           0        5.072515    1.163121   -2.181823
     50          6           0        6.510162    0.290597   -0.184384
     51          6           0        7.652216   -0.233742   -1.017756
     52          6           0        8.934988   -0.145612   -0.253596
     53          6           0       10.167663   -0.563783   -0.953184
     54          6           0       10.147779   -2.016818   -1.361456
     55          6           0       11.479799   -0.483368    0.020007
     56          6           0       12.873530   -0.675053   -0.780916
     57          6           0       13.951963   -0.257552    0.097729
     58          6           0       15.398900   -0.269932   -0.449018
     59          6           0       15.863399   -1.672022   -0.860782
     60          6           0       16.403265    0.356639    0.433404
     61          6           0       17.797713    0.534561   -0.133201
     62          6           0       18.754787    1.458101    0.819578
     63          6           0       20.199684    1.540289    0.284931
     64          6           0       20.460109    2.321949   -1.020047
     65          6           0       21.187482    2.154946    1.407914
     66          1           0       -3.826587    3.409207    1.195823
     67          1           0      -10.099107    3.797997   -0.548083
     68          1           0      -10.454063   -2.381755   -1.296250
     69          1           0       -2.889310   -1.219929    2.059714
     70          1           0       -2.116848    1.717111    1.433013
     71          1           0       -2.182237    0.590738    3.656046
     72          1           0       -3.274203    2.089682    3.552042
     73          1           0       -3.998971    0.524412    3.564004
     74          1           0       -2.114700   -1.823294   -0.340012
     75          1           0       -2.176427   -0.150632   -0.600471
     76          1           0       -0.188401    0.179126    0.970558
     77          1           0       -0.144296   -1.526680    1.230416
     78          1           0       -5.694440    6.775604    0.163384
     79          1           0       -5.295360    6.376201    1.891154
     80          1           0       -4.294873    5.758952    0.713123
     81          1           0       -9.060523    6.083304   -0.621285
     82          1           0       -9.012224    8.133762    0.707885
     83          1           0       -7.495148    7.376277    1.629295
     84          1           0      -12.004454    3.384293   -1.963749
     85          1           0      -13.148601    2.130816   -1.536459
     86          1           0      -12.481823    3.079800   -0.386205
     87          1           0      -12.750540   -1.499895   -1.206941
     88          1           0      -13.340559    0.085168   -1.718140
     89          1           0      -13.221760   -1.456200   -3.358537
     90          1           0      -12.233080    0.041099   -4.000293
     91          1           0      -11.436372   -1.462482   -3.556878
     92          1           0       -9.134155   -4.697210   -1.759258
     93          1           0       -8.066402   -5.751549   -0.599076
     94          1           0       -9.556971   -4.545110   -0.022231
     95          1           0       -3.594177   -3.672197   -0.310740
     96          1           0       -1.433147   -4.659673    3.066772
     97          1           0       -3.183977   -5.502619    3.522807
     98          1           0       -1.776995   -6.338115    2.668569
     99          1           0        2.639604   -1.746098   -1.674197
    100          1           0        2.605614   -0.137665   -2.061879
    101          1           0        4.132082   -1.138630    0.443457
    102          1           0        4.081516    1.334011   -2.596847
    103          1           0        5.379959    2.114160   -1.878620
    104          1           0        5.799154    0.655017   -2.974885
    105          1           0        6.920065    1.299083    0.067265
    106          1           0        6.366614   -0.181102    0.687322
    107          1           0        7.526594   -1.301950   -1.363806
    108          1           0        7.626453    0.305817   -2.123136
    109          1           0        9.191436    0.918708    0.148095
    110          1           0        8.756653   -0.722346    0.604562
    111          1           0       10.353281    0.082268   -1.826369
    112          1           0        9.176095   -2.155328   -2.084093
    113          1           0       11.138871   -2.482851   -1.767921
    114          1           0        9.967565   -2.540743   -0.492818
    115          1           0       11.380847    0.494831    0.546055
    116          1           0       11.255619   -1.245753    0.633666
    117          1           0       12.799389   -1.666919   -1.126355
    118          1           0       12.913102    0.159768   -1.680277
    119          1           0       13.723807    0.794692    0.756131
    120          1           0       14.037800   -0.981491    0.970248
    121          1           0       15.255219    0.306529   -1.403710
    122          1           0       15.745181   -2.275822   -0.024251
    123          1           0       15.251426   -2.049478   -1.640829
    124          1           0       16.852248   -1.841069   -1.315615
    125          1           0       16.244622    1.292966    0.835794
    126          1           0       16.459910   -0.085536    1.306866
    127          1           0       18.352899   -0.377139   -0.434340
    128          1           0       17.874265    0.891410   -1.095235
    129          1           0       18.238159    2.398827    0.940683
    130          1           0       18.746115    0.886076    1.831269
    131          1           0       20.580256    0.477460   -0.007001
    132          1           0       20.383026    3.484781   -0.819181
    133          1           0       21.527718    2.428704   -1.302739
    134          1           0       19.791189    2.027953   -1.790794
    135          1           0       20.938179    1.617659    2.357673
    136          1           0       22.309051    2.031569    0.951670
    137          1           0       21.004594    3.101124    1.656488
 ---------------------------------------------------------------------

 SCF Done:  E(RCAM-B3LYP) =  -2933.51458129     A.U. after   16 cycles

 Excitation energies and oscillator strengths:

 Excited State   1:      Singlet-A      2.0182 eV  614.34 nm  f=0.2484  <S**2>=0.000
     240 -> 243        0.22386
     241 -> 242        0.66149
 This state for optimization and/or second-order correction.
 Total Energy, E(TD-HF/TD-DFT) =  -2933.44041447
 Copying the excited state density for this state as the 1-particle RhoCI density.

 The electronic state is 1-A.
 Alpha  occ. eigenvalues --  -46.78850 -19.23342 -19.22132 -19.16967 -19.16583
 Alpha  occ. eigenvalues --  -19.16036 -14.37245 -14.34836 -14.34645 -14.33889
 Alpha  occ. eigenvalues --  -10.35031 -10.34504 -10.30786 -10.29063 -10.27564
 Alpha  occ. eigenvalues --  -10.26600 -10.26148 -10.24808 -10.24784 -10.24507
 Alpha  occ. eigenvalues --  -10.24471 -10.23888 -10.23855 -10.23441 -10.23386
 Alpha  occ. eigenvalues --  -10.23381 -10.23276 -10.23260 -10.23230 -10.23096
 Alpha  occ. eigenvalues --  -10.22938 -10.22835 -10.22803 -10.22488 -10.22388
 Alpha  occ. eigenvalues --  -10.22317 -10.22218 -10.22217 -10.22141 -10.22132
 Alpha  occ. eigenvalues --  -10.21983 -10.21962 -10.21948 -10.21825 -10.21805
 Alpha  occ. eigenvalues --  -10.21702 -10.21604 -10.21552 -10.21406 -10.21354
 Alpha  occ. eigenvalues --  -10.21254 -10.21243 -10.21184 -10.21063 -10.20945
 Alpha  occ. eigenvalues --  -10.20770 -10.20751 -10.20612 -10.20596 -10.20408
 Alpha  occ. eigenvalues --  -10.20033 -10.19855 -10.19656 -10.19119 -10.18342
 Alpha  occ. eigenvalues --   -3.07545  -1.82482  -1.82018  -1.81961  -1.14622
 Alpha  occ. eigenvalues --   -1.13106  -1.04575  -1.04310  -1.03214  -0.99447
 Alpha  occ. eigenvalues --   -0.98113  -0.96998  -0.95682  -0.86622  -0.86551
 Alpha  occ. eigenvalues --   -0.85702  -0.84965  -0.84501  -0.84134  -0.83451
 Alpha  occ. eigenvalues --   -0.82850  -0.82392  -0.82337  -0.81773  -0.81522
 Alpha  occ. eigenvalues --   -0.80698  -0.79556  -0.78836  -0.78429  -0.77570
 Alpha  occ. eigenvalues --   -0.77147  -0.76757  -0.75700  -0.75195  -0.73743
 Alpha  occ. eigenvalues --   -0.73190  -0.72426  -0.71810  -0.71583  -0.71068
 Alpha  occ. eigenvalues --   -0.70783  -0.70358  -0.70132  -0.69600  -0.67538
 Alpha  occ. eigenvalues --   -0.67347  -0.66709  -0.65343  -0.65157  -0.63486
 Alpha  occ. eigenvalues --   -0.63234  -0.62155  -0.61628  -0.60963  -0.60605
 Alpha  occ. eigenvalues --   -0.59685  -0.59381  -0.59130  -0.58979  -0.57889
 Alpha  occ. eigenvalues --   -0.57597  -0.56790  -0.55826  -0.55289  -0.54994
 Alpha  occ. eigenvalues --   -0.54409  -0.53649  -0.53376  -0.53095  -0.52778
 Alpha  occ. eigenvalues --   -0.52533  -0.51872  -0.51323  -0.51306  -0.51043
 Alpha  occ. eigenvalues --   -0.50886  -0.50352  -0.49786  -0.49756  -0.49159
 Alpha  occ. eigenvalues --   -0.48897  -0.48495  -0.48080  -0.47777  -0.47529
 Alpha  occ. eigenvalues --   -0.47340  -0.47237  -0.47111  -0.46618  -0.46495
 Alpha  occ. eigenvalues --   -0.46453  -0.46181  -0.46134  -0.45947  -0.45668
 Alpha  occ. eigenvalues --   -0.45590  -0.45424  -0.45309  -0.45033  -0.44801
 Alpha  occ. eigenvalues --   -0.44648  -0.44335  -0.44234  -0.44094  -0.43854
 Alpha  occ. eigenvalues --   -0.43708  -0.43444  -0.43317  -0.43213  -0.43082
 Alpha  occ. eigenvalues --   -0.42619  -0.42593  -0.42073  -0.41931  -0.41803
 Alpha  occ. eigenvalues --   -0.41600  -0.41492  -0.41113  -0.40914  -0.40798
 Alpha  occ. eigenvalues --   -0.40746  -0.40662  -0.40102  -0.39932  -0.39741
 Alpha  occ. eigenvalues --   -0.39600  -0.39314  -0.39109  -0.39056  -0.38864
 Alpha  occ. eigenvalues --   -0.38691  -0.38426  -0.38276  -0.37939  -0.37663
 Alpha  occ. eigenvalues --   -0.37625  -0.37518  -0.37185  -0.37167  -0.37016
 Alpha  occ. eigenvalues --   -0.36794  -0.36720  -0.36167  -0.36108  -0.35959
 Alpha  occ. eigenvalues --   -0.35899  -0.35800  -0.35157  -0.35136  -0.34833
 Alpha  occ. eigenvalues --   -0.34560  -0.34070  -0.33980  -0.33570  -0.33347
 Alpha  occ. eigenvalues --   -0.33262  -0.33188  -0.32927  -0.32728  -0.32483
 Alpha  occ. eigenvalues --   -0.32379  -0.32006  -0.31336  -0.30376  -0.30161
 Alpha  occ. eigenvalues --   -0.30074  -0.29872  -0.29320  -0.28283  -0.27896
 Alpha  occ. eigenvalues --   -0.26937  -0.26282  -0.25263  -0.24856  -0.21663
 Alpha  occ. eigenvalues --   -0.19128
 Alpha virt. eigenvalues --   -0.06274  -0.03676  -0.00054   0.02740   0.03640
 Alpha virt. eigenvalues --    0.04243   0.04578   0.05147   0.05758   0.05889
 Alpha virt. eigenvalues --    0.06361   0.08986   0.09257   0.09546   0.09820

 Mulliken charges:
               1
     1  Mg   0.802573
     2  C    0.013388
     3  C   -0.221978
     4  C   -0.116806
     5  C   -0.194333
     6  N   -0.610863
     7  C    0.280949
     8  C   -0.176687
     9  C   -0.152301
    10  C    0.305755
    11  C   -0.287966
    12  C   -0.144314
    13  C   -0.266577
    14  C    0.592110
    15  O   -0.479967
    16  O   -0.434004
    17  N   -0.710716
    18  C    0.353587
    19  C    0.028377
    20  C   -0.014033
    21  C    0.353299
    22  C   -0.371633
    23  C   -0.048039
    24  C   -0.265773
    25  N   -0.698605
    26  C    0.307022
    27  C   -0.029692
    28  C    0.052201
    29  C    0.302690
    30  C   -0.363615
    31  C   -0.276623
    32  C   -0.276463
    33  N   -0.703290
    34  C    0.201127
    35  C    0.039150
    36  C   -0.046781
    37  C    0.351880
    38  C   -0.367161
    39  C    0.378758
    40  O   -0.467091
    41  C   -0.294879
    42  C    0.595569
    43  O   -0.501841
    44  O   -0.439388
    45  C   -0.083574
    46  C   -0.005499
    47  C   -0.122472
    48  C    0.097789
    49  C   -0.357923
    50  C   -0.208082
    51  C   -0.168247
    52  C   -0.154938
    53  C   -0.068587
    54  C   -0.304145
    55  C   -0.186289
    56  C   -0.154295
    57  C   -0.156431
    58  C   -0.062670
    59  C   -0.319496
    60  C   -0.145975
    61  C   -0.200708
    62  C   -0.181839
    63  C   -0.044687
    64  C   -0.307484
    65  C   -0.309465
    66  H    0.064287
    67  H    0.060712
    68  H    0.087579
    69  H    0.136858
    70  H    0.079081
    71  H    0.109030
    72  H    0.118554
    73  H    0.127423
    74  H    0.126523
    75  H    0.130612
    76  H    0.129210
    77  H    0.132866
    78  H    0.122788
    79  H    0.130682
    80  H    0.117084
    81  H    0.089550
    82  H    0.097119
    83  H    0.090916
    84  H    0.116744
    85  H    0.107865
    86  H    0.135988
    87  H    0.068691
    88  H    0.103102
    89  H    0.105549
    90  H    0.079024
    91  H    0.124025
    92  H    0.138705
    93  H    0.147807
    94  H    0.133961
    95  H    0.163380
    96  H    0.134991
    97  H    0.160334
    98  H    0.134293
    99  H    0.124222
   100  H    0.105941
   101  H    0.084780
   102  H    0.111697
   103  H    0.127758
   104  H    0.112036
   105  H    0.096959
   106  H    0.103045
   107  H    0.095529
   108  H    0.065970
   109  H    0.076752
   110  H    0.097906
   111  H    0.084160
   112  H    0.075042
   113  H    0.091399
   114  H    0.110875
   115  H    0.080074
   116  H    0.102418
   117  H    0.107554
   118  H    0.070427
   119  H    0.064149
   120  H    0.073729
   121  H    0.069823
   122  H    0.106745
   123  H    0.100937
   124  H    0.104819
   125  H    0.088008
   126  H    0.095706
   127  H    0.078299
   128  H    0.096908
   129  H    0.099846
   130  H    0.082375
   131  H    0.079607
   132  H    0.074164
   133  H    0.104035
   134  H    0.107865
   135  H    0.091905
   136  H    0.079276
   137  H    0.119928
 Sum of Mulliken charges =  -0.00000

 Dipole moment (field-independent basis, Debye):
    X=              3.1975    Y=              2.2586    Z=              1.3019  Tot=              4.1255
 Quadrupole moment (field-independent basis, Debye-Ang):
   XX=           -376.3447   YY=           -385.2069   ZZ=           -398.8315
   XY=            -19.6330   XZ=             10.6042   YZ=             -5.3360

 Normal termination of Gaussian 16 at Fri Sep 13 13:52:58 2019.
