 Gaussian 09, Revision D.01,
 Gaussian 09:  ES64L-G09RevD.01 24-Apr-2013

 -------------------------------------
 # td=(NStates=1) CAM-B3LYP/6-31G(d,p)
 -------------------------------------

 --
 TD
 --
 Symbolic Z-matrix:
 Charge =  0 Multiplicity = 1

                         Standard orientation:
 ---------------------------------------------------------------------
 Center     Atomic      Atomic             Coordinates (Angstroms)
 Number     Number       Type             X           Y           Z
 ---------------------------------------------------------------------
      1         12           0       -7.145289    0.657517    0.153182
      2          6           0       -4.916423   -1.981844    0.587701
      3          6           0       -4.786452    2.824787    1.340170
      4          6           0       -9.365882    3.094887   -0.324629
      5          6           0       -9.519620   -1.728474   -0.898856
      6          7           0       -5.127800    0.487098    0.729871
      7          6           0       -4.355543   -0.675939    0.822848
      8          6           0       -2.940142   -0.487680    1.259525
      9          6           0       -3.028144    1.056777    1.776127
     10          6           0       -4.438085    1.511906    1.180063
     11          6           0       -2.886507    1.247826    3.247421
     12          6           0       -1.958051   -0.669971    0.059338
     13          6           0       -0.470426   -0.556321    0.551351
     14          6           0        0.495225   -0.709457   -0.728423
     15          8           0        0.137280   -1.002574   -1.831931
     16          8           0        1.747782   -0.429715   -0.352965
     17          7           0       -7.109497    2.663406    0.432671
     18          6           0       -6.085244    3.469570    0.899157
     19          6           0       -6.352625    4.806431    0.727386
     20          6           0       -7.639622    4.912453    0.159760
     21          6           0       -8.109193    3.534208    0.045940
     22          6           0       -5.442633    6.023455    1.071617
     23          6           0       -8.447259    6.041729   -0.072744
     24          6           0       -8.458040    7.220138    0.583222
     25          7           0       -9.067148    0.706097   -0.490388
     26          6           0       -9.829202    1.837093   -0.610729
     27          6           0      -11.182986    1.475244   -1.123155
     28          6           0      -11.162592    0.077726   -1.171037
     29          6           0       -9.902828   -0.418500   -0.788252
     30          6           0      -12.339299    2.497630   -1.310835
     31          6           0      -12.274571   -0.724729   -1.606796
     32          6           0      -12.135294   -1.228430   -3.109834
     33          7           0       -7.303128   -1.419676   -0.063288
     34          6           0       -8.273853   -2.222928   -0.513660
     35          6           0       -7.909054   -3.680892   -0.509663
     36          6           0       -6.576524   -3.625265   -0.159934
     37          6           0       -6.180774   -2.200286    0.103777
     38          6           0       -8.607979   -4.836317   -0.899692
     39          6           0       -5.354442   -4.361769    0.166984
     40          8           0       -5.186795   -5.559043    0.014544
     41          6           0       -4.187386   -3.308047    0.521086
     42          6           0       -3.541120   -3.730641    1.789566
     43          8           0       -3.717148   -3.170048    2.889455
     44          8           0       -2.759707   -4.833103    1.680255
     45          6           0       -2.156602   -5.338086    2.827258
     46          6           0        2.857454   -0.714407   -1.211475
     47          6           0        4.108794   -0.414722   -0.496222
     48          6           0        5.096528    0.413606   -0.875808
     49          6           0        4.975383    1.438566   -2.065712
     50          6           0        6.477118    0.286898   -0.194907
     51          6           0        7.645766   -0.087778   -1.021786
     52          6           0        8.929982    0.048816   -0.264134
     53          6           0       10.151323   -0.538800   -0.950587
     54          6           0       10.006155   -2.095409   -1.245709
     55          6           0       11.410195   -0.303914   -0.005711
     56          6           0       12.774563   -0.492934   -0.669781
     57          6           0       13.886729   -0.062230    0.189596
     58          6           0       15.312457   -0.080921   -0.515716
     59          6           0       15.783618   -1.637305   -0.855409
     60          6           0       16.375922    0.488600    0.445110
     61          6           0       17.792005    0.614770   -0.184326
     62          6           0       18.823197    1.243610    0.848032
     63          6           0       20.295648    1.238858    0.251929
     64          6           0       20.353555    2.106576   -1.023674
     65          6           0       21.238705    1.733635    1.249397
     66          1           0       -4.036638    3.479036    1.737743
     67          1           0      -10.170214    3.810757   -0.439763
     68          1           0      -10.190683   -2.424687   -1.430198
     69          1           0       -2.844226   -1.046857    2.099505
     70          1           0       -2.399071    1.624509    1.434326
     71          1           0       -1.929990    0.824627    3.425539
     72          1           0       -3.097398    2.272178    3.527336
     73          1           0       -3.739052    0.525874    3.696901
     74          1           0       -2.074284   -1.667301   -0.317290
     75          1           0       -2.240077   -0.018281   -0.632307
     76          1           0       -0.236881    0.392678    1.038944
     77          1           0       -0.447182   -1.511775    1.308461
     78          1           0       -5.756675    6.822956    0.320232
     79          1           0       -5.749194    6.487655    2.120625
     80          1           0       -4.386189    5.879422    0.748470
     81          1           0       -9.198335    5.834452   -0.747431
     82          1           0       -9.173973    7.954664    0.221560
     83          1           0       -7.648097    7.287079    1.568050
     84          1           0      -12.237785    3.109973   -2.192091
     85          1           0      -13.361874    1.956144   -1.217845
     86          1           0      -12.157891    3.171585   -0.421387
     87          1           0      -12.529113   -1.437884   -1.006009
     88          1           0      -13.119174    0.042230   -1.735313
     89          1           0      -13.079321   -1.810150   -3.550629
     90          1           0      -11.963867   -0.298728   -3.883086
     91          1           0      -11.282756   -1.907732   -3.274305
     92          1           0       -9.076335   -4.726172   -1.813963
     93          1           0       -8.130474   -5.872569   -0.641216
     94          1           0       -9.562145   -5.137543   -0.139998
     95          1           0       -3.439780   -3.459954   -0.165161
     96          1           0       -1.628530   -4.482986    3.224507
     97          1           0       -2.950042   -5.587478    3.478297
     98          1           0       -1.587582   -6.294992    2.434368
     99          1           0        2.759766   -1.707443   -1.514019
    100          1           0        2.679201    0.172474   -1.990616
    101          1           0        4.497234   -1.116756    0.273052
    102          1           0        4.095295    1.574495   -2.487210
    103          1           0        5.273190    2.490081   -1.624594
    104          1           0        5.617339    1.172427   -2.963335
    105          1           0        6.805286    1.191322    0.212591
    106          1           0        6.369455   -0.461389    0.654157
    107          1           0        7.459894   -1.092297   -1.311527
    108          1           0        7.747308    0.382813   -1.994172
    109          1           0        9.204479    1.153126    0.078537
    110          1           0        8.843736   -0.329945    0.841939
    111          1           0       10.290392   -0.072490   -2.014364
    112          1           0        9.182630   -2.334255   -2.067629
    113          1           0       11.129908   -2.592314   -1.546552
    114          1           0        9.884404   -2.505047   -0.244321
    115          1           0       11.529738    0.717226    0.449206
    116          1           0       11.091542   -0.903631    0.817770
    117          1           0       12.977988   -1.446021   -0.812282
    118          1           0       12.834420   -0.049896   -1.676821
    119          1           0       13.640168    0.958586    0.554087
    120          1           0       13.746770   -0.433669    1.093377
    121          1           0       15.348251    0.547919   -1.372459
    122          1           0       15.998742   -2.356945    0.096806
    123          1           0       15.050965   -1.920683   -1.560278
    124          1           0       16.651636   -1.610140   -1.596883
    125          1           0       15.989396    1.387707    0.830815
    126          1           0       16.637535   -0.197245    1.432756
    127          1           0       17.899496   -0.420939   -0.599709
    128          1           0       17.597226    1.227115   -1.078481
    129          1           0       18.481708    2.322302    0.936208
    130          1           0       18.705781    0.566694    1.729867
    131          1           0       20.328486    0.115048   -0.027924
    132          1           0       19.877372    3.133707   -0.920813
    133          1           0       21.410166    2.322990   -1.318865
    134          1           0       19.738052    1.728045   -1.803555
    135          1           0       21.317445    1.055649    2.113818
    136          1           0       22.282644    1.837726    0.998140
    137          1           0       20.819422    2.719320    1.570338
 ---------------------------------------------------------------------

 SCF Done:  E(RCAM-B3LYP) =  -2932.69680577     A.U. after   16 cycles

 Excitation energies and oscillator strengths:

 Excited State   1:      Singlet-A      1.9331 eV  641.37 nm  f=0.3340  <S**2>=0.000
     240 -> 243        0.23181
     241 -> 242        0.66319
 This state for optimization and/or second-order correction.
 Total Energy, E(TD-HF/TD-KS) =  -2932.62576560
 Copying the excited state density for this state as the 1-particle RhoCI density.

 The electronic state is 1-A.
 Alpha  occ. eigenvalues --  -46.83985 -19.25950 -19.25558 -19.21217 -19.20766
 Alpha  occ. eigenvalues --  -19.20517 -14.41912 -14.39649 -14.38841 -14.38837
 Alpha  occ. eigenvalues --  -10.39458 -10.39335 -10.35704 -10.32663 -10.31725
 Alpha  occ. eigenvalues --  -10.31189 -10.29649 -10.29522 -10.29433 -10.29255
 Alpha  occ. eigenvalues --  -10.29141 -10.28954 -10.28885 -10.28621 -10.28569
 Alpha  occ. eigenvalues --  -10.28394 -10.28289 -10.27519 -10.27485 -10.27465
 Alpha  occ. eigenvalues --  -10.27463 -10.27444 -10.27426 -10.27370 -10.27333
 Alpha  occ. eigenvalues --  -10.27108 -10.26929 -10.26836 -10.26766 -10.26746
 Alpha  occ. eigenvalues --  -10.26676 -10.26510 -10.26399 -10.26244 -10.26203
 Alpha  occ. eigenvalues --  -10.26153 -10.26152 -10.26084 -10.26081 -10.26054
 Alpha  occ. eigenvalues --  -10.25846 -10.25745 -10.25609 -10.25506 -10.25451
 Alpha  occ. eigenvalues --  -10.25270 -10.25146 -10.25074 -10.25033 -10.25000
 Alpha  occ. eigenvalues --  -10.24882 -10.24408 -10.23936 -10.23765 -10.23388
 Alpha  occ. eigenvalues --   -3.13021  -1.87729  -1.87260  -1.87197  -1.18471
 Alpha  occ. eigenvalues --   -1.18316  -1.11221  -1.10191  -1.07994  -1.04295
 Alpha  occ. eigenvalues --   -1.03411  -1.02542  -1.00971  -0.93006  -0.91798
 Alpha  occ. eigenvalues --   -0.90438  -0.89815  -0.89439  -0.89134  -0.88820
 Alpha  occ. eigenvalues --   -0.88628  -0.88362  -0.87431  -0.86965  -0.86213
 Alpha  occ. eigenvalues --   -0.85422  -0.84489  -0.83787  -0.83002  -0.81798
 Alpha  occ. eigenvalues --   -0.81679  -0.81315  -0.79968  -0.79634  -0.78201
 Alpha  occ. eigenvalues --   -0.77355  -0.76948  -0.76539  -0.75915  -0.75704
 Alpha  occ. eigenvalues --   -0.74715  -0.74569  -0.73982  -0.73626  -0.72425
 Alpha  occ. eigenvalues --   -0.70872  -0.70494  -0.69773  -0.69344  -0.68726
 Alpha  occ. eigenvalues --   -0.67171  -0.67062  -0.66233  -0.66146  -0.64687
 Alpha  occ. eigenvalues --   -0.63923  -0.63327  -0.63029  -0.62470  -0.62241
 Alpha  occ. eigenvalues --   -0.61927  -0.60182  -0.59958  -0.59548  -0.59297
 Alpha  occ. eigenvalues --   -0.58290  -0.58044  -0.58010  -0.57789  -0.57527
 Alpha  occ. eigenvalues --   -0.56216  -0.55993  -0.55651  -0.55436  -0.55217
 Alpha  occ. eigenvalues --   -0.54897  -0.54172  -0.54018  -0.53942  -0.53084
 Alpha  occ. eigenvalues --   -0.52991  -0.52393  -0.52290  -0.51879  -0.51506
 Alpha  occ. eigenvalues --   -0.51326  -0.51090  -0.50811  -0.50675  -0.50404
 Alpha  occ. eigenvalues --   -0.50379  -0.50330  -0.50028  -0.49716  -0.49439
 Alpha  occ. eigenvalues --   -0.49388  -0.49251  -0.49112  -0.48621  -0.48532
 Alpha  occ. eigenvalues --   -0.48245  -0.47951  -0.47594  -0.47240  -0.47041
 Alpha  occ. eigenvalues --   -0.46992  -0.46519  -0.46423  -0.46284  -0.45876
 Alpha  occ. eigenvalues --   -0.45773  -0.45470  -0.45320  -0.45286  -0.44957
 Alpha  occ. eigenvalues --   -0.44779  -0.44688  -0.44171  -0.44069  -0.43975
 Alpha  occ. eigenvalues --   -0.43777  -0.43656  -0.43550  -0.43077  -0.43008
 Alpha  occ. eigenvalues --   -0.42810  -0.42672  -0.42449  -0.42287  -0.42144
 Alpha  occ. eigenvalues --   -0.41961  -0.41785  -0.41650  -0.41359  -0.41177
 Alpha  occ. eigenvalues --   -0.41072  -0.40803  -0.40551  -0.40448  -0.40387
 Alpha  occ. eigenvalues --   -0.40103  -0.39913  -0.39734  -0.39539  -0.39397
 Alpha  occ. eigenvalues --   -0.38939  -0.38786  -0.38637  -0.38071  -0.37993
 Alpha  occ. eigenvalues --   -0.37982  -0.37957  -0.37120  -0.37095  -0.36388
 Alpha  occ. eigenvalues --   -0.36308  -0.35779  -0.35710  -0.35543  -0.35410
 Alpha  occ. eigenvalues --   -0.35374  -0.34950  -0.34885  -0.33975  -0.33583
 Alpha  occ. eigenvalues --   -0.33407  -0.33054  -0.32099  -0.30913  -0.30760
 Alpha  occ. eigenvalues --   -0.30086  -0.29592  -0.27620  -0.26686  -0.23047
 Alpha  occ. eigenvalues --   -0.20738
 Alpha virt. eigenvalues --   -0.06810  -0.03017   0.00957   0.04550   0.05292
 Alpha virt. eigenvalues --    0.05443   0.06470   0.06633   0.07000   0.07631
 Alpha virt. eigenvalues --    0.08756   0.10860   0.11033   0.11156   0.11672

 Mulliken charges:
               1
     1  Mg   0.814323
     2  C    0.096569
     3  C   -0.212552
     4  C   -0.180299
     5  C   -0.187075
     6  N   -0.630557
     7  C    0.268872
     8  C   -0.170171
     9  C   -0.119633
    10  C    0.351224
    11  C   -0.295824
    12  C   -0.150661
    13  C   -0.265155
    14  C    0.593003
    15  O   -0.456886
    16  O   -0.470663
    17  N   -0.705790
    18  C    0.286234
    19  C   -0.005502
    20  C    0.036752
    21  C    0.301535
    22  C   -0.376340
    23  C   -0.071648
    24  C   -0.239735
    25  N   -0.714656
    26  C    0.311138
    27  C    0.017076
    28  C    0.007335
    29  C    0.321796
    30  C   -0.367196
    31  C   -0.232556
    32  C   -0.307113
    33  N   -0.698448
    34  C    0.276332
    35  C    0.091664
    36  C    0.017869
    37  C    0.240362
    38  C   -0.416493
    39  C    0.355285
    40  O   -0.450029
    41  C   -0.320118
    42  C    0.607708
    43  O   -0.496906
    44  O   -0.447946
    45  C   -0.073612
    46  C    0.020692
    47  C   -0.129270
    48  C    0.118255
    49  C   -0.356805
    50  C   -0.231257
    51  C   -0.169953
    52  C   -0.166237
    53  C   -0.067904
    54  C   -0.296471
    55  C   -0.189668
    56  C   -0.163069
    57  C   -0.185115
    58  C   -0.067570
    59  C   -0.322267
    60  C   -0.158052
    61  C   -0.199017
    62  C   -0.166110
    63  C   -0.046500
    64  C   -0.312317
    65  C   -0.296763
    66  H    0.075932
    67  H    0.078240
    68  H    0.095395
    69  H    0.133957
    70  H    0.090675
    71  H    0.113778
    72  H    0.114829
    73  H    0.099323
    74  H    0.119016
    75  H    0.125592
    76  H    0.132754
    77  H    0.114692
    78  H    0.124036
    79  H    0.115024
    80  H    0.118683
    81  H    0.085749
    82  H    0.109434
    83  H    0.086917
    84  H    0.133829
    85  H    0.115711
    86  H    0.122227
    87  H    0.115039
    88  H    0.092047
    89  H    0.087400
    90  H    0.090438
    91  H    0.107812
    92  H    0.141020
    93  H    0.155401
    94  H    0.092879
    95  H    0.167047
    96  H    0.125248
    97  H    0.137233
    98  H    0.120992
    99  H    0.136189
   100  H    0.110537
   101  H    0.083025
   102  H    0.125097
   103  H    0.103879
   104  H    0.115480
   105  H    0.108673
   106  H    0.095670
   107  H    0.104237
   108  H    0.101582
   109  H    0.081380
   110  H    0.073195
   111  H    0.072055
   112  H    0.101640
   113  H    0.075118
   114  H    0.107780
   115  H    0.082090
   116  H    0.095704
   117  H    0.110350
   118  H    0.085969
   119  H    0.069645
   120  H    0.103830
   121  H    0.097116
   122  H    0.104103
   123  H    0.109181
   124  H    0.097079
   125  H    0.088294
   126  H    0.048585
   127  H    0.093255
   128  H    0.082393
   129  H    0.090712
   130  H    0.094105
   131  H    0.079833
   132  H    0.085777
   133  H    0.098134
   134  H    0.111129
   135  H    0.095256
   136  H    0.100292
   137  H    0.097168
 Sum of Mulliken charges =   0.00000

 Dipole moment (field-independent basis, Debye):
    X=              2.5175    Y=              2.5203    Z=             -0.5586  Tot=              3.6058
 Quadrupole moment (field-independent basis, Debye-Ang):
   XX=           -353.1404   YY=           -391.6536   ZZ=           -401.1498
   XY=            -13.8256   XZ=             10.2434   YZ=             -4.5455

 Normal termination of Gaussian 09 at Fri Jul  5 09:40:19 2019.
