 Gaussian 16, Revision A.03,
 Gaussian 16:  ES64L-G16RevA.03 25-Dec-2016

 ----------------------------------------------------------------------
 # td=(NStates=1) iop(3/107=0140000000,3/108=0140000000) CAM-B3LYP/6-31
 G(d,p)
 ----------------------------------------------------------------------

 --
 TD
 --
 Symbolic Z-matrix:
 Charge =  0 Multiplicity = 1

                         Standard orientation:
 ---------------------------------------------------------------------
 Center     Atomic      Atomic             Coordinates (Angstroms)
 Number     Number       Type             X           Y           Z
 ---------------------------------------------------------------------
      1         12           0       -7.207495    0.655872    0.129210
      2          6           0       -4.838561   -1.953802    0.584633
      3          6           0       -4.868648    2.904451    1.240820
      4          6           0       -9.371927    3.103599   -0.440007
      5          6           0       -9.483182   -1.722291   -1.053188
      6          7           0       -5.118684    0.402973    0.754742
      7          6           0       -4.382423   -0.783455    0.891686
      8          6           0       -2.947793   -0.380492    1.219579
      9          6           0       -3.064228    1.037987    1.709039
     10          6           0       -4.428289    1.555498    1.172599
     11          6           0       -3.006850    1.189343    3.237516
     12          6           0       -1.974942   -0.640058    0.118732
     13          6           0       -0.526799   -0.446772    0.559422
     14          6           0        0.541715   -0.678815   -0.459153
     15          8           0        0.173465   -0.911842   -1.674204
     16          8           0        1.757100   -0.436799   -0.122460
     17          7           0       -7.158400    2.584333    0.377627
     18          6           0       -6.091421    3.376042    0.816962
     19          6           0       -6.458225    4.838246    0.869464
     20          6           0       -7.741443    4.805446    0.310238
     21          6           0       -8.141047    3.491290    0.090725
     22          6           0       -5.585210    5.986030    1.235700
     23          6           0       -8.632084    5.973843    0.016723
     24          6           0       -8.602432    7.111375    0.697622
     25          7           0       -9.041719    0.662147   -0.642550
     26          6           0       -9.858405    1.754982   -0.715834
     27          6           0      -11.217511    1.480366   -1.036291
     28          6           0      -11.226960    0.133153   -1.275909
     29          6           0       -9.854522   -0.361831   -0.988769
     30          6           0      -12.323471    2.507603   -1.413992
     31          6           0      -12.279671   -0.661772   -1.671361
     32          6           0      -12.195169   -1.073318   -3.222255
     33          7           0       -7.201636   -1.389916   -0.187840
     34          6           0       -8.262285   -2.287933   -0.622247
     35          6           0       -7.790756   -3.472777   -0.553625
     36          6           0       -6.456901   -3.548993   -0.211480
     37          6           0       -6.145420   -2.185146    0.099525
     38          6           0       -8.620663   -4.830511   -0.883947
     39          6           0       -5.440594   -4.445055    0.175924
     40          8           0       -5.247698   -5.652267    0.260756
     41          6           0       -4.232916   -3.426616    0.582788
     42          6           0       -3.556041   -3.818404    1.872723
     43          8           0       -3.691475   -3.203684    2.946335
     44          8           0       -2.712951   -4.821352    1.783267
     45          6           0       -2.081015   -5.236267    2.970908
     46          6           0        2.855085   -0.702556   -1.161961
     47          6           0        4.129463   -0.360878   -0.469438
     48          6           0        5.139920    0.235663   -1.040953
     49          6           0        4.965537    1.235419   -2.121288
     50          6           0        6.439727    0.428506   -0.206685
     51          6           0        7.678048   -0.113239   -1.124503
     52          6           0        8.901005   -0.174744   -0.244328
     53          6           0       10.154625   -0.569073   -0.957966
     54          6           0       10.162616   -2.149139   -1.272025
     55          6           0       11.485671   -0.307630   -0.228165
     56          6           0       12.828478   -0.423089   -0.751504
     57          6           0       13.923742    0.129101    0.008248
     58          6           0       15.359043   -0.043743   -0.585253
     59          6           0       15.695277   -1.460536   -1.001319
     60          6           0       16.440439    0.377823    0.430443
     61          6           0       17.899107    0.482373   -0.209878
     62          6           0       18.801231    1.221084    0.793977
     63          6           0       20.285648    1.302554    0.327356
     64          6           0       20.544373    2.135679   -0.944038
     65          6           0       21.131976    1.932029    1.490508
     66          1           0       -3.928647    3.647551    1.246522
     67          1           0      -10.165291    3.802995   -0.689859
     68          1           0      -10.411552   -2.273870   -1.209690
     69          1           0       -2.627964   -0.885448    1.952855
     70          1           0       -2.219122    1.713970    1.303767
     71          1           0       -2.126109    0.748797    3.692311
     72          1           0       -3.210790    2.142547    3.609328
     73          1           0       -3.792427    0.494438    3.737724
     74          1           0       -2.073121   -1.771334   -0.213888
     75          1           0       -2.186925   -0.063546   -0.737685
     76          1           0       -0.158214    0.638701    0.919766
     77          1           0       -0.423412   -1.103570    1.350798
     78          1           0       -5.807824    6.770406    0.543062
     79          1           0       -5.800487    6.222361    2.350369
     80          1           0       -4.469236    5.425364    1.464291
     81          1           0       -9.332630    6.043869   -0.701875
     82          1           0       -9.200643    7.901907    0.442503
     83          1           0       -7.809863    7.333517    1.545262
     84          1           0      -12.082639    3.113137   -2.170415
     85          1           0      -13.192078    1.851790   -1.620020
     86          1           0      -12.737531    3.129976   -0.471950
     87          1           0      -12.533493   -1.475503   -1.045092
     88          1           0      -13.172709   -0.120706   -1.714408
     89          1           0      -12.877967   -1.938991   -3.568367
     90          1           0      -12.560340   -0.123302   -3.862912
     91          1           0      -11.152624   -1.420818   -3.373723
     92          1           0       -8.960312   -4.829003   -1.881443
     93          1           0       -8.081266   -5.739139   -0.709317
     94          1           0       -9.595742   -4.848189   -0.288301
     95          1           0       -3.481921   -3.536250    0.005587
     96          1           0       -1.676976   -4.299912    3.714837
     97          1           0       -2.794753   -5.730330    3.647764
     98          1           0       -1.307476   -6.037339    2.647573
     99          1           0        2.932022   -1.840335   -1.374263
    100          1           0        2.697320   -0.139294   -1.901832
    101          1           0        4.161049   -0.906894    0.586685
    102          1           0        3.979068    1.368911   -2.707601
    103          1           0        5.660704    2.067513   -1.990246
    104          1           0        5.466291    0.690303   -2.882678
    105          1           0        6.537031    1.436225    0.182018
    106          1           0        6.212061   -0.059602    0.704779
    107          1           0        7.371544   -1.067768   -1.487246
    108          1           0        7.889729    0.388926   -2.081881
    109          1           0        9.093692    0.809562    0.214608
    110          1           0        8.825075   -0.825521    0.656739
    111          1           0        9.975161   -0.032677   -1.913232
    112          1           0        9.122878   -2.479262   -1.578796
    113          1           0       10.819548   -2.505243   -2.194002
    114          1           0       10.288851   -2.665896   -0.284223
    115          1           0       11.440117    0.788885   -0.090637
    116          1           0       11.458781   -0.639965    0.806673
    117          1           0       13.026383   -1.684035   -0.794498
    118          1           0       12.933947    0.052474   -2.015326
    119          1           0       13.839300    1.413556    0.211068
    120          1           0       13.884913   -0.387177    1.009599
    121          1           0       15.479250    0.557495   -1.514026
    122          1           0       15.463472   -1.904866   -0.111190
    123          1           0       15.103320   -1.770666   -1.942529
    124          1           0       16.856852   -1.607141   -1.110443
    125          1           0       16.248969    1.392341    0.702810
    126          1           0       16.551246   -0.327798    1.138146
    127          1           0       18.370772   -0.500072   -0.510214
    128          1           0       17.762499    1.174556   -1.131555
    129          1           0       18.548122    2.243632    1.190334
    130          1           0       18.727603    0.521195    1.670678
    131          1           0       20.783187    0.272225    0.049036
    132          1           0       20.202809    3.104115   -0.691278
    133          1           0       21.756899    2.145545   -1.176893
    134          1           0       20.099654    1.797983   -1.806936
    135          1           0       21.152361    1.172748    2.290022
    136          1           0       22.299557    1.954334    1.183751
    137          1           0       20.786001    2.904655    1.626300
 ---------------------------------------------------------------------

 SCF Done:  E(RCAM-B3LYP) =  -2933.45553213     A.U. after   16 cycles

 Excitation energies and oscillator strengths:

 Excited State   1:      Singlet-A      2.1393 eV  579.55 nm  f=0.2163  <S**2>=0.000
     240 -> 243       -0.23038
     241 -> 242        0.66287
 This state for optimization and/or second-order correction.
 Total Energy, E(TD-HF/TD-DFT) =  -2933.37691331
 Copying the excited state density for this state as the 1-particle RhoCI density.

 The electronic state is 1-A.
 Alpha  occ. eigenvalues --  -46.79034 -19.22649 -19.22138 -19.15052 -19.14345
 Alpha  occ. eigenvalues --  -19.13653 -14.37197 -14.35694 -14.35448 -14.34334
 Alpha  occ. eigenvalues --  -10.33365 -10.33113 -10.29611 -10.27959 -10.27735
 Alpha  occ. eigenvalues --  -10.27437 -10.26720 -10.25365 -10.25234 -10.24837
 Alpha  occ. eigenvalues --  -10.24714 -10.24647 -10.24149 -10.23994 -10.23863
 Alpha  occ. eigenvalues --  -10.23774 -10.23245 -10.23232 -10.23229 -10.23145
 Alpha  occ. eigenvalues --  -10.23102 -10.23088 -10.23051 -10.22927 -10.22913
 Alpha  occ. eigenvalues --  -10.22781 -10.22520 -10.22449 -10.22419 -10.22408
 Alpha  occ. eigenvalues --  -10.22350 -10.22140 -10.22123 -10.22073 -10.22056
 Alpha  occ. eigenvalues --  -10.21975 -10.21964 -10.21917 -10.21805 -10.21804
 Alpha  occ. eigenvalues --  -10.21672 -10.21671 -10.21515 -10.21353 -10.21205
 Alpha  occ. eigenvalues --  -10.21112 -10.20768 -10.20754 -10.20632 -10.20544
 Alpha  occ. eigenvalues --  -10.20168 -10.20053 -10.19963 -10.19798 -10.19623
 Alpha  occ. eigenvalues --   -3.07814  -1.82738  -1.82289  -1.82240  -1.13756
 Alpha  occ. eigenvalues --   -1.12852  -1.04407  -1.01516  -0.99436  -0.99082
 Alpha  occ. eigenvalues --   -0.98458  -0.97794  -0.96250  -0.87144  -0.86550
 Alpha  occ. eigenvalues --   -0.86237  -0.85692  -0.85142  -0.84798  -0.84641
 Alpha  occ. eigenvalues --   -0.83477  -0.83102  -0.82398  -0.81550  -0.81361
 Alpha  occ. eigenvalues --   -0.80370  -0.79872  -0.78923  -0.78746  -0.78029
 Alpha  occ. eigenvalues --   -0.77084  -0.76475  -0.76127  -0.75519  -0.73842
 Alpha  occ. eigenvalues --   -0.73560  -0.72868  -0.72254  -0.71393  -0.70623
 Alpha  occ. eigenvalues --   -0.70466  -0.70092  -0.69647  -0.69031  -0.68834
 Alpha  occ. eigenvalues --   -0.67427  -0.66304  -0.65855  -0.64911  -0.64059
 Alpha  occ. eigenvalues --   -0.62818  -0.62636  -0.61450  -0.60758  -0.60268
 Alpha  occ. eigenvalues --   -0.59608  -0.59161  -0.58603  -0.58098  -0.57317
 Alpha  occ. eigenvalues --   -0.57275  -0.56889  -0.56626  -0.56321  -0.55647
 Alpha  occ. eigenvalues --   -0.55060  -0.54610  -0.53110  -0.52929  -0.52588
 Alpha  occ. eigenvalues --   -0.52364  -0.51444  -0.50953  -0.50849  -0.50534
 Alpha  occ. eigenvalues --   -0.50454  -0.49766  -0.49735  -0.49368  -0.49262
 Alpha  occ. eigenvalues --   -0.49086  -0.48792  -0.48589  -0.48480  -0.48225
 Alpha  occ. eigenvalues --   -0.47898  -0.47862  -0.47522  -0.47415  -0.46991
 Alpha  occ. eigenvalues --   -0.46486  -0.46351  -0.46141  -0.45953  -0.45853
 Alpha  occ. eigenvalues --   -0.45654  -0.45446  -0.45269  -0.45071  -0.44818
 Alpha  occ. eigenvalues --   -0.44437  -0.44256  -0.44203  -0.43946  -0.43643
 Alpha  occ. eigenvalues --   -0.43154  -0.43044  -0.42965  -0.42704  -0.42322
 Alpha  occ. eigenvalues --   -0.42209  -0.42113  -0.41886  -0.41757  -0.41562
 Alpha  occ. eigenvalues --   -0.41460  -0.41205  -0.41141  -0.40844  -0.40778
 Alpha  occ. eigenvalues --   -0.40529  -0.40366  -0.40242  -0.40185  -0.39907
 Alpha  occ. eigenvalues --   -0.39661  -0.39241  -0.39125  -0.39040  -0.38741
 Alpha  occ. eigenvalues --   -0.38546  -0.38404  -0.38242  -0.37654  -0.37572
 Alpha  occ. eigenvalues --   -0.37487  -0.37328  -0.37108  -0.36901  -0.36609
 Alpha  occ. eigenvalues --   -0.36507  -0.36422  -0.36286  -0.36075  -0.35909
 Alpha  occ. eigenvalues --   -0.35823  -0.35302  -0.35077  -0.34734  -0.34550
 Alpha  occ. eigenvalues --   -0.34498  -0.34472  -0.34157  -0.33978  -0.33560
 Alpha  occ. eigenvalues --   -0.33324  -0.32872  -0.32822  -0.32606  -0.32268
 Alpha  occ. eigenvalues --   -0.31434  -0.31305  -0.31187  -0.30559  -0.30121
 Alpha  occ. eigenvalues --   -0.29807  -0.29058  -0.28132  -0.27777  -0.27080
 Alpha  occ. eigenvalues --   -0.26842  -0.26001  -0.25898  -0.25799  -0.21993
 Alpha  occ. eigenvalues --   -0.20826
 Alpha virt. eigenvalues --   -0.07453  -0.03904   0.00235   0.02809   0.03793
 Alpha virt. eigenvalues --    0.04522   0.04805   0.04948   0.05260   0.05962
 Alpha virt. eigenvalues --    0.07122   0.08232   0.09299   0.09305   0.10004

 Mulliken charges:
               1
     1  Mg   0.820650
     2  C    0.150597
     3  C   -0.222328
     4  C   -0.194596
     5  C   -0.162366
     6  N   -0.647929
     7  C    0.263107
     8  C   -0.090671
     9  C   -0.153154
    10  C    0.334854
    11  C   -0.319927
    12  C   -0.163290
    13  C   -0.251226
    14  C    0.590150
    15  O   -0.531093
    16  O   -0.456134
    17  N   -0.741032
    18  C    0.320277
    19  C    0.039690
    20  C    0.009806
    21  C    0.366967
    22  C   -0.371611
    23  C   -0.063653
    24  C   -0.236872
    25  N   -0.694003
    26  C    0.275186
    27  C    0.030466
    28  C    0.090133
    29  C    0.294873
    30  C   -0.367030
    31  C   -0.314405
    32  C   -0.313701
    33  N   -0.736520
    34  C    0.310855
    35  C   -0.009694
    36  C    0.037926
    37  C    0.267103
    38  C   -0.377404
    39  C    0.357283
    40  O   -0.481104
    41  C   -0.302021
    42  C    0.595010
    43  O   -0.508355
    44  O   -0.404072
    45  C   -0.088190
    46  C    0.044784
    47  C   -0.150670
    48  C    0.110408
    49  C   -0.366757
    50  C   -0.233155
    51  C   -0.195308
    52  C   -0.162060
    53  C   -0.053446
    54  C   -0.316316
    55  C   -0.159878
    56  C   -0.122441
    57  C   -0.134078
    58  C   -0.061416
    59  C   -0.301815
    60  C   -0.163791
    61  C   -0.194498
    62  C   -0.155335
    63  C   -0.071528
    64  C   -0.287621
    65  C   -0.296745
    66  H    0.089340
    67  H    0.077330
    68  H    0.092543
    69  H    0.102592
    70  H    0.083522
    71  H    0.112803
    72  H    0.117462
    73  H    0.112454
    74  H    0.102753
    75  H    0.122842
    76  H    0.111863
    77  H    0.134018
    78  H    0.144170
    79  H    0.131591
    80  H    0.090137
    81  H    0.090513
    82  H    0.101059
    83  H    0.085658
    84  H    0.143580
    85  H    0.113211
    86  H    0.103165
    87  H    0.123285
    88  H    0.111004
    89  H    0.099568
    90  H    0.096175
    91  H    0.120015
    92  H    0.124480
    93  H    0.143113
    94  H    0.101972
    95  H    0.145050
    96  H    0.108424
    97  H    0.135246
    98  H    0.115456
    99  H    0.137707
   100  H    0.121966
   101  H    0.081079
   102  H    0.116320
   103  H    0.128077
   104  H    0.130981
   105  H    0.110016
   106  H    0.110048
   107  H    0.114903
   108  H    0.101176
   109  H    0.091089
   110  H    0.086775
   111  H    0.075777
   112  H    0.084840
   113  H    0.099490
   114  H    0.099556
   115  H    0.081995
   116  H    0.091191
   117  H    0.058922
   118  H    0.030330
   119  H    0.046038
   120  H    0.084239
   121  H    0.078732
   122  H    0.107092
   123  H    0.100455
   124  H    0.083415
   125  H    0.096727
   126  H    0.098182
   127  H    0.097704
   128  H    0.082202
   129  H    0.085563
   130  H    0.087375
   131  H    0.064609
   132  H    0.097714
   133  H    0.070900
   134  H    0.111550
   135  H    0.105674
   136  H    0.072533
   137  H    0.109774
 Sum of Mulliken charges =  -0.00000

 Dipole moment (field-independent basis, Debye):
    X=              0.5147    Y=              6.5202    Z=              0.2647  Tot=              6.5458
 Quadrupole moment (field-independent basis, Debye-Ang):
   XX=           -329.9145   YY=           -394.9475   ZZ=           -398.7677
   XY=            -39.1678   XZ=             18.9544   YZ=             -2.1014

 Normal termination of Gaussian 16 at Tue Sep 10 21:51:12 2019.
