 Gaussian 16, Revision A.03,
 Gaussian 16:  ES64L-G16RevA.03 25-Dec-2016

 ----------------------------------------------------------------------
 # td=(NStates=1) iop(3/107=0140000000,3/108=0140000000) CAM-B3LYP/6-31
 G(d,p)
 ----------------------------------------------------------------------

 --
 TD
 --
 Symbolic Z-matrix:
 Charge =  0 Multiplicity = 1

                         Standard orientation:
 ---------------------------------------------------------------------
 Center     Atomic      Atomic             Coordinates (Angstroms)
 Number     Number       Type             X           Y           Z
 ---------------------------------------------------------------------
      1         12           0       -7.087601    0.609248    0.102169
      2          6           0       -4.909471   -1.911208    0.589981
      3          6           0       -4.667000    2.895358    1.097678
      4          6           0       -9.348613    3.126122   -0.344646
      5          6           0       -9.518061   -1.742814   -0.855222
      6          7           0       -5.119738    0.522262    0.664117
      7          6           0       -4.367683   -0.693386    0.750085
      8          6           0       -2.963414   -0.462606    1.160629
      9          6           0       -3.027106    0.976744    1.712540
     10          6           0       -4.285615    1.542171    1.070993
     11          6           0       -3.080462    1.166574    3.179991
     12          6           0       -1.899836   -0.725445    0.015202
     13          6           0       -0.485722   -0.579224    0.473477
     14          6           0        0.518195   -0.735733   -0.649545
     15          8           0        0.275712   -0.916143   -1.903167
     16          8           0        1.857394   -0.466474   -0.334493
     17          7           0       -7.042051    2.636023    0.310407
     18          6           0       -5.881524    3.410355    0.761144
     19          6           0       -6.344325    4.753139    0.768238
     20          6           0       -7.590435    4.842791    0.303495
     21          6           0       -8.099567    3.476766    0.018245
     22          6           0       -5.414096    5.960627    1.114516
     23          6           0       -8.472982    6.009757    0.188038
     24          6           0       -8.298393    7.209926    0.690979
     25          7           0       -9.110776    0.677106   -0.414717
     26          6           0       -9.794980    1.855270   -0.567767
     27          6           0      -11.174438    1.581265   -1.056712
     28          6           0      -11.234292    0.130066   -1.140401
     29          6           0       -9.880701   -0.357985   -0.802027
     30          6           0      -12.216153    2.505709   -1.185926
     31          6           0      -12.447377   -0.684303   -1.488840
     32          6           0      -12.291187   -0.964080   -3.083733
     33          7           0       -7.258908   -1.402134   -0.052156
     34          6           0       -8.274395   -2.241894   -0.574961
     35          6           0       -7.842343   -3.584668   -0.443185
     36          6           0       -6.577852   -3.517497   -0.029951
     37          6           0       -6.195877   -2.164910    0.278942
     38          6           0       -8.682231   -4.771337   -0.911516
     39          6           0       -5.413193   -4.450261    0.183553
     40          8           0       -5.229429   -5.640665    0.200363
     41          6           0       -4.300591   -3.287115    0.621687
     42          6           0       -3.499100   -3.719980    1.957149
     43          8           0       -3.769969   -3.074378    3.008386
     44          8           0       -2.765869   -4.835532    1.797075
     45          6           0       -2.279962   -5.328068    2.979186
     46          6           0        2.808637   -0.637195   -1.448726
     47          6           0        4.137608   -0.526238   -0.733765
     48          6           0        5.131468    0.323651   -1.090454
     49          6           0        5.003215    1.042694   -2.460363
     50          6           0        6.483182    0.367595   -0.384223
     51          6           0        7.679724   -0.112505   -1.213612
     52          6           0        8.891868   -0.098385   -0.370551
     53          6           0       10.153897   -0.533402   -1.038316
     54          6           0       10.029519   -1.983655   -1.470120
     55          6           0       11.378346   -0.326581   -0.141115
     56          6           0       12.821899   -0.546072   -0.735078
     57          6           0       13.847860   -0.019689    0.116047
     58          6           0       15.314067   -0.143994   -0.450454
     59          6           0       15.727988   -1.506091   -1.003842
     60          6           0       16.434452    0.544388    0.488510
     61          6           0       17.738743    0.527877    0.082995
     62          6           0       18.699638    1.283094    0.977731
     63          6           0       20.204548    1.215261    0.459909
     64          6           0       20.336856    2.164754   -0.741920
     65          6           0       21.237323    1.860499    1.442242
     66          1           0       -3.818023    3.556062    1.448971
     67          1           0      -10.080101    3.863234   -0.502298
     68          1           0      -10.174475   -2.358128   -1.094332
     69          1           0       -2.654438   -1.256867    2.057961
     70          1           0       -1.988427    1.657122    1.225135
     71          1           0       -2.248564    0.556547    3.768217
     72          1           0       -2.993740    2.322957    3.547693
     73          1           0       -3.848233    0.657489    3.465418
     74          1           0       -2.119410   -1.754714   -0.442558
     75          1           0       -2.279191   -0.133895   -0.689085
     76          1           0       -0.172869    0.297379    0.909589
     77          1           0       -0.155063   -1.290827    1.138191
     78          1           0       -5.805987    6.788197    0.377516
     79          1           0       -5.602166    6.209036    2.215756
     80          1           0       -4.370647    5.565986    1.024089
     81          1           0       -9.556922    5.901409   -0.453829
     82          1           0       -8.997578    7.861935    0.617578
     83          1           0       -7.627930    7.504350    1.629554
     84          1           0      -11.887809    3.217681   -2.050812
     85          1           0      -13.152542    2.184132   -1.479903
     86          1           0      -12.422764    3.138537   -0.466842
     87          1           0      -12.621453   -1.578858   -0.895523
     88          1           0      -13.313594   -0.130115   -1.503746
     89          1           0      -13.114144   -1.616116   -3.589203
     90          1           0      -12.367380   -0.005671   -3.570046
     91          1           0      -11.259019   -1.451923   -3.255586
     92          1           0       -8.798721   -4.640379   -2.185767
     93          1           0       -8.279555   -5.670999   -0.631622
     94          1           0       -9.869124   -4.764362   -0.611946
     95          1           0       -3.528139   -3.613523   -0.288676
     96          1           0       -1.715694   -4.433174    3.260404
     97          1           0       -3.089072   -5.677359    3.577685
     98          1           0       -1.610925   -6.157332    2.810451
     99          1           0        2.476834   -1.656081   -1.778445
    100          1           0        2.606793    0.334382   -2.252105
    101          1           0        4.245621   -0.910658    0.177301
    102          1           0        3.952373    1.051935   -2.648910
    103          1           0        5.455506    1.988905   -2.354036
    104          1           0        5.432341    0.262044   -3.316828
    105          1           0        6.783833    1.413981    0.001621
    106          1           0        6.303037   -0.540462    0.268706
    107          1           0        7.407454   -1.250690   -1.375560
    108          1           0        7.531549    0.461109   -2.162386
    109          1           0        9.066722    0.833956   -0.020702
    110          1           0        8.784813   -0.770771    0.552785
    111          1           0       10.495063    0.019283   -2.001185
    112          1           0        8.784458   -1.993873   -1.871628
    113          1           0       10.676123   -2.474025   -2.114754
    114          1           0        9.973267   -2.531727   -0.550008
    115          1           0       11.104813    0.641836    0.221592
    116          1           0       11.288344   -1.032770    0.746791
    117          1           0       13.063225   -1.487291   -0.867392
    118          1           0       12.824709   -0.283601   -1.824002
    119          1           0       14.048904    0.962527    0.486263
    120          1           0       13.798176   -0.303326    1.267799
    121          1           0       15.435677    0.454110   -1.367802
    122          1           0       15.812506   -1.983528    0.069116
    123          1           0       14.821359   -1.928311   -1.449614
    124          1           0       16.669497   -1.494682   -1.467884
    125          1           0       16.025860    1.465057    0.851286
    126          1           0       16.169138   -0.140554    1.479985
    127          1           0       18.291961   -0.551148    0.049130
    128          1           0       17.932356    1.082434   -0.955656
    129          1           0       18.512925    2.370716    1.116578
    130          1           0       18.699089    0.594264    2.002518
    131          1           0       20.504405    0.114482    0.392896
    132          1           0       20.123761    3.115134   -0.474180
    133          1           0       21.139084    2.174477   -1.069634
    134          1           0       19.858546    1.756636   -1.524965
    135          1           0       21.085772    1.383954    2.424895
    136          1           0       22.347267    1.784276    1.124036
    137          1           0       20.899007    2.945173    1.529771
 ---------------------------------------------------------------------

 SCF Done:  E(RCAM-B3LYP) =  -2933.29487644     A.U. after   16 cycles

 Excitation energies and oscillator strengths:

 Excited State   1:      Singlet-A      2.0327 eV  609.95 nm  f=0.2371  <S**2>=0.000
     240 -> 243        0.23095
     241 -> 242        0.66519
 This state for optimization and/or second-order correction.
 Total Energy, E(TD-HF/TD-DFT) =  -2933.22017641
 Copying the excited state density for this state as the 1-particle RhoCI density.

 The electronic state is 1-A.
 Alpha  occ. eigenvalues --  -46.78847 -19.23494 -19.21120 -19.17697 -19.17023
 Alpha  occ. eigenvalues --  -19.15994 -14.38326 -14.34973 -14.34897 -14.34792
 Alpha  occ. eigenvalues --  -10.35672 -10.34860 -10.31736 -10.28985 -10.27076
 Alpha  occ. eigenvalues --  -10.26450 -10.26257 -10.25632 -10.25580 -10.25555
 Alpha  occ. eigenvalues --  -10.24767 -10.24581 -10.24394 -10.24305 -10.24300
 Alpha  occ. eigenvalues --  -10.24242 -10.24187 -10.24178 -10.23408 -10.23328
 Alpha  occ. eigenvalues --  -10.23085 -10.22987 -10.22656 -10.22623 -10.22583
 Alpha  occ. eigenvalues --  -10.22421 -10.22225 -10.22207 -10.22131 -10.22115
 Alpha  occ. eigenvalues --  -10.22108 -10.22060 -10.22037 -10.21974 -10.21960
 Alpha  occ. eigenvalues --  -10.21910 -10.21847 -10.21711 -10.21691 -10.21500
 Alpha  occ. eigenvalues --  -10.21482 -10.21295 -10.21257 -10.21119 -10.21086
 Alpha  occ. eigenvalues --  -10.20846 -10.20840 -10.20808 -10.20627 -10.20620
 Alpha  occ. eigenvalues --  -10.20587 -10.20184 -10.20054 -10.19823 -10.15964
 Alpha  occ. eigenvalues --   -3.07564  -1.82509  -1.82067  -1.81937  -1.14845
 Alpha  occ. eigenvalues --   -1.09871  -1.07489  -1.03521  -1.00051  -0.99131
 Alpha  occ. eigenvalues --   -0.97902  -0.97401  -0.95867  -0.87789  -0.87042
 Alpha  occ. eigenvalues --   -0.85954  -0.85738  -0.84828  -0.84351  -0.83707
 Alpha  occ. eigenvalues --   -0.83547  -0.83499  -0.82892  -0.82612  -0.82042
 Alpha  occ. eigenvalues --   -0.81490  -0.79714  -0.79305  -0.79242  -0.77912
 Alpha  occ. eigenvalues --   -0.77759  -0.77108  -0.76501  -0.75176  -0.73790
 Alpha  occ. eigenvalues --   -0.72560  -0.72487  -0.71922  -0.71607  -0.70811
 Alpha  occ. eigenvalues --   -0.70702  -0.70561  -0.69980  -0.69283  -0.68329
 Alpha  occ. eigenvalues --   -0.67818  -0.67295  -0.65895  -0.65098  -0.63798
 Alpha  occ. eigenvalues --   -0.62294  -0.61888  -0.61518  -0.60794  -0.60590
 Alpha  occ. eigenvalues --   -0.59947  -0.58849  -0.58332  -0.57744  -0.57711
 Alpha  occ. eigenvalues --   -0.56935  -0.56858  -0.55747  -0.55410  -0.55256
 Alpha  occ. eigenvalues --   -0.54541  -0.54185  -0.53858  -0.53348  -0.52959
 Alpha  occ. eigenvalues --   -0.52685  -0.52561  -0.52217  -0.51437  -0.51254
 Alpha  occ. eigenvalues --   -0.51200  -0.51047  -0.50820  -0.49931  -0.49676
 Alpha  occ. eigenvalues --   -0.49368  -0.49154  -0.48988  -0.48491  -0.48468
 Alpha  occ. eigenvalues --   -0.47896  -0.47747  -0.47242  -0.47145  -0.47100
 Alpha  occ. eigenvalues --   -0.47006  -0.46835  -0.46742  -0.46391  -0.46225
 Alpha  occ. eigenvalues --   -0.46050  -0.45882  -0.45436  -0.45304  -0.45159
 Alpha  occ. eigenvalues --   -0.45019  -0.44703  -0.44519  -0.44431  -0.44175
 Alpha  occ. eigenvalues --   -0.44057  -0.43411  -0.43307  -0.43085  -0.42992
 Alpha  occ. eigenvalues --   -0.42821  -0.42442  -0.42362  -0.42118  -0.41964
 Alpha  occ. eigenvalues --   -0.41881  -0.41556  -0.41426  -0.41281  -0.41136
 Alpha  occ. eigenvalues --   -0.41001  -0.40659  -0.40499  -0.40069  -0.39829
 Alpha  occ. eigenvalues --   -0.39716  -0.39483  -0.39251  -0.39188  -0.39044
 Alpha  occ. eigenvalues --   -0.38918  -0.38563  -0.38361  -0.37980  -0.37883
 Alpha  occ. eigenvalues --   -0.37723  -0.37593  -0.37188  -0.37092  -0.36943
 Alpha  occ. eigenvalues --   -0.36788  -0.36488  -0.36235  -0.36004  -0.35809
 Alpha  occ. eigenvalues --   -0.35629  -0.35237  -0.35013  -0.34928  -0.34726
 Alpha  occ. eigenvalues --   -0.34253  -0.33941  -0.33516  -0.33496  -0.33171
 Alpha  occ. eigenvalues --   -0.33033  -0.32767  -0.32758  -0.32446  -0.31854
 Alpha  occ. eigenvalues --   -0.31357  -0.30768  -0.30691  -0.30512  -0.29763
 Alpha  occ. eigenvalues --   -0.29543  -0.29228  -0.29164  -0.28894  -0.27331
 Alpha  occ. eigenvalues --   -0.26845  -0.26786  -0.25152  -0.24304  -0.22523
 Alpha  occ. eigenvalues --   -0.19902
 Alpha virt. eigenvalues --   -0.06924  -0.04482  -0.00454   0.01949   0.02618
 Alpha virt. eigenvalues --    0.02896   0.03519   0.04638   0.05150   0.05437
 Alpha virt. eigenvalues --    0.06286   0.08144   0.08653   0.09344   0.09423

 Mulliken charges:
               1
     1  Mg   0.788345
     2  C    0.185345
     3  C   -0.213847
     4  C   -0.132926
     5  C   -0.087315
     6  N   -0.644225
     7  C    0.282734
     8  C   -0.171478
     9  C   -0.128994
    10  C    0.342401
    11  C   -0.276871
    12  C   -0.154648
    13  C   -0.238466
    14  C    0.568444
    15  O   -0.500804
    16  O   -0.498501
    17  N   -0.750250
    18  C    0.338013
    19  C   -0.012399
    20  C    0.040795
    21  C    0.340724
    22  C   -0.357655
    23  C   -0.078259
    24  C   -0.240026
    25  N   -0.700527
    26  C    0.312536
    27  C    0.036447
    28  C    0.001040
    29  C    0.302891
    30  C   -0.394477
    31  C   -0.246254
    32  C   -0.317636
    33  N   -0.742021
    34  C    0.260071
    35  C    0.044740
    36  C   -0.018552
    37  C    0.288667
    38  C   -0.355700
    39  C    0.388144
    40  O   -0.436207
    41  C   -0.361116
    42  C    0.608080
    43  O   -0.491040
    44  O   -0.409611
    45  C   -0.080178
    46  C    0.025942
    47  C   -0.092382
    48  C    0.084961
    49  C   -0.337949
    50  C   -0.228775
    51  C   -0.176722
    52  C   -0.156406
    53  C   -0.066112
    54  C   -0.288658
    55  C   -0.169294
    56  C   -0.177497
    57  C   -0.161346
    58  C   -0.083235
    59  C   -0.301438
    60  C   -0.161101
    61  C   -0.146843
    62  C   -0.154005
    63  C   -0.085863
    64  C   -0.266278
    65  C   -0.297908
    66  H    0.086629
    67  H    0.072852
    68  H    0.039146
    69  H    0.104697
    70  H    0.043850
    71  H    0.091659
    72  H    0.099159
    73  H    0.144712
    74  H    0.115384
    75  H    0.132438
    76  H    0.153054
    77  H    0.145901
    78  H    0.127228
    79  H    0.119373
    80  H    0.106707
    81  H    0.072446
    82  H    0.095200
    83  H    0.092939
    84  H    0.100514
    85  H    0.118817
    86  H    0.138515
    87  H    0.109855
    88  H    0.112842
    89  H    0.085024
    90  H    0.119186
    91  H    0.102866
    92  H    0.097514
    93  H    0.147899
    94  H    0.103338
    95  H    0.121348
    96  H    0.118800
    97  H    0.136195
    98  H    0.123444
    99  H    0.136518
   100  H    0.115523
   101  H    0.086315
   102  H    0.097362
   103  H    0.115440
   104  H    0.105268
   105  H    0.093912
   106  H    0.095946
   107  H    0.094875
   108  H    0.106178
   109  H    0.099359
   110  H    0.092188
   111  H    0.071940
   112  H    0.048921
   113  H    0.106407
   114  H    0.096109
   115  H    0.090696
   116  H    0.075278
   117  H    0.120912
   118  H    0.088380
   119  H    0.099215
   120  H    0.065267
   121  H    0.078297
   122  H    0.075840
   123  H    0.098508
   124  H    0.114136
   125  H    0.098969
   126  H    0.055800
   127  H    0.081336
   128  H    0.078282
   129  H    0.084806
   130  H    0.058553
   131  H    0.075394
   132  H    0.102653
   133  H    0.097956
   134  H    0.094344
   135  H    0.092545
   136  H    0.096428
   137  H    0.086088
 Sum of Mulliken charges =  -0.00000

 Dipole moment (field-independent basis, Debye):
    X=              0.4709    Y=              3.1610    Z=              0.9588  Tot=              3.3366
 Quadrupole moment (field-independent basis, Debye-Ang):
   XX=           -336.1593   YY=           -391.2103   ZZ=           -402.8888
   XY=             -9.4775   XZ=              2.7703   YZ=             -1.9349

 Normal termination of Gaussian 16 at Wed Sep 11 09:06:51 2019.
