 Gaussian 09, Revision D.01,
 Gaussian 09:  ES64L-G09RevD.01 24-Apr-2013

 -------------------------------------
 # td=(NStates=1) CAM-B3LYP/6-31G(d,p)
 -------------------------------------

 --
 TD
 --
 Symbolic Z-matrix:
 Charge =  0 Multiplicity = 1

                         Standard orientation:
 ---------------------------------------------------------------------
 Center     Atomic      Atomic             Coordinates (Angstroms)
 Number     Number       Type             X           Y           Z
 ---------------------------------------------------------------------
      1         12           0       -7.148023    0.634769    0.107621
      2          6           0       -4.775659   -1.778273    0.388728
      3          6           0       -4.806635    2.836130    1.179625
      4          6           0       -9.444848    3.038651   -0.273180
      5          6           0       -9.496572   -1.820511   -0.885373
      6          7           0       -5.136463    0.492999    0.839028
      7          6           0       -4.309004   -0.595070    0.754824
      8          6           0       -2.904984   -0.349740    1.127279
      9          6           0       -3.041061    1.072249    1.741886
     10          6           0       -4.305653    1.537419    1.154290
     11          6           0       -2.915381    1.216601    3.234496
     12          6           0       -1.949856   -0.498009    0.028098
     13          6           0       -0.413467   -0.480226    0.433070
     14          6           0        0.478441   -0.728921   -0.717154
     15          8           0        0.165454   -0.998301   -1.898480
     16          8           0        1.669882   -0.616257   -0.294749
     17          7           0       -7.108534    2.609045    0.402261
     18          6           0       -6.046909    3.387075    0.886426
     19          6           0       -6.405255    4.736268    0.705354
     20          6           0       -7.691402    4.839246    0.289416
     21          6           0       -8.121219    3.432046    0.094891
     22          6           0       -5.587612    5.938302    0.974316
     23          6           0       -8.513432    5.970052    0.109984
     24          6           0       -8.441403    6.999832    0.852072
     25          7           0       -9.107026    0.621793   -0.511418
     26          6           0       -9.902699    1.749952   -0.658029
     27          6           0      -11.183877    1.371546   -1.047640
     28          6           0      -11.214753    0.062928   -1.168773
     29          6           0       -9.871256   -0.439215   -0.825243
     30          6           0      -12.252554    2.258217   -1.319074
     31          6           0      -12.289018   -0.743735   -1.653147
     32          6           0      -12.249321   -1.016007   -3.263071
     33          7           0       -7.192267   -1.436860   -0.035514
     34          6           0       -8.193689   -2.261956   -0.497657
     35          6           0       -7.777033   -3.599035   -0.493805
     36          6           0       -6.509081   -3.567467   -0.040735
     37          6           0       -6.194190   -2.205125    0.097079
     38          6           0       -8.560872   -4.937868   -0.721307
     39          6           0       -5.302817   -4.314231    0.203356
     40          8           0       -5.117421   -5.525895    0.264664
     41          6           0       -4.133018   -3.188974    0.490712
     42          6           0       -3.544920   -3.620925    1.834778
     43          8           0       -3.782120   -3.124185    2.868000
     44          8           0       -2.578662   -4.631428    1.681348
     45          6           0       -2.035299   -5.204422    2.846585
     46          6           0        2.789552   -0.611926   -1.256663
     47          6           0        4.095793   -0.377890   -0.705995
     48          6           0        5.091904    0.450190   -0.974437
     49          6           0        5.069829    1.541296   -2.119275
     50          6           0        6.425639    0.434109   -0.187451
     51          6           0        7.618118   -0.063804   -0.944977
     52          6           0        8.940408   -0.154933   -0.180657
     53          6           0       10.163534   -0.503527   -0.939299
     54          6           0       10.065137   -2.059270   -1.299572
     55          6           0       11.373603   -0.291144    0.003548
     56          6           0       12.740013   -0.531329   -0.753415
     57          6           0       13.932958   -0.132245    0.203081
     58          6           0       15.254828   -0.271475   -0.448210
     59          6           0       15.691815   -1.689291   -0.893460
     60          6           0       16.320940    0.302605    0.536335
     61          6           0       17.777163    0.460185   -0.042504
     62          6           0       18.735227    1.226919    0.851348
     63          6           0       20.199761    1.400550    0.142927
     64          6           0       20.106237    2.271976   -1.019806
     65          6           0       21.228289    1.949124    1.202973
     66          1           0       -4.049004    3.621873    1.513350
     67          1           0      -10.148076    3.877259   -0.456971
     68          1           0      -10.180049   -2.614484   -1.395935
     69          1           0       -2.714301   -1.030789    1.950400
     70          1           0       -2.193917    1.486715    1.240008
     71          1           0       -2.097382    0.811734    3.551291
     72          1           0       -3.131755    2.133510    3.538536
     73          1           0       -3.719140    0.516961    3.711403
     74          1           0       -1.945287   -1.303092   -0.482313
     75          1           0       -2.215038    0.297885   -0.768370
     76          1           0       -0.127611    0.556053    0.820819
     77          1           0       -0.304197   -1.257129    1.237393
     78          1           0       -5.814002    6.776259    0.584625
     79          1           0       -5.379173    6.157855    1.869359
     80          1           0       -4.285469    5.964438    0.675837
     81          1           0       -9.232813    5.903297   -0.804599
     82          1           0       -9.131800    7.858330    0.347268
     83          1           0       -7.936148    7.184825    1.851020
     84          1           0      -11.917924    2.891485   -2.046387
     85          1           0      -13.127835    1.865539   -1.793870
     86          1           0      -12.680983    2.746284   -0.347780
     87          1           0      -12.569335   -1.602545   -1.179079
     88          1           0      -13.260830   -0.065538   -1.694323
     89          1           0      -13.216582   -1.554330   -3.540136
     90          1           0      -12.475255   -0.003881   -3.947059
     91          1           0      -11.195880   -1.483913   -3.509116
     92          1           0       -9.168738   -4.933531   -1.549578
     93          1           0       -7.913085   -5.576707   -0.649450
     94          1           0       -9.253308   -5.417259    0.126569
     95          1           0       -3.292370   -3.645574   -0.131790
     96          1           0       -1.436385   -4.445905    3.463900
     97          1           0       -2.712331   -5.830965    3.548237
     98          1           0       -1.200698   -5.939372    2.429512
     99          1           0        2.553772   -1.446678   -1.807220
    100          1           0        2.594447    0.157285   -2.058271
    101          1           0        4.139472   -1.004034    0.242238
    102          1           0        4.210215    1.477975   -2.544521
    103          1           0        5.240022    2.519878   -1.667676
    104          1           0        6.012380    1.365484   -2.779678
    105          1           0        6.598743    1.482440   -0.014224
    106          1           0        6.165363   -0.108714    0.906072
    107          1           0        7.265251   -1.056928   -1.460793
    108          1           0        7.966869    0.379477   -1.847789
    109          1           0        9.018773    1.034843    0.433966
    110          1           0        8.676838   -0.872369    0.636258
    111          1           0       10.163321    0.068141   -1.847797
    112          1           0        9.106142   -2.284628   -1.812751
    113          1           0       10.987383   -2.312467   -1.956915
    114          1           0       10.170627   -2.657593   -0.401168
    115          1           0       11.518863    0.648430    0.157620
    116          1           0       11.312497   -0.794639    0.943165
    117          1           0       12.878109   -1.629117   -0.902423
    118          1           0       12.662686    0.147634   -1.737380
    119          1           0       13.795396    0.720005    0.814457
    120          1           0       13.950342   -1.032200    0.891221
    121          1           0       15.427808    0.421489   -1.221326
    122          1           0       15.684532   -2.315295    0.129980
    123          1           0       14.896232   -2.308995   -1.256224
    124          1           0       16.579958   -1.679143   -1.192307
    125          1           0       16.084447    1.470723    0.903079
    126          1           0       16.465832   -0.508357    1.141080
    127          1           0       18.130323   -0.514481   -0.378861
    128          1           0       17.588242    0.894739   -1.003614
    129          1           0       18.360127    2.266570    1.024262
    130          1           0       18.918900    0.553828    1.650777
    131          1           0       20.364955    0.276499   -0.058398
    132          1           0       19.748317    3.175895   -0.846123
    133          1           0       21.106125    2.509436   -1.418871
    134          1           0       19.561324    1.760082   -1.616985
    135          1           0       21.317766    1.431527    2.120296
    136          1           0       22.319453    1.699407    1.150197
    137          1           0       20.927476    2.979494    1.180280
 ---------------------------------------------------------------------

 SCF Done:  E(RCAM-B3LYP) =  -2932.50628959     A.U. after   16 cycles

 Excitation energies and oscillator strengths:

 Excited State   1:      Singlet-A      1.9415 eV  638.60 nm  f=0.2501  <S**2>=0.000
     240 -> 243        0.20572
     241 -> 242        0.67160
 This state for optimization and/or second-order correction.
 Total Energy, E(TD-HF/TD-KS) =  -2932.43494114
 Copying the excited state density for this state as the 1-particle RhoCI density.

 The electronic state is 1-A.
 Alpha  occ. eigenvalues --  -46.84547 -19.26931 -19.24870 -19.20720 -19.19955
 Alpha  occ. eigenvalues --  -19.19619 -14.41339 -14.39463 -14.39268 -14.39264
 Alpha  occ. eigenvalues --  -10.38679 -10.38321 -10.34880 -10.31952 -10.31874
 Alpha  occ. eigenvalues --  -10.30782 -10.30055 -10.29591 -10.29354 -10.29239
 Alpha  occ. eigenvalues --  -10.28828 -10.28826 -10.28821 -10.28597 -10.28515
 Alpha  occ. eigenvalues --  -10.28351 -10.28338 -10.28026 -10.27926 -10.27592
 Alpha  occ. eigenvalues --  -10.27568 -10.27318 -10.27277 -10.27046 -10.26796
 Alpha  occ. eigenvalues --  -10.26714 -10.26595 -10.26591 -10.26579 -10.26432
 Alpha  occ. eigenvalues --  -10.26378 -10.26280 -10.26251 -10.26232 -10.26203
 Alpha  occ. eigenvalues --  -10.26154 -10.26019 -10.25612 -10.25256 -10.25166
 Alpha  occ. eigenvalues --  -10.25031 -10.24976 -10.24903 -10.24899 -10.24768
 Alpha  occ. eigenvalues --  -10.24758 -10.24519 -10.24317 -10.24315 -10.24268
 Alpha  occ. eigenvalues --  -10.24159 -10.24137 -10.23896 -10.23702 -10.21465
 Alpha  occ. eigenvalues --   -3.13568  -1.88280  -1.87806  -1.87742  -1.20256
 Alpha  occ. eigenvalues --   -1.17412  -1.09925  -1.09581  -1.07039  -1.06695
 Alpha  occ. eigenvalues --   -1.04639  -1.04025  -1.03260  -0.91894  -0.91382
 Alpha  occ. eigenvalues --   -0.91079  -0.90845  -0.90740  -0.90071  -0.90041
 Alpha  occ. eigenvalues --   -0.88895  -0.88798  -0.88013  -0.87551  -0.87097
 Alpha  occ. eigenvalues --   -0.85793  -0.84904  -0.83917  -0.83236  -0.82864
 Alpha  occ. eigenvalues --   -0.82264  -0.81010  -0.80480  -0.79946  -0.79483
 Alpha  occ. eigenvalues --   -0.78877  -0.77382  -0.77334  -0.77103  -0.76823
 Alpha  occ. eigenvalues --   -0.76261  -0.74803  -0.74642  -0.74536  -0.73624
 Alpha  occ. eigenvalues --   -0.72290  -0.71096  -0.69782  -0.69210  -0.68331
 Alpha  occ. eigenvalues --   -0.66959  -0.66902  -0.65841  -0.64840  -0.64314
 Alpha  occ. eigenvalues --   -0.64190  -0.63840  -0.63330  -0.63189  -0.62454
 Alpha  occ. eigenvalues --   -0.61412  -0.61132  -0.60684  -0.60457  -0.59541
 Alpha  occ. eigenvalues --   -0.59142  -0.58637  -0.58213  -0.57806  -0.56898
 Alpha  occ. eigenvalues --   -0.56387  -0.55931  -0.55711  -0.55644  -0.55310
 Alpha  occ. eigenvalues --   -0.55233  -0.54320  -0.54138  -0.54130  -0.53772
 Alpha  occ. eigenvalues --   -0.53548  -0.53444  -0.52629  -0.52576  -0.52443
 Alpha  occ. eigenvalues --   -0.52230  -0.51778  -0.51678  -0.51344  -0.51221
 Alpha  occ. eigenvalues --   -0.51050  -0.51033  -0.50803  -0.50270  -0.50035
 Alpha  occ. eigenvalues --   -0.49482  -0.49312  -0.48985  -0.48668  -0.48485
 Alpha  occ. eigenvalues --   -0.48235  -0.48149  -0.47741  -0.47668  -0.47569
 Alpha  occ. eigenvalues --   -0.47309  -0.47161  -0.47033  -0.46777  -0.46322
 Alpha  occ. eigenvalues --   -0.46065  -0.45603  -0.45562  -0.45400  -0.45336
 Alpha  occ. eigenvalues --   -0.44991  -0.44952  -0.44466  -0.44309  -0.44266
 Alpha  occ. eigenvalues --   -0.44198  -0.44011  -0.43810  -0.43595  -0.43230
 Alpha  occ. eigenvalues --   -0.42974  -0.42621  -0.42519  -0.42277  -0.42156
 Alpha  occ. eigenvalues --   -0.42032  -0.41756  -0.41524  -0.41437  -0.41216
 Alpha  occ. eigenvalues --   -0.41110  -0.41015  -0.40659  -0.40392  -0.40155
 Alpha  occ. eigenvalues --   -0.39785  -0.39706  -0.39529  -0.39438  -0.39284
 Alpha  occ. eigenvalues --   -0.39082  -0.38669  -0.38397  -0.38304  -0.38136
 Alpha  occ. eigenvalues --   -0.37977  -0.37446  -0.37357  -0.36768  -0.36700
 Alpha  occ. eigenvalues --   -0.36426  -0.36188  -0.35712  -0.35534  -0.35192
 Alpha  occ. eigenvalues --   -0.34981  -0.34717  -0.33936  -0.33740  -0.33121
 Alpha  occ. eigenvalues --   -0.32926  -0.32516  -0.32154  -0.31018  -0.30862
 Alpha  occ. eigenvalues --   -0.30065  -0.29544  -0.28662  -0.28041  -0.23358
 Alpha  occ. eigenvalues --   -0.21106
 Alpha virt. eigenvalues --   -0.06981  -0.02824   0.02507   0.04569   0.05209
 Alpha virt. eigenvalues --    0.05515   0.06770   0.07033   0.07345   0.07721
 Alpha virt. eigenvalues --    0.08678   0.10443   0.11388   0.11609   0.11676

 Mulliken charges:
               1
     1  Mg   0.827432
     2  C    0.050929
     3  C   -0.240979
     4  C   -0.175901
     5  C   -0.157811
     6  N   -0.624738
     7  C    0.339333
     8  C   -0.171912
     9  C   -0.144985
    10  C    0.349468
    11  C   -0.284483
    12  C   -0.155076
    13  C   -0.288475
    14  C    0.616301
    15  O   -0.525932
    16  O   -0.445276
    17  N   -0.732508
    18  C    0.310305
    19  C    0.023094
    20  C    0.036798
    21  C    0.309755
    22  C   -0.348617
    23  C   -0.080809
    24  C   -0.234162
    25  N   -0.701100
    26  C    0.277734
    27  C    0.071892
    28  C    0.060778
    29  C    0.283954
    30  C   -0.382571
    31  C   -0.277070
    32  C   -0.299799
    33  N   -0.680992
    34  C    0.234260
    35  C   -0.017513
    36  C    0.057655
    37  C    0.256822
    38  C   -0.324027
    39  C    0.348318
    40  O   -0.469687
    41  C   -0.346898
    42  C    0.616931
    43  O   -0.435749
    44  O   -0.468014
    45  C   -0.071484
    46  C    0.011694
    47  C   -0.135406
    48  C    0.091258
    49  C   -0.341981
    50  C   -0.201714
    51  C   -0.177058
    52  C   -0.134396
    53  C   -0.072485
    54  C   -0.316448
    55  C   -0.157026
    56  C   -0.189055
    57  C   -0.178006
    58  C   -0.057747
    59  C   -0.306510
    60  C   -0.169413
    61  C   -0.218170
    62  C   -0.160167
    63  C   -0.082087
    64  C   -0.287978
    65  C   -0.303723
    66  H    0.075054
    67  H    0.086079
    68  H    0.113752
    69  H    0.123770
    70  H    0.103391
    71  H    0.121403
    72  H    0.122660
    73  H    0.107807
    74  H    0.138167
    75  H    0.099055
    76  H    0.128898
    77  H    0.140992
    78  H    0.127748
    79  H    0.137150
    80  H    0.038267
    81  H    0.103167
    82  H    0.079815
    83  H    0.121789
    84  H    0.128266
    85  H    0.112357
    86  H    0.109652
    87  H    0.120235
    88  H    0.086949
    89  H    0.105593
    90  H    0.080295
    91  H    0.105309
    92  H    0.118015
    93  H    0.146802
    94  H    0.099839
    95  H    0.158662
    96  H    0.105083
    97  H    0.120883
    98  H    0.106794
    99  H    0.149896
   100  H    0.111089
   101  H    0.084598
   102  H    0.118850
   103  H    0.123281
   104  H    0.114722
   105  H    0.105356
   106  H    0.083963
   107  H    0.081662
   108  H    0.099240
   109  H    0.026572
   110  H    0.092721
   111  H    0.088882
   112  H    0.104076
   113  H    0.095359
   114  H    0.109008
   115  H    0.107638
   116  H    0.097599
   117  H    0.093035
   118  H    0.075272
   119  H    0.099103
   120  H    0.080599
   121  H    0.086907
   122  H    0.064561
   123  H    0.117431
   124  H    0.115154
   125  H    0.065928
   126  H    0.100488
   127  H    0.085759
   128  H    0.088403
   129  H    0.084427
   130  H    0.102689
   131  H    0.068559
   132  H    0.106679
   133  H    0.096572
   134  H    0.114050
   135  H    0.097097
   136  H    0.087780
   137  H    0.102526
 Sum of Mulliken charges =   0.00000

 Dipole moment (field-independent basis, Debye):
    X=              1.9905    Y=              5.5218    Z=              0.1244  Tot=              5.8709
 Quadrupole moment (field-independent basis, Debye-Ang):
   XX=           -326.6823   YY=           -393.5379   ZZ=           -399.2683
   XY=            -26.7530   XZ=             14.1728   YZ=             -0.7689

 Normal termination of Gaussian 09 at Sat Jul  6 22:10:13 2019.
