 Gaussian 16, Revision A.03,
 Gaussian 16:  ES64L-G16RevA.03 25-Dec-2016

 ----------------------------------------------------------------------
 # td=(NStates=1) iop(3/107=0140000000,3/108=0140000000) CAM-B3LYP/6-31
 G(d,p)
 ----------------------------------------------------------------------

 --
 TD
 --
 Symbolic Z-matrix:
 Charge =  0 Multiplicity = 1

                         Standard orientation:
 ---------------------------------------------------------------------
 Center     Atomic      Atomic             Coordinates (Angstroms)
 Number     Number       Type             X           Y           Z
 ---------------------------------------------------------------------
      1         12           0       -7.112657    0.624232    0.116933
      2          6           0       -4.738509   -1.948479    0.413574
      3          6           0       -4.711272    2.825330    1.147430
      4          6           0       -9.453511    3.117022   -0.351378
      5          6           0       -9.497926   -1.777431   -0.837781
      6          7           0       -5.113384    0.421849    0.742554
      7          6           0       -4.314410   -0.734193    0.866829
      8          6           0       -2.895532   -0.386901    1.150060
      9          6           0       -3.060033    1.052623    1.849490
     10          6           0       -4.381740    1.413407    1.215880
     11          6           0       -2.989352    1.031872    3.357398
     12          6           0       -1.933370   -0.462762   -0.075565
     13          6           0       -0.562354   -0.384520    0.493597
     14          6           0        0.509216   -0.555815   -0.622363
     15          8           0        0.267580   -1.048958   -1.763154
     16          8           0        1.781446   -0.350504   -0.231196
     17          7           0       -7.040474    2.641040    0.233935
     18          6           0       -6.079792    3.342620    0.762937
     19          6           0       -6.374504    4.749275    0.783451
     20          6           0       -7.736519    4.832493    0.320033
     21          6           0       -8.064955    3.417797    0.073368
     22          6           0       -5.490279    5.846702    1.221498
     23          6           0       -8.589277    6.025618    0.134576
     24          6           0       -8.522813    7.141703    0.835000
     25          7           0       -9.044925    0.677256   -0.508251
     26          6           0       -9.846386    1.854219   -0.687880
     27          6           0      -11.188479    1.480731   -1.175515
     28          6           0      -11.173599    0.093844   -1.152435
     29          6           0       -9.863956   -0.382018   -0.870021
     30          6           0      -12.199024    2.485142   -1.505525
     31          6           0      -12.355930   -0.794047   -1.674399
     32          6           0      -12.266842   -1.110838   -3.153644
     33          7           0       -7.248323   -1.361706   -0.037769
     34          6           0       -8.292336   -2.212321   -0.445228
     35          6           0       -7.840366   -3.633876   -0.463865
     36          6           0       -6.538866   -3.514926   -0.210443
     37          6           0       -6.157546   -2.217497    0.076804
     38          6           0       -8.588562   -4.882126   -0.969536
     39          6           0       -5.324073   -4.327171    0.136868
     40          8           0       -5.259522   -5.619501    0.000597
     41          6           0       -4.116961   -3.338338    0.491370
     42          6           0       -3.655685   -3.749519    1.875598
     43          8           0       -3.839493   -3.271550    2.981022
     44          8           0       -2.793678   -4.827510    1.750984
     45          6           0       -2.127980   -5.367363    2.960115
     46          6           0        2.750186   -0.365249   -1.362663
     47          6           0        4.123185   -0.316850   -0.697629
     48          6           0        5.180588    0.458847   -1.004944
     49          6           0        5.098367    1.576054   -2.080654
     50          6           0        6.361687    0.403795   -0.186229
     51          6           0        7.726786   -0.063031   -0.826937
     52          6           0        8.938170   -0.184276    0.056967
     53          6           0       10.165907   -0.506822   -0.836007
     54          6           0       10.189384   -1.962362   -1.304949
     55          6           0       11.403211   -0.184561    0.003269
     56          6           0       12.708919   -0.412680   -0.708284
     57          6           0       13.925432   -0.149529    0.052108
     58          6           0       15.268717   -0.266770   -0.572306
     59          6           0       15.658092   -1.637834   -1.042957
     60          6           0       16.367048    0.383526    0.379613
     61          6           0       17.832122    0.536854   -0.187337
     62          6           0       18.751301    1.272934    0.783189
     63          6           0       20.209304    1.235032    0.279811
     64          6           0       20.452098    1.951887   -1.068284
     65          6           0       21.061932    1.851919    1.337192
     66          1           0       -4.109073    3.524271    1.476272
     67          1           0      -10.131928    3.950774   -0.400400
     68          1           0      -10.349520   -2.571752   -1.438583
     69          1           0       -2.515907   -1.209016    1.850433
     70          1           0       -2.243604    1.798250    1.398835
     71          1           0       -1.870720    0.722467    3.739922
     72          1           0       -3.221768    1.989679    3.808766
     73          1           0       -3.718597    0.395541    3.814361
     74          1           0       -2.183248   -1.290301   -0.624821
     75          1           0       -2.129340    0.410688   -0.755601
     76          1           0       -0.484738    0.518665    0.977899
     77          1           0       -0.197351   -1.098664    1.145280
     78          1           0       -5.561732    6.753307    0.469287
     79          1           0       -5.666716    6.030511    2.365010
     80          1           0       -4.476340    5.463474    1.071494
     81          1           0       -9.281386    5.730996   -0.778459
     82          1           0       -9.131117    7.758725    0.347672
     83          1           0       -7.718863    7.609422    1.425950
     84          1           0      -12.028397    2.976488   -2.519467
     85          1           0      -13.352839    1.923506   -1.442140
     86          1           0      -12.210804    3.265096   -0.625304
     87          1           0      -12.169898   -1.595357   -1.005406
     88          1           0      -13.328910   -0.346902   -1.152694
     89          1           0      -13.153014   -1.705540   -3.611845
     90          1           0      -11.954845   -0.422909   -3.947652
     91          1           0      -11.382547   -1.886211   -3.028203
     92          1           0       -8.710343   -4.809332   -2.049699
     93          1           0       -7.953745   -5.784006   -0.791864
     94          1           0       -9.533513   -4.741151   -0.470318
     95          1           0       -3.130841   -3.379332   -0.159587
     96          1           0       -1.855505   -4.282372    3.612413
     97          1           0       -3.028196   -5.719051    3.481163
     98          1           0       -1.359502   -5.982824    2.743192
     99          1           0        2.494855   -1.203543   -1.701675
    100          1           0        2.637588    0.453921   -2.050127
    101          1           0        4.214619   -1.109764    0.213751
    102          1           0        4.204673    1.580186   -2.330637
    103          1           0        5.441828    2.519315   -1.726976
    104          1           0        5.667556    1.338473   -3.089255
    105          1           0        6.921368    1.485441    0.135110
    106          1           0        6.178988   -0.280081    0.654175
    107          1           0        7.539082   -1.084786   -1.456871
    108          1           0        7.765531    0.696144   -1.584904
    109          1           0        9.029509    0.793416    0.488322
    110          1           0        8.767923   -0.797774    0.852275
    111          1           0       10.200203    0.150665   -1.629696
    112          1           0        9.259799   -2.110214   -1.807582
    113          1           0       10.965172   -2.167153   -1.955165
    114          1           0       10.405149   -2.493912   -0.504435
    115          1           0       11.479032    0.949057    0.383185
    116          1           0       11.358429   -0.907593    0.897670
    117          1           0       12.537226   -1.544072   -0.841503
    118          1           0       12.600761    0.036974   -1.596507
    119          1           0       13.849381    0.743640    0.541877
    120          1           0       13.787095   -0.890619    0.918018
    121          1           0       15.145189    0.339412   -1.342898
    122          1           0       15.748929   -2.246900   -0.077632
    123          1           0       14.850304   -2.080130   -1.731554
    124          1           0       16.600107   -1.522244   -1.489461
    125          1           0       16.044826    1.332195    1.029228
    126          1           0       16.271229   -0.410616    1.309622
    127          1           0       18.182615   -0.440389   -0.449187
    128          1           0       17.654140    1.275583   -1.000741
    129          1           0       18.254102    2.173178    0.985978
    130          1           0       18.745559    0.590665    1.642626
    131          1           0       20.530030    0.035522    0.092510
    132          1           0       19.842159    2.891967   -0.821344
    133          1           0       21.482838    2.157524   -1.203674
    134          1           0       19.935400    1.398024   -1.859754
    135          1           0       21.261337    1.071029    2.221823
    136          1           0       22.233407    1.847138    0.984442
    137          1           0       20.794385    2.930663    1.752961
 ---------------------------------------------------------------------

 SCF Done:  E(RCAM-B3LYP) =  -2933.42359128     A.U. after   16 cycles

 Excitation energies and oscillator strengths:

 Excited State   1:      Singlet-A      1.8946 eV  654.40 nm  f=0.2651  <S**2>=0.000
     240 -> 243       -0.18066
     241 -> 242        0.67795
 This state for optimization and/or second-order correction.
 Total Energy, E(TD-HF/TD-DFT) =  -2933.35396480
 Copying the excited state density for this state as the 1-particle RhoCI density.

 The electronic state is 1-A.
 Alpha  occ. eigenvalues --  -46.79562 -19.22045 -19.20519 -19.17057 -19.16690
 Alpha  occ. eigenvalues --  -19.16093 -14.37979 -14.35832 -14.35240 -14.35204
 Alpha  occ. eigenvalues --  -10.34863 -10.34790 -10.31993 -10.27571 -10.26596
 Alpha  occ. eigenvalues --  -10.26579 -10.26465 -10.26369 -10.25326 -10.25265
 Alpha  occ. eigenvalues --  -10.25089 -10.24995 -10.24917 -10.24912 -10.24815
 Alpha  occ. eigenvalues --  -10.24438 -10.24333 -10.23981 -10.23755 -10.23680
 Alpha  occ. eigenvalues --  -10.23557 -10.23474 -10.23245 -10.23122 -10.22982
 Alpha  occ. eigenvalues --  -10.22903 -10.22864 -10.22813 -10.22792 -10.22724
 Alpha  occ. eigenvalues --  -10.22705 -10.22621 -10.22494 -10.22404 -10.22135
 Alpha  occ. eigenvalues --  -10.21911 -10.21666 -10.21648 -10.21612 -10.21570
 Alpha  occ. eigenvalues --  -10.21387 -10.21343 -10.21148 -10.21048 -10.20932
 Alpha  occ. eigenvalues --  -10.20928 -10.20455 -10.20377 -10.20253 -10.20216
 Alpha  occ. eigenvalues --  -10.20078 -10.19960 -10.19157 -10.19048 -10.18238
 Alpha  occ. eigenvalues --   -3.08325  -1.83257  -1.82786  -1.82757  -1.12094
 Alpha  occ. eigenvalues --   -1.11272  -1.02784  -1.01981  -1.01560  -1.01349
 Alpha  occ. eigenvalues --   -0.99601  -0.98130  -0.95971  -0.87530  -0.86924
 Alpha  occ. eigenvalues --   -0.86222  -0.85769  -0.84958  -0.84007  -0.83639
 Alpha  occ. eigenvalues --   -0.83250  -0.82953  -0.82585  -0.81811  -0.81309
 Alpha  occ. eigenvalues --   -0.80578  -0.79588  -0.79195  -0.78644  -0.77988
 Alpha  occ. eigenvalues --   -0.77432  -0.76448  -0.75931  -0.75721  -0.73896
 Alpha  occ. eigenvalues --   -0.73473  -0.72973  -0.71863  -0.71483  -0.71267
 Alpha  occ. eigenvalues --   -0.70338  -0.70016  -0.69689  -0.68755  -0.68297
 Alpha  occ. eigenvalues --   -0.67344  -0.66262  -0.64930  -0.64834  -0.63889
 Alpha  occ. eigenvalues --   -0.63332  -0.61535  -0.60784  -0.60726  -0.59911
 Alpha  occ. eigenvalues --   -0.59831  -0.59424  -0.59346  -0.58533  -0.57228
 Alpha  occ. eigenvalues --   -0.57052  -0.56394  -0.55326  -0.55086  -0.54883
 Alpha  occ. eigenvalues --   -0.54029  -0.53957  -0.53595  -0.53049  -0.52811
 Alpha  occ. eigenvalues --   -0.52175  -0.52062  -0.51470  -0.51165  -0.51050
 Alpha  occ. eigenvalues --   -0.50869  -0.50625  -0.50008  -0.49775  -0.49554
 Alpha  occ. eigenvalues --   -0.48755  -0.48676  -0.48332  -0.48132  -0.47821
 Alpha  occ. eigenvalues --   -0.47709  -0.47598  -0.47540  -0.47386  -0.47106
 Alpha  occ. eigenvalues --   -0.46787  -0.46714  -0.46692  -0.46292  -0.45980
 Alpha  occ. eigenvalues --   -0.45927  -0.45497  -0.45419  -0.45203  -0.44984
 Alpha  occ. eigenvalues --   -0.44861  -0.44732  -0.44423  -0.44122  -0.43723
 Alpha  occ. eigenvalues --   -0.43560  -0.43452  -0.43241  -0.43078  -0.42994
 Alpha  occ. eigenvalues --   -0.42666  -0.42592  -0.42367  -0.42240  -0.41974
 Alpha  occ. eigenvalues --   -0.41862  -0.41498  -0.41349  -0.41027  -0.40702
 Alpha  occ. eigenvalues --   -0.40623  -0.40598  -0.40222  -0.40115  -0.39928
 Alpha  occ. eigenvalues --   -0.39825  -0.39797  -0.39467  -0.39147  -0.38910
 Alpha  occ. eigenvalues --   -0.38848  -0.38544  -0.38446  -0.38435  -0.38058
 Alpha  occ. eigenvalues --   -0.37827  -0.37752  -0.37625  -0.36990  -0.36701
 Alpha  occ. eigenvalues --   -0.36480  -0.36085  -0.35857  -0.35736  -0.35684
 Alpha  occ. eigenvalues --   -0.35418  -0.35299  -0.35197  -0.34715  -0.34572
 Alpha  occ. eigenvalues --   -0.34379  -0.34309  -0.34012  -0.33672  -0.33662
 Alpha  occ. eigenvalues --   -0.33089  -0.33054  -0.32640  -0.32495  -0.32264
 Alpha  occ. eigenvalues --   -0.32072  -0.31408  -0.31369  -0.31144  -0.30383
 Alpha  occ. eigenvalues --   -0.30303  -0.29732  -0.29400  -0.28663  -0.27516
 Alpha  occ. eigenvalues --   -0.27062  -0.26762  -0.25680  -0.24848  -0.22219
 Alpha  occ. eigenvalues --   -0.19504
 Alpha virt. eigenvalues --   -0.07542  -0.04039  -0.01306   0.02064   0.02657
 Alpha virt. eigenvalues --    0.03474   0.03832   0.04095   0.04531   0.05312
 Alpha virt. eigenvalues --    0.05912   0.07219   0.08746   0.08968   0.09681

 Mulliken charges:
               1
     1  Mg   0.807255
     2  C    0.042518
     3  C   -0.162344
     4  C   -0.171849
     5  C   -0.186093
     6  N   -0.607749
     7  C    0.295422
     8  C   -0.175718
     9  C   -0.137790
    10  C    0.346765
    11  C   -0.300229
    12  C   -0.152916
    13  C   -0.242739
    14  C    0.575160
    15  O   -0.501387
    16  O   -0.483644
    17  N   -0.671929
    18  C    0.285603
    19  C    0.004510
    20  C    0.002435
    21  C    0.292462
    22  C   -0.381199
    23  C   -0.089150
    24  C   -0.239513
    25  N   -0.695885
    26  C    0.292435
    27  C    0.091670
    28  C   -0.048694
    29  C    0.327011
    30  C   -0.381280
    31  C   -0.232763
    32  C   -0.287392
    33  N   -0.717053
    34  C    0.283913
    35  C   -0.004751
    36  C    0.041345
    37  C    0.280123
    38  C   -0.363798
    39  C    0.369868
    40  O   -0.486076
    41  C   -0.302009
    42  C    0.609843
    43  O   -0.471108
    44  O   -0.472837
    45  C   -0.067397
    46  C    0.044409
    47  C   -0.156985
    48  C    0.163118
    49  C   -0.343002
    50  C   -0.237452
    51  C   -0.187862
    52  C   -0.152519
    53  C   -0.057337
    54  C   -0.313535
    55  C   -0.181312
    56  C   -0.169077
    57  C   -0.152532
    58  C   -0.046081
    59  C   -0.301499
    60  C   -0.188196
    61  C   -0.183780
    62  C   -0.160161
    63  C   -0.043695
    64  C   -0.292465
    65  C   -0.289502
    66  H    0.050069
    67  H    0.085565
    68  H    0.086277
    69  H    0.104051
    70  H    0.089228
    71  H    0.089649
    72  H    0.115183
    73  H    0.137593
    74  H    0.129256
    75  H    0.113793
    76  H    0.136234
    77  H    0.148174
    78  H    0.114237
    79  H    0.119774
    80  H    0.113563
    81  H    0.089545
    82  H    0.103014
    83  H    0.114314
    84  H    0.130733
    85  H    0.084917
    86  H    0.115130
    87  H    0.118250
    88  H    0.082585
    89  H    0.099480
    90  H    0.126128
    91  H    0.087335
    92  H    0.136629
    93  H    0.154296
    94  H    0.127035
    95  H    0.164624
    96  H    0.096663
    97  H    0.146432
    98  H    0.139827
    99  H    0.140823
   100  H    0.123021
   101  H    0.081626
   102  H    0.108946
   103  H    0.125039
   104  H    0.102947
   105  H    0.066932
   106  H    0.092532
   107  H    0.061034
   108  H    0.098845
   109  H    0.091325
   110  H    0.102356
   111  H    0.089122
   112  H    0.104495
   113  H    0.113463
   114  H    0.112402
   115  H    0.057474
   116  H    0.071898
   117  H    0.076702
   118  H    0.089503
   119  H    0.089977
   120  H    0.063220
   121  H    0.091553
   122  H    0.091506
   123  H    0.099027
   124  H    0.110249
   125  H    0.070422
   126  H    0.051474
   127  H    0.102770
   128  H    0.095728
   129  H    0.097668
   130  H    0.099806
   131  H    0.052939
   132  H    0.086557
   133  H    0.110887
   134  H    0.107851
   135  H    0.089281
   136  H    0.066856
   137  H    0.098581
 Sum of Mulliken charges =  -0.00000

 Dipole moment (field-independent basis, Debye):
    X=              2.0123    Y=              4.5298    Z=             -0.2908  Tot=              4.9652
 Quadrupole moment (field-independent basis, Debye-Ang):
   XX=           -362.9006   YY=           -398.4891   ZZ=           -396.9994
   XY=            -13.4880   XZ=              9.8023   YZ=             -4.1624

 Normal termination of Gaussian 16 at Thu Sep 12 05:39:56 2019.
