 Gaussian 16, Revision A.03,
 Gaussian 16:  ES64L-G16RevA.03 25-Dec-2016

 ----------------------------------------------------------------------
 # td=(NStates=1) iop(3/107=0140000000,3/108=0140000000) CAM-B3LYP/6-31
 G(d,p)
 ----------------------------------------------------------------------

 --
 TD
 --
 Symbolic Z-matrix:
 Charge =  0 Multiplicity = 1

                         Standard orientation:
 ---------------------------------------------------------------------
 Center     Atomic      Atomic             Coordinates (Angstroms)
 Number     Number       Type             X           Y           Z
 ---------------------------------------------------------------------
      1         12           0       -7.115265    0.600717    0.123936
      2          6           0       -4.877384   -1.983607    0.474825
      3          6           0       -4.819958    2.846145    1.320647
      4          6           0       -9.417829    3.066818   -0.369137
      5          6           0       -9.597844   -1.676502   -0.757976
      6          7           0       -5.199709    0.404679    0.918965
      7          6           0       -4.386146   -0.710251    0.762237
      8          6           0       -2.987157   -0.375478    1.249431
      9          6           0       -3.139636    1.025936    1.826506
     10          6           0       -4.444700    1.486330    1.338654
     11          6           0       -3.026591    1.000813    3.325875
     12          6           0       -1.946159   -0.559316   -0.006183
     13          6           0       -0.501030   -0.479708    0.498327
     14          6           0        0.468562   -0.567306   -0.693414
     15          8           0        0.191850   -0.758472   -1.813769
     16          8           0        1.757846   -0.211313   -0.242807
     17          7           0       -7.104199    2.593692    0.367116
     18          6           0       -6.097299    3.385878    0.878230
     19          6           0       -6.416002    4.759749    0.918062
     20          6           0       -7.655084    4.844064    0.405063
     21          6           0       -8.176385    3.443034    0.092444
     22          6           0       -5.539019    5.892616    1.252610
     23          6           0       -8.467512    5.964319    0.082327
     24          6           0       -8.414880    7.093620    0.811852
     25          7           0       -9.118513    0.723904   -0.566799
     26          6           0       -9.796785    1.767478   -0.738582
     27          6           0      -11.155713    1.548756   -1.281392
     28          6           0      -11.231117    0.183970   -1.312071
     29          6           0       -9.936799   -0.296507   -0.852915
     30          6           0      -12.313129    2.528019   -1.545585
     31          6           0      -12.430529   -0.602139   -1.775669
     32          6           0      -12.289878   -1.096405   -3.254179
     33          7           0       -7.259847   -1.443967   -0.048893
     34          6           0       -8.336082   -2.153446   -0.429078
     35          6           0       -7.864467   -3.577023   -0.451924
     36          6           0       -6.521184   -3.590740   -0.123801
     37          6           0       -6.170722   -2.228385    0.081588
     38          6           0       -8.821654   -4.746093   -0.736012
     39          6           0       -5.298971   -4.396569    0.150516
     40          8           0       -4.979057   -5.582527    0.057120
     41          6           0       -4.095734   -3.326587    0.517079
     42          6           0       -3.475882   -3.772175    1.835711
     43          8           0       -3.770543   -3.159325    2.879687
     44          8           0       -2.738534   -4.835696    1.668002
     45          6           0       -2.284888   -5.520372    2.893019
     46          6           0        2.777039   -0.503320   -1.232709
     47          6           0        4.147181   -0.329601   -0.625564
     48          6           0        5.131657    0.450176   -1.053024
     49          6           0        5.222441    1.229986   -2.333979
     50          6           0        6.460269    0.371916   -0.289378
     51          6           0        7.556221   -0.393128   -1.010563
     52          6           0        8.890218   -0.177776   -0.285276
     53          6           0       10.219818   -0.692601   -0.887400
     54          6           0       10.201612   -2.078383   -1.250346
     55          6           0       11.351152   -0.273266   -0.017832
     56          6           0       12.751556   -0.542463   -0.705223
     57          6           0       13.906730   -0.009586    0.134810
     58          6           0       15.342381   -0.134977   -0.533346
     59          6           0       15.865828   -1.598409   -0.834140
     60          6           0       16.466796    0.441399    0.421925
     61          6           0       17.872175    0.635757   -0.166550
     62          6           0       18.781637    1.345242    0.734700
     63          6           0       20.279711    1.340188    0.298685
     64          6           0       20.428694    2.219230   -1.003636
     65          6           0       21.241403    1.792623    1.421221
     66          1           0       -4.144628    3.543707    1.946750
     67          1           0      -10.133128    3.961355   -0.572569
     68          1           0      -10.341606   -2.663932   -1.035328
     69          1           0       -2.898387   -1.019968    2.107055
     70          1           0       -2.365955    1.683157    1.440176
     71          1           0       -2.143400    0.781499    3.819596
     72          1           0       -3.274058    2.032868    3.829953
     73          1           0       -3.619026    0.344959    3.822284
     74          1           0       -2.236561   -1.665779   -0.584465
     75          1           0       -2.045287    0.307376   -0.675077
     76          1           0       -0.257016    0.362327    1.016536
     77          1           0       -0.058783   -1.301807    1.230089
     78          1           0       -5.592874    6.722252    0.420118
     79          1           0       -5.731547    6.491014    2.101204
     80          1           0       -4.459733    5.702141    1.263056
     81          1           0       -9.249147    6.026899   -0.816412
     82          1           0       -8.822964    7.995056    0.415475
     83          1           0       -7.659446    7.226588    1.722155
     84          1           0      -11.894359    3.451963   -2.003310
     85          1           0      -13.129853    1.993842   -2.463246
     86          1           0      -12.713947    2.868728   -0.405638
     87          1           0      -12.591181   -1.515803   -1.122170
     88          1           0      -13.251043    0.013069   -1.792998
     89          1           0      -13.199329   -1.809577   -3.619431
     90          1           0      -12.244893   -0.254908   -3.881718
     91          1           0      -11.343674   -1.702003   -3.609465
     92          1           0       -9.156126   -4.733321   -1.803098
     93          1           0       -8.103535   -5.484337   -0.744887
     94          1           0       -9.617806   -5.083548    0.009076
     95          1           0       -3.238341   -3.632731   -0.285206
     96          1           0       -1.359701   -4.855400    3.383625
     97          1           0       -3.275169   -5.618402    3.455193
     98          1           0       -1.938970   -6.429972    2.727516
     99          1           0        2.654186   -1.504633   -1.765546
    100          1           0        2.866362    0.143108   -2.210408
    101          1           0        4.211368   -0.986210    0.315225
    102          1           0        4.499775    1.434086   -2.803857
    103          1           0        5.705323    2.171187   -2.060640
    104          1           0        5.798913    0.526706   -2.877909
    105          1           0        6.900131    1.369080   -0.072446
    106          1           0        6.174113   -0.201211    0.629936
    107          1           0        7.252652   -1.404804   -1.172727
    108          1           0        7.728177    0.190945   -2.042643
    109          1           0        9.031599    0.852698   -0.306817
    110          1           0        8.755922   -0.674477    0.767308
    111          1           0       10.269516    0.013317   -1.767380
    112          1           0        9.160229   -2.621536   -1.666863
    113          1           0       11.071966   -2.259554   -2.064105
    114          1           0       10.310397   -2.857277   -0.335102
    115          1           0       11.379526    0.785985    0.385152
    116          1           0       11.274098   -0.890392    0.988727
    117          1           0       13.005387   -1.540369   -0.931719
    118          1           0       12.638518   -0.136774   -1.798618
    119          1           0       13.768589    0.943899    0.495709
    120          1           0       14.017633   -0.599010    1.041741
    121          1           0       15.469168    0.421841   -1.455413
    122          1           0       16.044751   -2.253641    0.249135
    123          1           0       15.077385   -2.101841   -1.518724
    124          1           0       16.935596   -1.528150   -1.337715
    125          1           0       16.122664    1.476908    1.014028
    126          1           0       16.714378   -0.104512    1.404715
    127          1           0       18.127524   -0.340459   -0.225702
    128          1           0       17.831705    1.156403   -1.049910
    129          1           0       18.490665    2.414100    0.606372
    130          1           0       18.737488    0.742767    1.744210
    131          1           0       20.634886    0.343857    0.086226
    132          1           0       20.109200    3.240321   -0.799169
    133          1           0       21.253641    2.020916   -1.556343
    134          1           0       19.812771    1.815009   -1.764265
    135          1           0       21.189663    1.006863    2.306782
    136          1           0       22.115133    1.957890    0.863435
    137          1           0       20.843430    2.829884    1.807900
 ---------------------------------------------------------------------

 SCF Done:  E(RCAM-B3LYP) =  -2933.46730376     A.U. after   16 cycles

 Excitation energies and oscillator strengths:

 Excited State   1:      Singlet-A      2.0306 eV  610.58 nm  f=0.2672  <S**2>=0.000
     240 -> 243        0.24068
     241 -> 242        0.66101
 This state for optimization and/or second-order correction.
 Total Energy, E(TD-HF/TD-DFT) =  -2933.39268019
 Copying the excited state density for this state as the 1-particle RhoCI density.

 The electronic state is 1-A.
 Alpha  occ. eigenvalues --  -46.79943 -19.23276 -19.21437 -19.17733 -19.16421
 Alpha  occ. eigenvalues --  -19.15564 -14.37160 -14.35424 -14.35306 -14.34808
 Alpha  occ. eigenvalues --  -10.34302 -10.34241 -10.31349 -10.28607 -10.27420
 Alpha  occ. eigenvalues --  -10.25947 -10.25932 -10.25880 -10.25728 -10.24958
 Alpha  occ. eigenvalues --  -10.24828 -10.24827 -10.24645 -10.24358 -10.24286
 Alpha  occ. eigenvalues --  -10.24185 -10.24148 -10.24134 -10.23545 -10.23441
 Alpha  occ. eigenvalues --  -10.23280 -10.23249 -10.22745 -10.22576 -10.22512
 Alpha  occ. eigenvalues --  -10.22504 -10.22463 -10.22460 -10.22407 -10.22405
 Alpha  occ. eigenvalues --  -10.22206 -10.22179 -10.22114 -10.22031 -10.21926
 Alpha  occ. eigenvalues --  -10.21864 -10.21778 -10.21720 -10.21635 -10.21588
 Alpha  occ. eigenvalues --  -10.21560 -10.21467 -10.21411 -10.21343 -10.21193
 Alpha  occ. eigenvalues --  -10.21157 -10.21091 -10.20928 -10.20823 -10.20813
 Alpha  occ. eigenvalues --  -10.20405 -10.20061 -10.19114 -10.19038 -10.18201
 Alpha  occ. eigenvalues --   -3.08535  -1.83487  -1.83005  -1.82933  -1.13596
 Alpha  occ. eigenvalues --   -1.12892  -1.05229  -1.05103  -1.02842  -1.01838
 Alpha  occ. eigenvalues --   -0.99118  -0.97984  -0.97191  -0.86639  -0.86570
 Alpha  occ. eigenvalues --   -0.85377  -0.84942  -0.84800  -0.84091  -0.83736
 Alpha  occ. eigenvalues --   -0.82934  -0.82485  -0.82245  -0.81313  -0.80831
 Alpha  occ. eigenvalues --   -0.80022  -0.79097  -0.78674  -0.78571  -0.77172
 Alpha  occ. eigenvalues --   -0.76914  -0.76412  -0.75393  -0.75289  -0.73540
 Alpha  occ. eigenvalues --   -0.72988  -0.72232  -0.71817  -0.71626  -0.71417
 Alpha  occ. eigenvalues --   -0.70263  -0.69797  -0.68423  -0.68072  -0.67431
 Alpha  occ. eigenvalues --   -0.67305  -0.65760  -0.65315  -0.64268  -0.63793
 Alpha  occ. eigenvalues --   -0.62459  -0.61471  -0.60700  -0.60456  -0.60336
 Alpha  occ. eigenvalues --   -0.59814  -0.58290  -0.58181  -0.57791  -0.57775
 Alpha  occ. eigenvalues --   -0.57301  -0.56235  -0.55742  -0.55185  -0.54958
 Alpha  occ. eigenvalues --   -0.54346  -0.53889  -0.53547  -0.52864  -0.52238
 Alpha  occ. eigenvalues --   -0.51996  -0.51660  -0.51538  -0.51430  -0.51176
 Alpha  occ. eigenvalues --   -0.50727  -0.50501  -0.50323  -0.49811  -0.49131
 Alpha  occ. eigenvalues --   -0.49076  -0.48861  -0.48759  -0.47831  -0.47692
 Alpha  occ. eigenvalues --   -0.47598  -0.47375  -0.47269  -0.46835  -0.46618
 Alpha  occ. eigenvalues --   -0.46305  -0.46206  -0.45978  -0.45923  -0.45486
 Alpha  occ. eigenvalues --   -0.45310  -0.45102  -0.44810  -0.44665  -0.44449
 Alpha  occ. eigenvalues --   -0.44266  -0.44058  -0.43743  -0.43664  -0.43442
 Alpha  occ. eigenvalues --   -0.42987  -0.42755  -0.42442  -0.41984  -0.41961
 Alpha  occ. eigenvalues --   -0.41869  -0.41809  -0.41728  -0.41333  -0.41262
 Alpha  occ. eigenvalues --   -0.41065  -0.40872  -0.40713  -0.40528  -0.40430
 Alpha  occ. eigenvalues --   -0.40366  -0.40242  -0.39847  -0.39743  -0.39485
 Alpha  occ. eigenvalues --   -0.39421  -0.39294  -0.39148  -0.38936  -0.38819
 Alpha  occ. eigenvalues --   -0.38571  -0.38488  -0.38362  -0.38160  -0.37779
 Alpha  occ. eigenvalues --   -0.37610  -0.37553  -0.37320  -0.37171  -0.37008
 Alpha  occ. eigenvalues --   -0.36999  -0.36990  -0.36667  -0.36237  -0.36005
 Alpha  occ. eigenvalues --   -0.35959  -0.35788  -0.35483  -0.34785  -0.34722
 Alpha  occ. eigenvalues --   -0.34398  -0.34087  -0.33938  -0.33413  -0.33366
 Alpha  occ. eigenvalues --   -0.33190  -0.33133  -0.32891  -0.32668  -0.32004
 Alpha  occ. eigenvalues --   -0.31784  -0.31604  -0.31525  -0.30909  -0.30558
 Alpha  occ. eigenvalues --   -0.30146  -0.29874  -0.28969  -0.28166  -0.27211
 Alpha  occ. eigenvalues --   -0.26865  -0.26458  -0.26211  -0.25491  -0.21668
 Alpha  occ. eigenvalues --   -0.19484
 Alpha virt. eigenvalues --   -0.06565  -0.03894  -0.00300   0.02312   0.03972
 Alpha virt. eigenvalues --    0.04536   0.04806   0.05331   0.05444   0.05740
 Alpha virt. eigenvalues --    0.06521   0.07081   0.09004   0.09538   0.09617

 Mulliken charges:
               1
     1  Mg   0.816585
     2  C    0.124912
     3  C   -0.203616
     4  C   -0.178756
     5  C   -0.174949
     6  N   -0.633287
     7  C    0.255932
     8  C   -0.164290
     9  C   -0.143305
    10  C    0.350240
    11  C   -0.326892
    12  C   -0.162863
    13  C   -0.258560
    14  C    0.598015
    15  O   -0.423170
    16  O   -0.486489
    17  N   -0.723111
    18  C    0.292172
    19  C    0.099596
    20  C    0.012506
    21  C    0.301616
    22  C   -0.407199
    23  C   -0.104860
    24  C   -0.232452
    25  N   -0.648860
    26  C    0.320272
    27  C    0.022122
    28  C    0.041710
    29  C    0.259693
    30  C   -0.351325
    31  C   -0.229401
    32  C   -0.308725
    33  N   -0.747820
    34  C    0.339613
    35  C   -0.084842
    36  C    0.098825
    37  C    0.263423
    38  C   -0.391731
    39  C    0.347709
    40  O   -0.461392
    41  C   -0.326441
    42  C    0.631541
    43  O   -0.504004
    44  O   -0.424045
    45  C   -0.074947
    46  C    0.006813
    47  C   -0.137688
    48  C    0.102099
    49  C   -0.317729
    50  C   -0.213398
    51  C   -0.170963
    52  C   -0.157035
    53  C   -0.041024
    54  C   -0.286940
    55  C   -0.157440
    56  C   -0.180698
    57  C   -0.172986
    58  C   -0.058994
    59  C   -0.294445
    60  C   -0.178446
    61  C   -0.154434
    62  C   -0.156832
    63  C   -0.063924
    64  C   -0.334646
    65  C   -0.286648
    66  H    0.083647
    67  H    0.079361
    68  H    0.097518
    69  H    0.141003
    70  H    0.100723
    71  H    0.117936
    72  H    0.083167
    73  H    0.139955
    74  H    0.100292
    75  H    0.126027
    76  H    0.148702
    77  H    0.120856
    78  H    0.114864
    79  H    0.133893
    80  H    0.114703
    81  H    0.093838
    82  H    0.099790
    83  H    0.086797
    84  H    0.122769
    85  H    0.086051
    86  H    0.112824
    87  H    0.100945
    88  H    0.110390
    89  H    0.078642
    90  H    0.116280
    91  H    0.096756
    92  H    0.123087
    93  H    0.147455
    94  H    0.127215
    95  H    0.135710
    96  H    0.110205
    97  H    0.141311
    98  H    0.145415
    99  H    0.114222
   100  H    0.087489
   101  H    0.074086
   102  H    0.106110
   103  H    0.107441
   104  H    0.134787
   105  H    0.088747
   106  H    0.096401
   107  H    0.099912
   108  H    0.066715
   109  H    0.094641
   110  H    0.068554
   111  H    0.079685
   112  H    0.081684
   113  H    0.089671
   114  H    0.085913
   115  H    0.090949
   116  H    0.071883
   117  H    0.108382
   118  H    0.070114
   119  H    0.100603
   120  H    0.100312
   121  H    0.094393
   122  H    0.071222
   123  H    0.092045
   124  H    0.102403
   125  H    0.037171
   126  H    0.073066
   127  H    0.103323
   128  H    0.094471
   129  H    0.085723
   130  H    0.066783
   131  H    0.080654
   132  H    0.107199
   133  H    0.105962
   134  H    0.104307
   135  H    0.089380
   136  H    0.110824
   137  H    0.080853
 Sum of Mulliken charges =  -0.00000

 Dipole moment (field-independent basis, Debye):
    X=              1.7463    Y=              2.9586    Z=             -0.2098  Tot=              3.4419
 Quadrupole moment (field-independent basis, Debye-Ang):
   XX=           -361.4748   YY=           -383.7945   ZZ=           -396.6794
   XY=            -22.1401   XZ=             -1.2803   YZ=             -8.7368

 Normal termination of Gaussian 16 at Tue Sep 10 00:05:57 2019.
