 Gaussian 16, Revision A.03,
 Gaussian 16:  ES64L-G16RevA.03 25-Dec-2016

 ----------------------------------------------------------------------
 # td=(NStates=1) iop(3/107=0140000000,3/108=0140000000) CAM-B3LYP/6-31
 G(d,p)
 ----------------------------------------------------------------------

 --
 TD
 --
 Symbolic Z-matrix:
 Charge =  0 Multiplicity = 1

                         Standard orientation:
 ---------------------------------------------------------------------
 Center     Atomic      Atomic             Coordinates (Angstroms)
 Number     Number       Type             X           Y           Z
 ---------------------------------------------------------------------
      1         12           0       -7.097612    0.646120   -0.038319
      2          6           0       -4.859387   -1.941006    0.444813
      3          6           0       -4.734261    2.844861    1.151749
      4          6           0       -9.394382    3.165122   -0.486183
      5          6           0       -9.585148   -1.664713   -0.987205
      6          7           0       -5.068737    0.441455    0.678291
      7          6           0       -4.299623   -0.660846    0.648262
      8          6           0       -2.972759   -0.389141    1.150798
      9          6           0       -2.963725    1.025548    1.682428
     10          6           0       -4.381533    1.581342    1.100256
     11          6           0       -2.964963    1.160583    3.250901
     12          6           0       -1.913934   -0.673761    0.061593
     13          6           0       -0.437879   -0.424625    0.482535
     14          6           0        0.504604   -0.805719   -0.579822
     15          8           0        0.179894   -1.389169   -1.615109
     16          8           0        1.756194   -0.516474   -0.209225
     17          7           0       -7.092747    2.633123    0.350873
     18          6           0       -5.994572    3.401302    0.827884
     19          6           0       -6.300377    4.778040    0.825377
     20          6           0       -7.636759    4.889966    0.344158
     21          6           0       -8.078955    3.555131    0.002969
     22          6           0       -5.371791    5.870260    1.347064
     23          6           0       -8.418367    6.064577    0.283519
     24          6           0       -8.327609    7.328720    0.919590
     25          7           0       -9.049854    0.737245   -0.700441
     26          6           0       -9.804596    1.841819   -0.826042
     27          6           0      -11.156446    1.542843   -1.294303
     28          6           0      -11.276940    0.203895   -1.268895
     29          6           0       -9.910384   -0.266733   -1.041511
     30          6           0      -12.274585    2.545672   -1.588112
     31          6           0      -12.390712   -0.719207   -1.672397
     32          6           0      -12.302535   -1.296940   -3.061328
     33          7           0       -7.181406   -1.363692   -0.267751
     34          6           0       -8.268353   -2.178911   -0.569654
     35          6           0       -7.872194   -3.582173   -0.539549
     36          6           0       -6.518591   -3.575117   -0.092728
     37          6           0       -6.145630   -2.132914    0.075184
     38          6           0       -8.637064   -4.740114   -0.842373
     39          6           0       -5.322165   -4.393231    0.241081
     40          8           0       -5.276610   -5.573518    0.362689
     41          6           0       -4.224622   -3.300753    0.614191
     42          6           0       -3.688177   -3.689735    2.034973
     43          8           0       -3.887617   -3.112204    3.014700
     44          8           0       -2.877831   -4.691773    1.874918
     45          6           0       -2.285532   -5.244152    3.155635
     46          6           0        2.848006   -0.844387   -1.240635
     47          6           0        4.106276   -0.508433   -0.512205
     48          6           0        5.162492    0.207932   -0.907995
     49          6           0        4.991031    0.984724   -2.141494
     50          6           0        6.340837    0.318926   -0.128147
     51          6           0        7.546562   -0.225261   -0.902094
     52          6           0        8.870112   -0.226057   -0.165188
     53          6           0       10.195073   -0.472489   -0.916658
     54          6           0        9.992664   -1.909224   -1.562684
     55          6           0       11.377043   -0.296505    0.060677
     56          6           0       12.786150   -0.499829   -0.689186
     57          6           0       13.957007   -0.115720    0.205500
     58          6           0       15.388763   -0.125065   -0.503130
     59          6           0       15.786776   -1.478382   -0.953882
     60          6           0       16.481006    0.281703    0.487038
     61          6           0       17.875497    0.505411   -0.168920
     62          6           0       18.856497    1.271891    0.799807
     63          6           0       20.229478    1.314671    0.139974
     64          6           0       20.199738    2.169314   -1.170395
     65          6           0       21.233047    2.113261    1.210943
     66          1           0       -4.055310    3.521795    1.548511
     67          1           0      -10.009872    3.935481   -0.701946
     68          1           0      -10.307071   -2.434611   -1.183404
     69          1           0       -2.999057   -1.108380    1.981195
     70          1           0       -2.265429    1.741388    1.171954
     71          1           0       -2.034591    0.847303    3.620177
     72          1           0       -3.109461    2.223691    3.507331
     73          1           0       -3.788581    0.477049    3.910566
     74          1           0       -2.012500   -1.663780   -0.426513
     75          1           0       -2.208463    0.193954   -0.620878
     76          1           0       -0.440900    0.599400    0.844332
     77          1           0       -0.150712   -1.107652    1.301715
     78          1           0       -5.495972    6.672843    0.601231
     79          1           0       -5.618791    6.369021    2.317911
     80          1           0       -4.409998    5.439527    1.190260
     81          1           0       -9.362019    5.995689   -0.242342
     82          1           0       -9.069688    8.072406    0.595082
     83          1           0       -7.668693    7.614719    1.599355
     84          1           0      -11.862954    3.601221   -2.187043
     85          1           0      -13.055753    2.134372   -2.052600
     86          1           0      -12.450528    3.274146   -0.799194
     87          1           0      -12.342436   -1.355347   -0.952024
     88          1           0      -13.253680   -0.134519   -1.451308
     89          1           0      -13.143970   -1.922290   -3.311247
     90          1           0      -12.529887   -0.415015   -3.816891
     91          1           0      -11.368305   -1.883986   -3.244710
     92          1           0       -8.558421   -4.827876   -1.939404
     93          1           0       -8.287875   -5.752362   -0.388045
     94          1           0       -9.787080   -4.742683   -0.406326
     95          1           0       -3.604003   -3.677793    0.015940
     96          1           0       -1.754080   -4.265856    3.594669
     97          1           0       -2.936979   -5.807646    3.982972
     98          1           0       -1.687817   -6.065810    2.903633
     99          1           0        2.780755   -1.972339   -1.481038
    100          1           0        2.626434   -0.292393   -2.013605
    101          1           0        4.251693   -1.015301    0.502573
    102          1           0        4.064230    1.168593   -2.773053
    103          1           0        5.368577    1.977993   -2.039942
    104          1           0        5.720863    0.585276   -2.789045
    105          1           0        6.514437    1.318281    0.079520
    106          1           0        6.334705   -0.167022    0.909795
    107          1           0        7.270743   -1.316595   -1.140373
    108          1           0        7.815153    0.170846   -1.877049
    109          1           0        9.118451    0.911451    0.260543
    110          1           0        8.780238   -0.944102    0.505162
    111          1           0       10.350020    0.460346   -1.744127
    112          1           0        9.368472   -1.906989   -2.533062
    113          1           0       10.985307   -2.345105   -2.044181
    114          1           0        9.548721   -2.517113   -0.765741
    115          1           0       11.450606    0.841057    0.260437
    116          1           0       11.460671   -1.105173    0.968936
    117          1           0       13.033346   -1.295191   -1.232314
    118          1           0       12.641582    0.098984   -1.593239
    119          1           0       13.834564    0.796048    0.847102
    120          1           0       14.058775   -0.773351    1.101211
    121          1           0       15.543764    0.607255   -1.413591
    122          1           0       15.904768   -2.142982   -0.040193
    123          1           0       15.067646   -2.253843   -1.608048
    124          1           0       16.683430   -1.317848   -1.518865
    125          1           0       16.088952    1.259774    1.134092
    126          1           0       16.758485   -0.415113    1.291054
    127          1           0       18.352903   -0.492504   -0.191234
    128          1           0       17.628498    1.136818   -0.978177
    129          1           0       18.461324    2.218171    0.867314
    130          1           0       18.863131    0.877659    1.926699
    131          1           0       20.818080    0.349952    0.337384
    132          1           0       19.609802    3.078850   -0.765764
    133          1           0       21.010736    2.176770   -1.638363
    134          1           0       19.434963    1.706935   -1.791171
    135          1           0       21.441740    1.449881    2.204640
    136          1           0       22.283739    2.169540    0.821349
    137          1           0       20.984232    3.220599    1.183547
 ---------------------------------------------------------------------

 SCF Done:  E(RCAM-B3LYP) =  -2933.45252421     A.U. after   16 cycles

 Excitation energies and oscillator strengths:

 Excited State   1:      Singlet-A      1.9394 eV  639.30 nm  f=0.3472  <S**2>=0.000
     240 -> 243        0.20734
     241 -> 242        0.67074
 This state for optimization and/or second-order correction.
 Total Energy, E(TD-HF/TD-DFT) =  -2933.38125399
 Copying the excited state density for this state as the 1-particle RhoCI density.

 The electronic state is 1-A.
 Alpha  occ. eigenvalues --  -46.79459 -19.22438 -19.21291 -19.16225 -19.16166
 Alpha  occ. eigenvalues --  -19.15511 -14.36942 -14.35266 -14.34858 -14.34806
 Alpha  occ. eigenvalues --  -10.33492 -10.33484 -10.30156 -10.28969 -10.27357
 Alpha  occ. eigenvalues --  -10.25900 -10.25622 -10.25036 -10.24827 -10.24781
 Alpha  occ. eigenvalues --  -10.24488 -10.24252 -10.24107 -10.23924 -10.23786
 Alpha  occ. eigenvalues --  -10.23714 -10.23572 -10.23190 -10.23010 -10.22788
 Alpha  occ. eigenvalues --  -10.22667 -10.22621 -10.22516 -10.22465 -10.22447
 Alpha  occ. eigenvalues --  -10.22411 -10.22395 -10.22332 -10.22324 -10.22148
 Alpha  occ. eigenvalues --  -10.22037 -10.22000 -10.21849 -10.21843 -10.21802
 Alpha  occ. eigenvalues --  -10.21755 -10.21647 -10.21644 -10.21580 -10.21524
 Alpha  occ. eigenvalues --  -10.21496 -10.21371 -10.21347 -10.21174 -10.21096
 Alpha  occ. eigenvalues --  -10.21049 -10.21037 -10.20969 -10.20846 -10.20733
 Alpha  occ. eigenvalues --  -10.20686 -10.20472 -10.20359 -10.20130 -10.19799
 Alpha  occ. eigenvalues --   -3.08035  -1.82984  -1.82506  -1.82438  -1.14918
 Alpha  occ. eigenvalues --   -1.11229  -1.07657  -1.06057  -1.02399  -0.98975
 Alpha  occ. eigenvalues --   -0.98466  -0.97283  -0.95701  -0.87956  -0.87122
 Alpha  occ. eigenvalues --   -0.85343  -0.84623  -0.84575  -0.84333  -0.83442
 Alpha  occ. eigenvalues --   -0.82877  -0.82510  -0.82400  -0.81554  -0.81040
 Alpha  occ. eigenvalues --   -0.79777  -0.79288  -0.78347  -0.78037  -0.77181
 Alpha  occ. eigenvalues --   -0.76496  -0.76072  -0.75527  -0.75229  -0.73372
 Alpha  occ. eigenvalues --   -0.73041  -0.72312  -0.72219  -0.71851  -0.70999
 Alpha  occ. eigenvalues --   -0.70263  -0.69985  -0.68943  -0.68675  -0.67681
 Alpha  occ. eigenvalues --   -0.67516  -0.66160  -0.66038  -0.65185  -0.63575
 Alpha  occ. eigenvalues --   -0.62450  -0.62283  -0.61159  -0.61033  -0.60508
 Alpha  occ. eigenvalues --   -0.59457  -0.58432  -0.58379  -0.58245  -0.58061
 Alpha  occ. eigenvalues --   -0.57445  -0.56313  -0.56221  -0.55286  -0.54925
 Alpha  occ. eigenvalues --   -0.54545  -0.54183  -0.53769  -0.53394  -0.52628
 Alpha  occ. eigenvalues --   -0.52109  -0.51572  -0.51433  -0.51351  -0.51062
 Alpha  occ. eigenvalues --   -0.50627  -0.50354  -0.49924  -0.49823  -0.49230
 Alpha  occ. eigenvalues --   -0.48987  -0.48626  -0.48559  -0.48144  -0.48044
 Alpha  occ. eigenvalues --   -0.47843  -0.47629  -0.47435  -0.47277  -0.46721
 Alpha  occ. eigenvalues --   -0.46485  -0.46362  -0.46315  -0.46015  -0.45976
 Alpha  occ. eigenvalues --   -0.45733  -0.45606  -0.45286  -0.44965  -0.44870
 Alpha  occ. eigenvalues --   -0.44743  -0.44225  -0.44072  -0.43713  -0.43582
 Alpha  occ. eigenvalues --   -0.43460  -0.43363  -0.42660  -0.42420  -0.42309
 Alpha  occ. eigenvalues --   -0.42279  -0.42176  -0.41932  -0.41621  -0.41475
 Alpha  occ. eigenvalues --   -0.41443  -0.41113  -0.41093  -0.40840  -0.40724
 Alpha  occ. eigenvalues --   -0.40568  -0.40393  -0.40316  -0.39958  -0.39791
 Alpha  occ. eigenvalues --   -0.39708  -0.39449  -0.39213  -0.39103  -0.38631
 Alpha  occ. eigenvalues --   -0.38468  -0.38294  -0.38252  -0.38036  -0.37950
 Alpha  occ. eigenvalues --   -0.37842  -0.37426  -0.37315  -0.37285  -0.37122
 Alpha  occ. eigenvalues --   -0.36990  -0.36432  -0.36361  -0.35965  -0.35849
 Alpha  occ. eigenvalues --   -0.35647  -0.35462  -0.35450  -0.35210  -0.34682
 Alpha  occ. eigenvalues --   -0.34462  -0.34224  -0.33877  -0.33775  -0.33106
 Alpha  occ. eigenvalues --   -0.33087  -0.32895  -0.32568  -0.32458  -0.32329
 Alpha  occ. eigenvalues --   -0.32028  -0.31721  -0.31093  -0.30446  -0.29858
 Alpha  occ. eigenvalues --   -0.29825  -0.29424  -0.28947  -0.28119  -0.26720
 Alpha  occ. eigenvalues --   -0.26632  -0.26304  -0.25857  -0.23358  -0.21392
 Alpha  occ. eigenvalues --   -0.19309
 Alpha virt. eigenvalues --   -0.07151  -0.03353   0.00380   0.02622   0.04269
 Alpha virt. eigenvalues --    0.05025   0.05174   0.05447   0.06159   0.06652
 Alpha virt. eigenvalues --    0.07186   0.08959   0.09342   0.09509   0.10515

 Mulliken charges:
               1
     1  Mg   0.807876
     2  C    0.093150
     3  C   -0.160294
     4  C   -0.137250
     5  C   -0.182873
     6  N   -0.639495
     7  C    0.328091
     8  C   -0.172480
     9  C   -0.148832
    10  C    0.302684
    11  C   -0.302842
    12  C   -0.170868
    13  C   -0.263023
    14  C    0.621316
    15  O   -0.496861
    16  O   -0.487170
    17  N   -0.719217
    18  C    0.295954
    19  C    0.004711
    20  C    0.040293
    21  C    0.286807
    22  C   -0.368784
    23  C   -0.119829
    24  C   -0.240070
    25  N   -0.671909
    26  C    0.308189
    27  C    0.055039
    28  C   -0.012400
    29  C    0.284523
    30  C   -0.363517
    31  C   -0.205072
    32  C   -0.306161
    33  N   -0.744478
    34  C    0.271735
    35  C    0.037421
    36  C    0.004454
    37  C    0.317592
    38  C   -0.402310
    39  C    0.326943
    40  O   -0.432260
    41  C   -0.296603
    42  C    0.609472
    43  O   -0.446710
    44  O   -0.431040
    45  C   -0.094351
    46  C    0.029900
    47  C   -0.151033
    48  C    0.174774
    49  C   -0.390475
    50  C   -0.229805
    51  C   -0.192523
    52  C   -0.147200
    53  C   -0.055306
    54  C   -0.311872
    55  C   -0.156530
    56  C   -0.176841
    57  C   -0.171288
    58  C   -0.056427
    59  C   -0.285249
    60  C   -0.173494
    61  C   -0.189719
    62  C   -0.162836
    63  C   -0.064663
    64  C   -0.293607
    65  C   -0.325716
    66  H    0.069195
    67  H    0.060255
    68  H    0.085383
    69  H    0.127699
    70  H    0.099315
    71  H    0.119354
    72  H    0.108499
    73  H    0.104598
    74  H    0.128599
    75  H    0.099492
    76  H    0.129403
    77  H    0.135900
    78  H    0.125718
    79  H    0.127464
    80  H    0.114292
    81  H    0.076934
    82  H    0.093515
    83  H    0.091459
    84  H    0.072329
    85  H    0.119115
    86  H    0.135065
    87  H    0.119769
    88  H    0.098359
    89  H    0.111485
    90  H    0.095020
    91  H    0.114955
    92  H    0.139557
    93  H    0.141599
    94  H    0.097382
    95  H    0.142482
    96  H    0.127696
    97  H    0.123656
    98  H    0.140443
    99  H    0.133400
   100  H    0.124787
   101  H    0.071392
   102  H    0.119493
   103  H    0.115698
   104  H    0.127438
   105  H    0.114612
   106  H    0.101693
   107  H    0.086916
   108  H    0.099872
   109  H    0.052220
   110  H    0.102338
   111  H    0.051300
   112  H    0.104651
   113  H    0.087243
   114  H    0.110182
   115  H    0.101989
   116  H    0.078888
   117  H    0.101125
   118  H    0.079427
   119  H    0.078261
   120  H    0.085095
   121  H    0.069730
   122  H    0.096238
   123  H    0.064909
   124  H    0.113874
   125  H    0.050313
   126  H    0.090917
   127  H    0.111471
   128  H    0.104195
   129  H    0.098006
   130  H    0.072978
   131  H    0.086564
   132  H    0.100822
   133  H    0.112823
   134  H    0.107320
   135  H    0.083020
   136  H    0.088760
   137  H    0.094416
 Sum of Mulliken charges =  -0.00000

 Dipole moment (field-independent basis, Debye):
    X=              3.3902    Y=              1.9812    Z=             -0.1312  Tot=              3.9288
 Quadrupole moment (field-independent basis, Debye-Ang):
   XX=           -335.1807   YY=           -393.3759   ZZ=           -395.4010
   XY=             -9.9898   XZ=              5.6223   YZ=             -6.7965

 Normal termination of Gaussian 16 at Wed Sep  4 22:19:33 2019.
