 Gaussian 16, Revision A.03,
 Gaussian 16:  ES64L-G16RevA.03 25-Dec-2016

 -------------------------------------
 # td=(NStates=1) CAM-B3LYP/6-31G(d,p)
 -------------------------------------

 --
 TD
 --
 Symbolic Z-matrix:
 Charge =  0 Multiplicity = 1

                         Standard orientation:
 ---------------------------------------------------------------------
 Center     Atomic      Atomic             Coordinates (Angstroms)
 Number     Number       Type             X           Y           Z
 ---------------------------------------------------------------------
      1         12           0       -7.179408    0.665744    0.085613
      2          6           0       -4.829504   -1.897076    0.441008
      3          6           0       -4.754619    2.895558    1.118846
      4          6           0       -9.306992    3.135129   -0.341065
      5          6           0       -9.572732   -1.788935   -0.803458
      6          7           0       -5.156698    0.474079    0.757106
      7          6           0       -4.398144   -0.647183    0.819506
      8          6           0       -2.918932   -0.454898    1.099073
      9          6           0       -3.062156    1.035374    1.662151
     10          6           0       -4.445442    1.586723    1.204909
     11          6           0       -2.994235    1.162547    3.125853
     12          6           0       -1.906611   -0.633700   -0.050722
     13          6           0       -0.493143   -0.528169    0.461028
     14          6           0        0.505551   -0.775903   -0.771491
     15          8           0        0.221655   -1.097044   -1.814764
     16          8           0        1.730297   -0.539297   -0.403098
     17          7           0       -7.034675    2.695530    0.320522
     18          6           0       -5.956962    3.377924    0.715675
     19          6           0       -6.296221    4.829910    0.709820
     20          6           0       -7.609914    4.813268    0.329647
     21          6           0       -8.022767    3.467419    0.047355
     22          6           0       -5.393647    5.988758    1.112168
     23          6           0       -8.471632    6.121178    0.083239
     24          6           0       -8.401555    7.164492    0.815090
     25          7           0       -9.098238    0.696798   -0.406694
     26          6           0       -9.811423    1.824614   -0.685010
     27          6           0      -11.106247    1.561409   -1.102769
     28          6           0      -11.217608    0.138310   -1.243861
     29          6           0       -9.933213   -0.367775   -0.742380
     30          6           0      -12.200250    2.519860   -1.347846
     31          6           0      -12.414571   -0.619199   -1.771751
     32          6           0      -12.420825   -1.005392   -3.220562
     33          7           0       -7.280345   -1.371221   -0.045961
     34          6           0       -8.287663   -2.249274   -0.463082
     35          6           0       -7.846006   -3.629210   -0.394942
     36          6           0       -6.562912   -3.541972   -0.040045
     37          6           0       -6.180023   -2.162701    0.111837
     38          6           0       -8.658922   -4.842879   -0.792850
     39          6           0       -5.290543   -4.384762    0.270808
     40          8           0       -5.240163   -5.612928    0.098412
     41          6           0       -4.156109   -3.317725    0.498472
     42          6           0       -3.624922   -3.679621    1.873050
     43          8           0       -3.756690   -3.025801    2.886696
     44          8           0       -2.684771   -4.707602    1.758325
     45          6           0       -2.307143   -5.447352    2.857163
     46          6           0        2.769243   -0.684268   -1.325616
     47          6           0        4.109434   -0.569811   -0.519416
     48          6           0        5.119237    0.295238   -0.863874
     49          6           0        5.108261    1.078864   -2.095644
     50          6           0        6.399725    0.287329   -0.088937
     51          6           0        7.624905   -0.169633   -0.831630
     52          6           0        8.865734   -0.031773    0.029272
     53          6           0       10.184033   -0.614582   -0.822217
     54          6           0       10.015933   -2.080458   -1.329930
     55          6           0       11.507548   -0.419687    0.164737
     56          6           0       12.776167   -0.467993   -0.642873
     57          6           0       14.009726   -0.127808    0.272216
     58          6           0       15.276457   -0.199816   -0.499925
     59          6           0       15.705011   -1.553362   -1.006902
     60          6           0       16.409545    0.407896    0.433751
     61          6           0       17.843153    0.536318   -0.206710
     62          6           0       18.729558    1.382923    0.708833
     63          6           0       20.213981    1.369999    0.173181
     64          6           0       20.360210    2.211122   -1.082888
     65          6           0       21.174510    2.033725    1.276442
     66          1           0       -4.075043    3.582021    1.567594
     67          1           0      -10.069147    3.924116   -0.603512
     68          1           0      -10.320172   -2.407335   -1.169002
     69          1           0       -2.716266   -0.986569    2.109061
     70          1           0       -2.121532    1.729152    1.326335
     71          1           0       -2.004524    0.802660    3.557143
     72          1           0       -2.954589    2.197710    3.496526
     73          1           0       -3.724196    0.633820    3.624173
     74          1           0       -1.952571   -1.701825   -0.480717
     75          1           0       -2.069449    0.124098   -0.841144
     76          1           0       -0.437813    0.334852    0.996471
     77          1           0       -0.270766   -1.321677    1.194881
     78          1           0       -5.608472    6.781919    0.625170
     79          1           0       -5.560690    6.018466    2.277733
     80          1           0       -4.357897    5.723349    0.799728
     81          1           0       -9.025723    6.069001   -1.034944
     82          1           0       -9.004434    8.165112    0.397651
     83          1           0       -7.822570    7.100050    1.721736
     84          1           0      -11.818104    3.238920   -2.036101
     85          1           0      -13.239818    2.113642   -1.663642
     86          1           0      -12.514911    3.201127   -0.386154
     87          1           0      -12.367274   -1.628062   -1.363330
     88          1           0      -13.375872   -0.063705   -1.511510
     89          1           0      -13.128534   -1.821643   -3.531640
     90          1           0      -12.448603   -0.136857   -3.831835
     91          1           0      -11.461535   -1.375422   -3.382303
     92          1           0       -9.277531   -4.754875   -1.847480
     93          1           0       -7.862951   -5.761617   -0.618192
     94          1           0       -9.688824   -5.011377   -0.251103
     95          1           0       -3.366110   -3.571189   -0.329747
     96          1           0       -1.562764   -4.728340    3.596793
     97          1           0       -3.320563   -5.672104    3.316361
     98          1           0       -1.654140   -6.210551    2.514853
     99          1           0        2.600641   -1.685059   -1.911552
    100          1           0        2.709268    0.148206   -1.885907
    101          1           0        4.373041   -1.342044    0.250049
    102          1           0        4.149089    0.988705   -2.743803
    103          1           0        5.478115    2.198926   -1.744086
    104          1           0        6.033074    0.749466   -2.812379
    105          1           0        6.472584    1.323384    0.280063
    106          1           0        6.318945   -0.529344    0.719619
    107          1           0        7.279356   -1.250324   -1.055156
    108          1           0        7.778038    0.302877   -1.813445
    109          1           0        9.149638    0.935577    0.461351
    110          1           0        8.713730   -0.795929    0.781417
    111          1           0       10.390054   -0.139289   -1.691433
    112          1           0        9.296171   -2.158632   -2.172057
    113          1           0       11.133891   -2.251938   -1.782896
    114          1           0        9.929017   -2.634712   -0.325589
    115          1           0       11.337592    0.514558    0.723567
    116          1           0       11.541963   -1.209174    1.040445
    117          1           0       12.667396   -1.516829   -1.235786
    118          1           0       12.735161    0.094225   -1.572865
    119          1           0       13.657878    0.958709    0.723963
    120          1           0       14.189639   -0.799648    1.185410
    121          1           0       15.250440    0.570823   -1.321414
    122          1           0       15.881882   -2.180308   -0.041083
    123          1           0       15.028902   -2.156952   -1.530367
    124          1           0       16.727139   -1.375788   -1.532083
    125          1           0       16.112210    1.462839    0.746894
    126          1           0       16.315005   -0.221500    1.298213
    127          1           0       18.127524   -0.506283   -0.251275
    128          1           0       17.738167    1.042830   -1.327866
    129          1           0       18.318860    2.303414    0.849365
    130          1           0       18.675559    0.930859    1.633890
    131          1           0       20.725794    0.296388   -0.171287
    132          1           0       20.171506    3.168600   -0.675387
    133          1           0       21.385504    2.182057   -1.430055
    134          1           0       19.635831    2.013316   -2.026528
    135          1           0       21.319917    1.201731    2.083353
    136          1           0       22.107125    2.317865    0.690040
    137          1           0       20.581681    2.869830    1.779686
 ---------------------------------------------------------------------

 SCF Done:  E(RCAM-B3LYP) =  -2932.67333622     A.U. after   15 cycles

 Excitation energies and oscillator strengths:

 Excited State   1:      Singlet-A      2.1517 eV  576.21 nm  f=0.1791  <S**2>=0.000
     240 -> 243        0.28282
     241 -> 242        0.64173
 This state for optimization and/or second-order correction.
 Total Energy, E(TD-HF/TD-DFT) =  -2932.59426147
 Copying the excited state density for this state as the 1-particle RhoCI density.

 The electronic state is 1-A.
 Alpha  occ. eigenvalues --  -46.83694 -19.25464 -19.25122 -19.22289 -19.21966
 Alpha  occ. eigenvalues --  -19.20885 -14.41615 -14.39332 -14.39064 -14.38774
 Alpha  occ. eigenvalues --  -10.40405 -10.38258 -10.36944 -10.32433 -10.31796
 Alpha  occ. eigenvalues --  -10.30955 -10.30819 -10.30783 -10.29646 -10.29109
 Alpha  occ. eigenvalues --  -10.29066 -10.29007 -10.28969 -10.28821 -10.28295
 Alpha  occ. eigenvalues --  -10.28134 -10.28084 -10.28076 -10.27922 -10.27837
 Alpha  occ. eigenvalues --  -10.27805 -10.27482 -10.27465 -10.27434 -10.27129
 Alpha  occ. eigenvalues --  -10.27038 -10.26980 -10.26843 -10.26591 -10.26566
 Alpha  occ. eigenvalues --  -10.26560 -10.26482 -10.26460 -10.26410 -10.26344
 Alpha  occ. eigenvalues --  -10.26256 -10.26248 -10.26244 -10.26166 -10.26162
 Alpha  occ. eigenvalues --  -10.26154 -10.26127 -10.26111 -10.26073 -10.25985
 Alpha  occ. eigenvalues --  -10.25615 -10.25484 -10.25364 -10.25351 -10.25063
 Alpha  occ. eigenvalues --  -10.24913 -10.24722 -10.24482 -10.24083 -10.23923
 Alpha  occ. eigenvalues --   -3.12849  -1.87552  -1.87101  -1.87019  -1.21923
 Alpha  occ. eigenvalues --   -1.17866  -1.12633  -1.10758  -1.10253  -1.06278
 Alpha  occ. eigenvalues --   -1.03713  -1.02739  -1.01761  -0.92049  -0.91682
 Alpha  occ. eigenvalues --   -0.90300  -0.89663  -0.89384  -0.88563  -0.88510
 Alpha  occ. eigenvalues --   -0.88016  -0.87683  -0.87250  -0.86831  -0.86053
 Alpha  occ. eigenvalues --   -0.85170  -0.84291  -0.83739  -0.83163  -0.82867
 Alpha  occ. eigenvalues --   -0.81872  -0.81291  -0.80394  -0.79890  -0.78232
 Alpha  occ. eigenvalues --   -0.77131  -0.76842  -0.75624  -0.75531  -0.75081
 Alpha  occ. eigenvalues --   -0.74805  -0.74377  -0.73683  -0.73297  -0.71981
 Alpha  occ. eigenvalues --   -0.71539  -0.69469  -0.69127  -0.68275  -0.66995
 Alpha  occ. eigenvalues --   -0.66012  -0.65403  -0.64682  -0.64342  -0.63909
 Alpha  occ. eigenvalues --   -0.63698  -0.63471  -0.63143  -0.62204  -0.61502
 Alpha  occ. eigenvalues --   -0.61327  -0.60218  -0.60106  -0.59682  -0.58941
 Alpha  occ. eigenvalues --   -0.58871  -0.57966  -0.57780  -0.57296  -0.57189
 Alpha  occ. eigenvalues --   -0.56692  -0.56003  -0.55338  -0.55253  -0.54759
 Alpha  occ. eigenvalues --   -0.54536  -0.54386  -0.53935  -0.53633  -0.53111
 Alpha  occ. eigenvalues --   -0.52894  -0.52752  -0.52377  -0.52294  -0.51890
 Alpha  occ. eigenvalues --   -0.51584  -0.51276  -0.51075  -0.50679  -0.50363
 Alpha  occ. eigenvalues --   -0.50180  -0.50021  -0.49684  -0.49608  -0.49564
 Alpha  occ. eigenvalues --   -0.49395  -0.49118  -0.48893  -0.48759  -0.48607
 Alpha  occ. eigenvalues --   -0.48275  -0.48052  -0.47963  -0.47596  -0.47238
 Alpha  occ. eigenvalues --   -0.46832  -0.46554  -0.46433  -0.46028  -0.45886
 Alpha  occ. eigenvalues --   -0.45807  -0.45629  -0.45292  -0.44969  -0.44761
 Alpha  occ. eigenvalues --   -0.44614  -0.44291  -0.44240  -0.43831  -0.43747
 Alpha  occ. eigenvalues --   -0.43562  -0.43393  -0.43195  -0.43152  -0.43003
 Alpha  occ. eigenvalues --   -0.42987  -0.42859  -0.42835  -0.42592  -0.42249
 Alpha  occ. eigenvalues --   -0.42152  -0.41784  -0.41638  -0.41450  -0.41238
 Alpha  occ. eigenvalues --   -0.41140  -0.40856  -0.40667  -0.40451  -0.40280
 Alpha  occ. eigenvalues --   -0.40194  -0.39553  -0.39249  -0.39117  -0.38656
 Alpha  occ. eigenvalues --   -0.38532  -0.38482  -0.38115  -0.37926  -0.37478
 Alpha  occ. eigenvalues --   -0.37462  -0.37198  -0.37061  -0.36886  -0.36524
 Alpha  occ. eigenvalues --   -0.36504  -0.36188  -0.36095  -0.35633  -0.35584
 Alpha  occ. eigenvalues --   -0.35133  -0.34696  -0.34226  -0.34140  -0.33692
 Alpha  occ. eigenvalues --   -0.32986  -0.32547  -0.31985  -0.31136  -0.30534
 Alpha  occ. eigenvalues --   -0.29680  -0.29076  -0.28699  -0.27036  -0.23306
 Alpha  occ. eigenvalues --   -0.21179
 Alpha virt. eigenvalues --   -0.05661  -0.03556   0.00902   0.04387   0.05411
 Alpha virt. eigenvalues --    0.05707   0.05774   0.07317   0.07921   0.08171
 Alpha virt. eigenvalues --    0.09700   0.10297   0.10881   0.11126   0.11506

 Mulliken charges:
               1
     1  Mg   0.817036
     2  C    0.056784
     3  C   -0.185058
     4  C   -0.160753
     5  C   -0.148057
     6  N   -0.659223
     7  C    0.310793
     8  C   -0.152130
     9  C   -0.174038
    10  C    0.356820
    11  C   -0.312394
    12  C   -0.156758
    13  C   -0.273710
    14  C    0.568337
    15  O   -0.415871
    16  O   -0.446281
    17  N   -0.722302
    18  C    0.312568
    19  C   -0.013632
    20  C   -0.062361
    21  C    0.364189
    22  C   -0.337547
    23  C   -0.033014
    24  C   -0.251226
    25  N   -0.703227
    26  C    0.287119
    27  C    0.043810
    28  C    0.004024
    29  C    0.252062
    30  C   -0.382763
    31  C   -0.240413
    32  C   -0.308371
    33  N   -0.710283
    34  C    0.253842
    35  C    0.062890
    36  C   -0.023226
    37  C    0.303027
    38  C   -0.383933
    39  C    0.380241
    40  O   -0.450408
    41  C   -0.309908
    42  C    0.610040
    43  O   -0.442651
    44  O   -0.457213
    45  C   -0.053344
    46  C    0.024796
    47  C   -0.150491
    48  C    0.138810
    49  C   -0.350375
    50  C   -0.218846
    51  C   -0.178911
    52  C   -0.171388
    53  C   -0.088282
    54  C   -0.294657
    55  C   -0.173944
    56  C   -0.174570
    57  C   -0.151385
    58  C   -0.064036
    59  C   -0.297902
    60  C   -0.187683
    61  C   -0.174418
    62  C   -0.166878
    63  C   -0.060632
    64  C   -0.291897
    65  C   -0.308096
    66  H    0.088469
    67  H    0.092594
    68  H    0.084992
    69  H    0.136854
    70  H    0.073380
    71  H    0.094092
    72  H    0.107560
    73  H    0.133264
    74  H    0.109832
    75  H    0.121015
    76  H    0.129715
    77  H    0.129706
    78  H    0.135732
    79  H    0.118385
    80  H    0.110932
    81  H    0.081239
    82  H    0.093156
    83  H    0.109539
    84  H    0.126899
    85  H    0.109847
    86  H    0.095726
    87  H    0.101671
    88  H    0.097646
    89  H    0.101014
    90  H    0.109563
    91  H    0.112172
    92  H    0.109212
    93  H    0.142478
    94  H    0.116908
    95  H    0.179093
    96  H    0.074935
    97  H    0.123882
    98  H    0.136682
    99  H    0.118988
   100  H    0.111205
   101  H    0.086268
   102  H    0.113880
   103  H    0.089466
   104  H    0.109979
   105  H    0.098991
   106  H    0.093739
   107  H    0.094629
   108  H    0.089814
   109  H    0.101115
   110  H    0.098024
   111  H    0.094165
   112  H    0.112597
   113  H    0.073202
   114  H    0.103223
   115  H    0.085173
   116  H    0.075517
   117  H    0.067152
   118  H    0.101727
   119  H    0.076780
   120  H    0.082515
   121  H    0.077880
   122  H    0.077683
   123  H    0.115529
   124  H    0.105006
   125  H    0.074606
   126  H    0.087295
   127  H    0.107154
   128  H    0.068554
   129  H    0.102912
   130  H    0.102473
   131  H    0.059598
   132  H    0.103692
   133  H    0.099751
   134  H    0.081318
   135  H    0.097119
   136  H    0.100822
   137  H    0.099569
 Sum of Mulliken charges =  -0.00000

 Dipole moment (field-independent basis, Debye):
    X=              3.1547    Y=              3.7966    Z=             -0.1173  Tot=              4.9376
 Quadrupole moment (field-independent basis, Debye-Ang):
   XX=           -366.8634   YY=           -392.0450   ZZ=           -398.6607
   XY=            -12.6281   XZ=             13.5390   YZ=             -2.0064

 Normal termination of Gaussian 16 at Wed Jun 26 21:54:10 2019.
