 Gaussian 09, Revision D.01,
 Gaussian 09:  ES64L-G09RevD.01 24-Apr-2013

 -------------------------------------
 # td=(NStates=1) CAM-B3LYP/6-31G(d,p)
 -------------------------------------

 --
 TD
 --
 Symbolic Z-matrix:
 Charge =  0 Multiplicity = 1

                         Standard orientation:
 ---------------------------------------------------------------------
 Center     Atomic      Atomic             Coordinates (Angstroms)
 Number     Number       Type             X           Y           Z
 ---------------------------------------------------------------------
      1         12           0       -7.112323    0.673490    0.020244
      2          6           0       -4.881946   -1.968111    0.471338
      3          6           0       -4.800429    2.723982    1.117296
      4          6           0       -9.317012    3.032384   -0.362854
      5          6           0       -9.507960   -1.674379   -0.767481
      6          7           0       -5.043058    0.348919    0.691530
      7          6           0       -4.350329   -0.742517    0.830139
      8          6           0       -2.954185   -0.402079    1.246087
      9          6           0       -2.986760    1.095339    1.672530
     10          6           0       -4.284865    1.483647    1.143992
     11          6           0       -2.869420    1.436432    3.133439
     12          6           0       -1.869813   -0.565756    0.037186
     13          6           0       -0.472796   -0.573389    0.450498
     14          6           0        0.498755   -0.715018   -0.586875
     15          8           0        0.302511   -0.984784   -1.863511
     16          8           0        1.845369   -0.457679   -0.222884
     17          7           0       -7.060650    2.574450    0.291887
     18          6           0       -6.009288    3.328094    0.734147
     19          6           0       -6.408844    4.692438    0.894555
     20          6           0       -7.693680    4.777726    0.397388
     21          6           0       -8.126650    3.389031    0.071101
     22          6           0       -5.541430    5.804518    1.304783
     23          6           0       -8.540974    5.982668    0.204902
     24          6           0       -8.486674    7.233382    0.789926
     25          7           0       -9.103755    0.695766   -0.519285
     26          6           0       -9.902489    1.802467   -0.714193
     27          6           0      -11.178289    1.518014   -1.174478
     28          6           0      -11.195608    0.135339   -1.330991
     29          6           0       -9.924463   -0.385825   -0.853518
     30          6           0      -12.235651    2.542978   -1.395773
     31          6           0      -12.299775   -0.697489   -1.830974
     32          6           0      -12.114627   -1.084280   -3.372325
     33          7           0       -7.268764   -1.377238   -0.204705
     34          6           0       -8.370085   -2.261148   -0.487940
     35          6           0       -7.806592   -3.663377   -0.543785
     36          6           0       -6.477582   -3.576846   -0.189631
     37          6           0       -6.231748   -2.200073    0.007278
     38          6           0       -8.574454   -4.899561   -0.856967
     39          6           0       -5.296022   -4.398986    0.167060
     40          8           0       -5.171844   -5.570764    0.240801
     41          6           0       -4.205917   -3.319264    0.629297
     42          6           0       -3.633123   -3.613495    1.963600
     43          8           0       -3.818844   -3.089098    2.959929
     44          8           0       -2.923089   -4.686517    1.911431
     45          6           0       -2.395597   -5.278117    3.123457
     46          6           0        2.783154   -0.661702   -1.211199
     47          6           0        4.113703   -0.356509   -0.465073
     48          6           0        5.061409    0.448911   -0.935655
     49          6           0        4.982894    1.254616   -2.186698
     50          6           0        6.438883    0.482411   -0.245996
     51          6           0        7.561088   -0.170132   -0.927296
     52          6           0        8.899425    0.017365   -0.206766
     53          6           0       10.137505   -0.472519   -0.883559
     54          6           0       10.069188   -1.929068   -1.333945
     55          6           0       11.362138   -0.220702   -0.002986
     56          6           0       12.780041   -0.473964   -0.702825
     57          6           0       13.980663   -0.127423    0.208992
     58          6           0       15.376045   -0.316579   -0.503146
     59          6           0       15.784599   -1.774200   -0.747147
     60          6           0       16.417935    0.407677    0.419119
     61          6           0       17.762294    0.617017   -0.170878
     62          6           0       18.811988    1.274778    0.694505
     63          6           0       20.259123    1.226835    0.238105
     64          6           0       20.315986    2.079175   -1.159518
     65          6           0       21.134274    1.884281    1.243096
     66          1           0       -4.239104    3.715011    1.339133
     67          1           0      -10.101736    3.712239   -0.364861
     68          1           0      -10.265046   -2.345750   -1.087163
     69          1           0       -2.729481   -1.171825    2.012485
     70          1           0       -2.285974    1.675668    0.918592
     71          1           0       -1.752234    1.160348    3.411977
     72          1           0       -2.926301    2.459891    3.415432
     73          1           0       -3.561494    0.753431    3.724629
     74          1           0       -1.902120   -1.710966   -0.329630
     75          1           0       -1.987159    0.137058   -0.781361
     76          1           0       -0.126930    0.381334    0.794171
     77          1           0       -0.160223   -1.129237    1.380271
     78          1           0       -5.951424    6.862248    0.909154
     79          1           0       -5.402515    5.847624    2.433532
     80          1           0       -4.455034    5.786119    1.083565
     81          1           0       -9.347974    6.123553   -0.499377
     82          1           0       -9.083932    7.930488    0.416894
     83          1           0       -7.848435    7.374244    1.699545
     84          1           0      -11.862095    3.253469   -2.062366
     85          1           0      -13.119283    2.202940   -1.794358
     86          1           0      -12.336657    3.167761   -0.533329
     87          1           0      -12.436283   -1.582594   -1.033130
     88          1           0      -13.108611   -0.307514   -1.771669
     89          1           0      -12.810687   -1.970568   -3.640420
     90          1           0      -12.331807   -0.200511   -3.848844
     91          1           0      -11.012335   -1.469941   -3.344049
     92          1           0       -9.053877   -5.040590   -1.859666
     93          1           0       -8.112017   -5.789785   -0.845844
     94          1           0       -9.619094   -5.034540   -0.361317
     95          1           0       -3.480812   -3.527559   -0.268779
     96          1           0       -2.028504   -4.470988    3.897826
     97          1           0       -3.221406   -5.859713    3.720540
     98          1           0       -1.701503   -5.928154    2.833133
     99          1           0        2.715246   -1.623597   -1.567803
    100          1           0        2.706238    0.055486   -2.024188
    101          1           0        4.296798   -1.100323    0.302507
    102          1           0        3.917340    1.672171   -2.386887
    103          1           0        5.584458    2.205504   -2.163005
    104          1           0        5.483114    0.705570   -2.980915
    105          1           0        6.580457    1.499282    0.065965
    106          1           0        6.325328    0.091838    0.853104
    107          1           0        7.533546   -1.294125   -1.300427
    108          1           0        7.755171    0.156904   -1.842191
    109          1           0        9.019547    1.017789   -0.003155
    110          1           0        8.764240   -0.567741    0.717679
    111          1           0       10.332876   -0.046166   -1.773440
    112          1           0        9.341382   -2.364847   -2.096866
    113          1           0       10.934686   -2.278936   -1.883175
    114          1           0        9.780459   -2.506498   -0.533700
    115          1           0       11.308792    0.839581    0.240309
    116          1           0       11.399327   -0.752524    0.912949
    117          1           0       12.919543   -1.522277   -1.007682
    118          1           0       13.014727    0.311238   -1.441502
    119          1           0       13.946006    0.810908    0.736455
    120          1           0       13.825325   -0.866449    1.050343
    121          1           0       15.292016    0.237311   -1.424431
    122          1           0       15.780906   -2.434210    0.272121
    123          1           0       15.169981   -2.218779   -1.632487
    124          1           0       16.733923   -1.659598   -1.125725
    125          1           0       16.052962    1.309123    0.931507
    126          1           0       16.589650   -0.211209    1.320019
    127          1           0       18.161963   -0.432890   -0.464984
    128          1           0       17.612100    1.183656   -1.136395
    129          1           0       18.510553    2.253487    0.781055
    130          1           0       18.846837    0.790997    1.707580
    131          1           0       20.409244    0.141978    0.166533
    132          1           0       19.924812    2.944694   -1.000888
    133          1           0       21.257561    2.399289   -1.207311
    134          1           0       19.879418    1.481867   -2.025686
    135          1           0       21.001927    1.488423    2.381496
    136          1           0       22.295683    1.978878    1.053211
    137          1           0       20.650521    2.942595    1.440195
 ---------------------------------------------------------------------

 SCF Done:  E(RCAM-B3LYP) =  -2932.68031387     A.U. after   15 cycles

 Excitation energies and oscillator strengths:

 Excited State   1:      Singlet-A      2.1666 eV  572.25 nm  f=0.1991  <S**2>=0.000
     240 -> 242       -0.12730
     240 -> 243       -0.28216
     241 -> 242        0.61921
 This state for optimization and/or second-order correction.
 Total Energy, E(TD-HF/TD-KS) =  -2932.60069279
 Copying the excited state density for this state as the 1-particle RhoCI density.

 The electronic state is 1-A.
 Alpha  occ. eigenvalues --  -46.83516 -19.25419 -19.25317 -19.21425 -19.20429
 Alpha  occ. eigenvalues --  -19.19885 -14.40624 -14.39092 -14.38926 -14.38159
 Alpha  occ. eigenvalues --  -10.39970 -10.37696 -10.35857 -10.31786 -10.30454
 Alpha  occ. eigenvalues --  -10.29999 -10.29975 -10.29745 -10.29502 -10.28941
 Alpha  occ. eigenvalues --  -10.28795 -10.28607 -10.28497 -10.28362 -10.28314
 Alpha  occ. eigenvalues --  -10.28180 -10.28171 -10.28068 -10.27717 -10.27515
 Alpha  occ. eigenvalues --  -10.27503 -10.27210 -10.27183 -10.27127 -10.26991
 Alpha  occ. eigenvalues --  -10.26639 -10.26225 -10.26082 -10.26038 -10.26019
 Alpha  occ. eigenvalues --  -10.26015 -10.25912 -10.25831 -10.25752 -10.25669
 Alpha  occ. eigenvalues --  -10.25659 -10.25644 -10.25612 -10.25576 -10.25550
 Alpha  occ. eigenvalues --  -10.25427 -10.25169 -10.25042 -10.24722 -10.24719
 Alpha  occ. eigenvalues --  -10.24696 -10.24648 -10.24503 -10.24471 -10.24424
 Alpha  occ. eigenvalues --  -10.24416 -10.23872 -10.23802 -10.23462 -10.22900
 Alpha  occ. eigenvalues --   -3.12674  -1.87368  -1.86912  -1.86867  -1.21315
 Alpha  occ. eigenvalues --   -1.16028  -1.13773  -1.10914  -1.04694  -1.04543
 Alpha  occ. eigenvalues --   -1.03752  -1.02692  -1.01434  -0.92126  -0.91625
 Alpha  occ. eigenvalues --   -0.91341  -0.90498  -0.89665  -0.89470  -0.89090
 Alpha  occ. eigenvalues --   -0.88758  -0.88330  -0.88301  -0.87350  -0.86930
 Alpha  occ. eigenvalues --   -0.85171  -0.84660  -0.84458  -0.83373  -0.83216
 Alpha  occ. eigenvalues --   -0.82198  -0.81386  -0.80502  -0.79975  -0.78586
 Alpha  occ. eigenvalues --   -0.77980  -0.77313  -0.76614  -0.76588  -0.76258
 Alpha  occ. eigenvalues --   -0.76061  -0.75347  -0.74490  -0.73757  -0.72814
 Alpha  occ. eigenvalues --   -0.72549  -0.70952  -0.70309  -0.69161  -0.68726
 Alpha  occ. eigenvalues --   -0.67520  -0.66902  -0.65926  -0.64772  -0.64654
 Alpha  occ. eigenvalues --   -0.63904  -0.63736  -0.63179  -0.62764  -0.62692
 Alpha  occ. eigenvalues --   -0.62127  -0.61313  -0.60512  -0.60006  -0.59508
 Alpha  occ. eigenvalues --   -0.59174  -0.58895  -0.58061  -0.57539  -0.57217
 Alpha  occ. eigenvalues --   -0.56686  -0.56155  -0.55566  -0.55326  -0.55154
 Alpha  occ. eigenvalues --   -0.55010  -0.54042  -0.53992  -0.53655  -0.53289
 Alpha  occ. eigenvalues --   -0.53062  -0.52789  -0.52290  -0.52149  -0.51935
 Alpha  occ. eigenvalues --   -0.51702  -0.51506  -0.51230  -0.50821  -0.50762
 Alpha  occ. eigenvalues --   -0.50596  -0.50427  -0.50170  -0.49949  -0.49489
 Alpha  occ. eigenvalues --   -0.49384  -0.49208  -0.48930  -0.48456  -0.48394
 Alpha  occ. eigenvalues --   -0.47950  -0.47684  -0.47661  -0.47518  -0.47351
 Alpha  occ. eigenvalues --   -0.47105  -0.46880  -0.46733  -0.46652  -0.46406
 Alpha  occ. eigenvalues --   -0.46069  -0.45685  -0.45580  -0.45475  -0.45414
 Alpha  occ. eigenvalues --   -0.45248  -0.44974  -0.44720  -0.44505  -0.44259
 Alpha  occ. eigenvalues --   -0.44103  -0.43733  -0.43689  -0.43181  -0.42814
 Alpha  occ. eigenvalues --   -0.42738  -0.42620  -0.42508  -0.42399  -0.42336
 Alpha  occ. eigenvalues --   -0.41954  -0.41739  -0.41571  -0.41466  -0.41234
 Alpha  occ. eigenvalues --   -0.41054  -0.40780  -0.40553  -0.40450  -0.40406
 Alpha  occ. eigenvalues --   -0.40079  -0.39839  -0.39690  -0.39529  -0.39042
 Alpha  occ. eigenvalues --   -0.38877  -0.38836  -0.38130  -0.37741  -0.37295
 Alpha  occ. eigenvalues --   -0.37246  -0.37104  -0.36697  -0.36641  -0.36435
 Alpha  occ. eigenvalues --   -0.36005  -0.35913  -0.35734  -0.35658  -0.35570
 Alpha  occ. eigenvalues --   -0.35539  -0.34916  -0.34398  -0.33917  -0.33600
 Alpha  occ. eigenvalues --   -0.33536  -0.32874  -0.32784  -0.30841  -0.30155
 Alpha  occ. eigenvalues --   -0.29699  -0.29497  -0.27823  -0.27219  -0.22740
 Alpha  occ. eigenvalues --   -0.21262
 Alpha virt. eigenvalues --   -0.05788  -0.03249   0.02251   0.03694   0.04165
 Alpha virt. eigenvalues --    0.06091   0.07036   0.07359   0.07603   0.08019
 Alpha virt. eigenvalues --    0.08711   0.10781   0.11430   0.12028   0.12518

 Mulliken charges:
               1
     1  Mg   0.820491
     2  C    0.008732
     3  C   -0.182536
     4  C   -0.180721
     5  C   -0.233520
     6  N   -0.636738
     7  C    0.376930
     8  C   -0.181930
     9  C   -0.136580
    10  C    0.326879
    11  C   -0.296749
    12  C   -0.172883
    13  C   -0.263553
    14  C    0.601608
    15  O   -0.519337
    16  O   -0.483162
    17  N   -0.767286
    18  C    0.283183
    19  C    0.061087
    20  C    0.019630
    21  C    0.363697
    22  C   -0.410209
    23  C   -0.107918
    24  C   -0.234457
    25  N   -0.700508
    26  C    0.281516
    27  C    0.048092
    28  C   -0.015242
    29  C    0.321290
    30  C   -0.371504
    31  C   -0.221339
    32  C   -0.303054
    33  N   -0.720128
    34  C    0.287711
    35  C    0.048341
    36  C    0.008379
    37  C    0.342805
    38  C   -0.399897
    39  C    0.372585
    40  O   -0.416695
    41  C   -0.346923
    42  C    0.609374
    43  O   -0.448326
    44  O   -0.431543
    45  C   -0.080531
    46  C    0.041158
    47  C   -0.132457
    48  C    0.104437
    49  C   -0.371039
    50  C   -0.224864
    51  C   -0.168330
    52  C   -0.170992
    53  C   -0.058768
    54  C   -0.332578
    55  C   -0.174769
    56  C   -0.193913
    57  C   -0.187267
    58  C   -0.057686
    59  C   -0.297683
    60  C   -0.180718
    61  C   -0.177634
    62  C   -0.160115
    63  C   -0.057534
    64  C   -0.307099
    65  C   -0.299864
    66  H    0.056488
    67  H    0.068348
    68  H    0.077409
    69  H    0.121324
    70  H    0.108943
    71  H    0.086768
    72  H    0.127805
    73  H    0.130502
    74  H    0.109130
    75  H    0.131031
    76  H    0.149572
    77  H    0.153232
    78  H    0.116870
    79  H    0.118696
    80  H    0.123819
    81  H    0.096603
    82  H    0.100144
    83  H    0.104556
    84  H    0.128718
    85  H    0.118043
    86  H    0.127350
    87  H    0.078746
    88  H    0.096409
    89  H    0.096747
    90  H    0.124245
    91  H    0.107055
    92  H    0.121659
    93  H    0.151295
    94  H    0.116023
    95  H    0.154777
    96  H    0.122205
    97  H    0.118166
    98  H    0.136165
    99  H    0.122470
   100  H    0.105489
   101  H    0.090363
   102  H    0.115343
   103  H    0.103579
   104  H    0.134285
   105  H    0.106244
   106  H    0.080468
   107  H    0.082029
   108  H    0.104006
   109  H    0.094809
   110  H    0.088740
   111  H    0.095030
   112  H    0.082614
   113  H    0.102314
   114  H    0.108503
   115  H    0.088839
   116  H    0.094744
   117  H    0.104710
   118  H    0.088030
   119  H    0.089860
   120  H    0.072829
   121  H    0.087250
   122  H    0.092021
   123  H    0.091525
   124  H    0.117184
   125  H    0.085948
   126  H    0.086821
   127  H    0.073617
   128  H    0.082614
   129  H    0.093846
   130  H    0.076116
   131  H    0.087992
   132  H    0.109409
   133  H    0.102564
   134  H    0.105733
   135  H    0.079779
   136  H    0.097088
   137  H    0.085005
 Sum of Mulliken charges =   0.00000

 Dipole moment (field-independent basis, Debye):
    X=              0.8620    Y=              4.0806    Z=              0.8117  Tot=              4.2489
 Quadrupole moment (field-independent basis, Debye-Ang):
   XX=           -340.4123   YY=           -380.8341   ZZ=           -396.9113
   XY=            -13.7180   XZ=             11.3088   YZ=             -2.5070

 Normal termination of Gaussian 09 at Tue Jul  2 14:25:50 2019.
