 Gaussian 16, Revision A.03,
 Gaussian 16:  ES64L-G16RevA.03 25-Dec-2016

 ----------------------------------------------------------------------
 # td=(NStates=1) iop(3/107=0140000000,3/108=0140000000) CAM-B3LYP/6-31
 G(d,p)
 ----------------------------------------------------------------------

 --
 TD
 --
 Symbolic Z-matrix:
 Charge =  0 Multiplicity = 1

                         Standard orientation:
 ---------------------------------------------------------------------
 Center     Atomic      Atomic             Coordinates (Angstroms)
 Number     Number       Type             X           Y           Z
 ---------------------------------------------------------------------
      1         12           0       -7.060624    0.601282    0.051018
      2          6           0       -4.899051   -1.931354    0.443124
      3          6           0       -4.710381    2.800390    1.132286
      4          6           0       -9.353188    3.139371   -0.432767
      5          6           0       -9.587303   -1.627155   -0.792869
      6          7           0       -5.072230    0.442059    0.736584
      7          6           0       -4.344782   -0.730476    0.743487
      8          6           0       -2.913719   -0.465077    1.162103
      9          6           0       -2.930193    1.064353    1.676876
     10          6           0       -4.329118    1.501247    1.190407
     11          6           0       -2.662451    1.310459    3.099663
     12          6           0       -1.946856   -0.829657    0.038657
     13          6           0       -0.457054   -0.537994    0.413085
     14          6           0        0.474560   -0.884215   -0.654274
     15          8           0        0.252525   -1.344231   -1.731795
     16          8           0        1.779856   -0.654437   -0.226542
     17          7           0       -7.040703    2.602985    0.274149
     18          6           0       -5.966573    3.400226    0.750450
     19          6           0       -6.253211    4.742397    0.731207
     20          6           0       -7.635948    4.872851    0.294736
     21          6           0       -8.038869    3.489939   -0.002287
     22          6           0       -5.402934    5.870889    1.080986
     23          6           0       -8.442263    6.057775    0.147050
     24          6           0       -8.264380    7.296628    0.670249
     25          7           0       -9.071945    0.667249   -0.499821
     26          6           0       -9.837537    1.875276   -0.638388
     27          6           0      -11.169287    1.665532   -0.974764
     28          6           0      -11.342666    0.282542   -1.095281
     29          6           0       -9.989691   -0.295181   -0.730117
     30          6           0      -12.271724    2.660569   -1.160893
     31          6           0      -12.532767   -0.576916   -1.684948
     32          6           0      -12.400988   -1.039270   -3.054364
     33          7           0       -7.197695   -1.382590   -0.205032
     34          6           0       -8.333253   -2.217165   -0.495711
     35          6           0       -7.886166   -3.554091   -0.588448
     36          6           0       -6.457609   -3.551133   -0.191070
     37          6           0       -6.219342   -2.185654    0.070589
     38          6           0       -8.655998   -4.753472   -0.840073
     39          6           0       -5.329322   -4.391231    0.217859
     40          8           0       -5.082449   -5.620202    0.083929
     41          6           0       -4.184794   -3.285746    0.526149
     42          6           0       -3.535569   -3.741115    1.761608
     43          8           0       -3.777231   -3.169852    2.894513
     44          8           0       -2.756945   -4.811692    1.679626
     45          6           0       -2.236579   -5.395206    2.873485
     46          6           0        2.824722   -0.873756   -1.121998
     47          6           0        4.073473   -0.513854   -0.419693
     48          6           0        5.061372    0.271678   -0.893594
     49          6           0        4.977854    1.094740   -2.320539
     50          6           0        6.495601    0.434659   -0.126808
     51          6           0        7.616737   -0.184878   -0.907307
     52          6           0        8.939667   -0.084183   -0.029343
     53          6           0       10.216166   -0.530453   -0.845434
     54          6           0       10.012711   -2.045559   -1.306681
     55          6           0       11.396009   -0.260628    0.131585
     56          6           0       12.747237   -0.353436   -0.605623
     57          6           0       13.945679    0.018758    0.213003
     58          6           0       15.324367   -0.154690   -0.444036
     59          6           0       15.548686   -1.676674   -0.956423
     60          6           0       16.458205    0.362861    0.403354
     61          6           0       17.648082    0.583736   -0.272075
     62          6           0       18.736547    1.186698    0.719154
     63          6           0       20.110834    1.370609    0.208552
     64          6           0       20.287758    2.302508   -1.064457
     65          6           0       21.133713    1.948087    1.196512
     66          1           0       -4.060214    3.476821    1.572727
     67          1           0      -10.107527    3.923373   -0.682437
     68          1           0      -10.288308   -2.384336   -0.963331
     69          1           0       -2.866759   -0.939266    2.215415
     70          1           0       -2.333767    1.656592    0.926130
     71          1           0       -1.688338    0.908321    3.390953
     72          1           0       -2.649657    2.291153    3.302524
     73          1           0       -3.222965    0.750088    3.891677
     74          1           0       -2.115782   -1.778218   -0.368017
     75          1           0       -2.176503   -0.153037   -0.798888
     76          1           0       -0.527670    0.451829    0.884987
     77          1           0       -0.262205   -1.418504    1.168267
     78          1           0       -5.793250    6.644076    0.647640
     79          1           0       -5.527364    6.107012    2.115888
     80          1           0       -4.342899    5.707219    0.916758
     81          1           0       -9.214464    5.935287   -0.451301
     82          1           0       -8.935096    8.087127    0.227299
     83          1           0       -7.506539    7.529266    1.419905
     84          1           0      -12.082631    3.437482   -1.993098
     85          1           0      -13.300178    2.074932   -1.310725
     86          1           0      -12.206396    3.237450   -0.154858
     87          1           0      -12.800023   -1.292100   -0.927185
     88          1           0      -13.332306    0.006954   -1.311976
     89          1           0      -13.160509   -1.850710   -3.234763
     90          1           0      -12.630206   -0.371479   -3.839779
     91          1           0      -11.459394   -1.549752   -3.268642
     92          1           0       -9.091796   -4.481069   -1.964188
     93          1           0       -8.095911   -5.609180   -0.882705
     94          1           0       -9.463514   -4.863316   -0.497015
     95          1           0       -3.353891   -3.226859   -0.114533
     96          1           0       -1.524677   -4.562376    3.168239
     97          1           0       -2.895984   -5.677347    3.583691
     98          1           0       -1.665234   -6.319196    2.648621
     99          1           0        2.937158   -1.963299   -1.554350
    100          1           0        2.606077   -0.311206   -2.096745
    101          1           0        4.156410   -0.630051    0.780223
    102          1           0        3.967173    1.239839   -2.577056
    103          1           0        5.417817    2.149446   -2.081832
    104          1           0        5.704999    0.603198   -2.951050
    105          1           0        6.730292    1.356129    0.338321
    106          1           0        6.290637    0.102052    0.804176
    107          1           0        7.514940   -1.254419   -1.021997
    108          1           0        7.982177    0.327472   -1.896323
    109          1           0        9.230785    0.868818    0.363965
    110          1           0        8.841522   -0.593341    0.807591
    111          1           0       10.258206    0.143142   -1.821229
    112          1           0        9.357569   -2.191994   -2.143866
    113          1           0       11.087939   -2.635221   -1.501975
    114          1           0        9.461787   -2.687128   -0.398962
    115          1           0       11.160387    0.818192    0.524272
    116          1           0       11.248876   -1.011673    1.128067
    117          1           0       12.787420   -1.365272   -0.805339
    118          1           0       12.693528    0.309458   -1.448369
    119          1           0       13.890105    1.238231    0.425749
    120          1           0       13.906224   -0.710749    1.117892
    121          1           0       15.272153    0.497006   -1.389313
    122          1           0       15.660296   -2.241572    0.018440
    123          1           0       14.734753   -1.771512   -1.677460
    124          1           0       16.522622   -1.822423   -1.329123
    125          1           0       16.250431    1.361435    0.867918
    126          1           0       16.549065   -0.432266    1.155836
    127          1           0       17.854968   -0.379793   -0.631425
    128          1           0       17.440714    1.247839   -1.046359
    129          1           0       18.360623    2.121122    0.911020
    130          1           0       18.635060    0.606831    1.621126
    131          1           0       20.567706    0.396211   -0.035801
    132          1           0       20.089919    3.334896   -0.840615
    133          1           0       21.337671    2.186892   -1.436701
    134          1           0       19.417136    2.336201   -1.841968
    135          1           0       21.131408    1.380007    2.039353
    136          1           0       22.067492    2.309735    0.871034
    137          1           0       20.586903    2.992182    1.608668
 ---------------------------------------------------------------------

 SCF Done:  E(RCAM-B3LYP) =  -2933.47860136     A.U. after   16 cycles

 Excitation energies and oscillator strengths:

 Excited State   1:      Singlet-A      1.9588 eV  632.95 nm  f=0.2846  <S**2>=0.000
     240 -> 243       -0.20602
     241 -> 242        0.66924
 This state for optimization and/or second-order correction.
 Total Energy, E(TD-HF/TD-DFT) =  -2933.40661610
 Copying the excited state density for this state as the 1-particle RhoCI density.

 The electronic state is 1-A.
 Alpha  occ. eigenvalues --  -46.79383 -19.22205 -19.21050 -19.17459 -19.15947
 Alpha  occ. eigenvalues --  -19.14242 -14.36998 -14.35421 -14.35090 -14.34702
 Alpha  occ. eigenvalues --  -10.34715 -10.33770 -10.31016 -10.27780 -10.26571
 Alpha  occ. eigenvalues --  -10.25656 -10.25638 -10.25219 -10.25174 -10.25063
 Alpha  occ. eigenvalues --  -10.24887 -10.24823 -10.24368 -10.24273 -10.24231
 Alpha  occ. eigenvalues --  -10.23841 -10.23830 -10.23428 -10.23348 -10.23336
 Alpha  occ. eigenvalues --  -10.23196 -10.23091 -10.23034 -10.23025 -10.23003
 Alpha  occ. eigenvalues --  -10.22890 -10.22597 -10.22563 -10.22354 -10.22328
 Alpha  occ. eigenvalues --  -10.22221 -10.22037 -10.21983 -10.21909 -10.21886
 Alpha  occ. eigenvalues --  -10.21823 -10.21798 -10.21622 -10.21602 -10.21581
 Alpha  occ. eigenvalues --  -10.21580 -10.21178 -10.20913 -10.20850 -10.20728
 Alpha  occ. eigenvalues --  -10.20655 -10.20625 -10.20386 -10.19944 -10.19869
 Alpha  occ. eigenvalues --  -10.19748 -10.19723 -10.19327 -10.19184 -10.18424
 Alpha  occ. eigenvalues --   -3.08043  -1.82984  -1.82520  -1.82451  -1.13198
 Alpha  occ. eigenvalues --   -1.12586  -1.05398  -1.03233  -0.99694  -0.99125
 Alpha  occ. eigenvalues --   -0.97742  -0.97499  -0.96514  -0.87319  -0.86630
 Alpha  occ. eigenvalues --   -0.85272  -0.84697  -0.84426  -0.84145  -0.83845
 Alpha  occ. eigenvalues --   -0.83496  -0.83363  -0.83055  -0.82586  -0.81635
 Alpha  occ. eigenvalues --   -0.80808  -0.79955  -0.79592  -0.78560  -0.78382
 Alpha  occ. eigenvalues --   -0.77322  -0.76602  -0.75990  -0.75095  -0.73637
 Alpha  occ. eigenvalues --   -0.73258  -0.72545  -0.72428  -0.71606  -0.70916
 Alpha  occ. eigenvalues --   -0.70538  -0.70077  -0.69725  -0.69573  -0.68905
 Alpha  occ. eigenvalues --   -0.68068  -0.66933  -0.66133  -0.65187  -0.64289
 Alpha  occ. eigenvalues --   -0.63095  -0.62730  -0.61138  -0.60919  -0.60361
 Alpha  occ. eigenvalues --   -0.59928  -0.59343  -0.58977  -0.58022  -0.57474
 Alpha  occ. eigenvalues --   -0.56999  -0.56819  -0.56649  -0.55853  -0.55630
 Alpha  occ. eigenvalues --   -0.54925  -0.54265  -0.53304  -0.53105  -0.52547
 Alpha  occ. eigenvalues --   -0.52280  -0.52109  -0.51559  -0.51381  -0.51187
 Alpha  occ. eigenvalues --   -0.50837  -0.50345  -0.50202  -0.49788  -0.49588
 Alpha  occ. eigenvalues --   -0.49344  -0.49035  -0.48701  -0.48607  -0.48105
 Alpha  occ. eigenvalues --   -0.47506  -0.47442  -0.47381  -0.47057  -0.46882
 Alpha  occ. eigenvalues --   -0.46651  -0.46312  -0.46268  -0.46171  -0.46064
 Alpha  occ. eigenvalues --   -0.45842  -0.45743  -0.45429  -0.45280  -0.44994
 Alpha  occ. eigenvalues --   -0.44807  -0.44657  -0.44505  -0.44458  -0.43894
 Alpha  occ. eigenvalues --   -0.43805  -0.43490  -0.43322  -0.43257  -0.42821
 Alpha  occ. eigenvalues --   -0.42531  -0.42330  -0.42138  -0.42106  -0.41784
 Alpha  occ. eigenvalues --   -0.41717  -0.41424  -0.41336  -0.41184  -0.40745
 Alpha  occ. eigenvalues --   -0.40662  -0.40404  -0.40346  -0.40084  -0.39902
 Alpha  occ. eigenvalues --   -0.39737  -0.39543  -0.39096  -0.39082  -0.38665
 Alpha  occ. eigenvalues --   -0.38562  -0.38407  -0.38365  -0.38128  -0.37955
 Alpha  occ. eigenvalues --   -0.37853  -0.37839  -0.37653  -0.37187  -0.36782
 Alpha  occ. eigenvalues --   -0.36443  -0.36275  -0.36154  -0.35901  -0.35776
 Alpha  occ. eigenvalues --   -0.35712  -0.35214  -0.34948  -0.34772  -0.34461
 Alpha  occ. eigenvalues --   -0.34376  -0.33907  -0.33786  -0.33753  -0.33485
 Alpha  occ. eigenvalues --   -0.32890  -0.32748  -0.32709  -0.32663  -0.32238
 Alpha  occ. eigenvalues --   -0.31957  -0.31557  -0.31228  -0.30936  -0.30594
 Alpha  occ. eigenvalues --   -0.30000  -0.29680  -0.28912  -0.27855  -0.26467
 Alpha  occ. eigenvalues --   -0.26214  -0.26106  -0.25743  -0.24277  -0.21393
 Alpha  occ. eigenvalues --   -0.20454
 Alpha virt. eigenvalues --   -0.08120  -0.03840  -0.00345   0.02271   0.03534
 Alpha virt. eigenvalues --    0.03998   0.04810   0.05141   0.05189   0.06056
 Alpha virt. eigenvalues --    0.06743   0.08683   0.09149   0.09778   0.10094

 Mulliken charges:
               1
     1  Mg   0.801456
     2  C    0.094605
     3  C   -0.182073
     4  C   -0.187401
     5  C   -0.188279
     6  N   -0.640880
     7  C    0.296915
     8  C   -0.169708
     9  C   -0.151489
    10  C    0.330615
    11  C   -0.322488
    12  C   -0.191590
    13  C   -0.264343
    14  C    0.616612
    15  O   -0.450438
    16  O   -0.476035
    17  N   -0.720572
    18  C    0.295854
    19  C    0.022260
    20  C   -0.000011
    21  C    0.310382
    22  C   -0.370700
    23  C   -0.050868
    24  C   -0.255333
    25  N   -0.668830
    26  C    0.313931
    27  C    0.070160
    28  C   -0.038598
    29  C    0.308235
    30  C   -0.375289
    31  C   -0.213373
    32  C   -0.310291
    33  N   -0.736577
    34  C    0.274803
    35  C   -0.011713
    36  C   -0.002716
    37  C    0.350072
    38  C   -0.321682
    39  C    0.366047
    40  O   -0.479520
    41  C   -0.306758
    42  C    0.587855
    43  O   -0.529800
    44  O   -0.424123
    45  C   -0.072086
    46  C    0.027905
    47  C   -0.120894
    48  C    0.055821
    49  C   -0.354196
    50  C   -0.208474
    51  C   -0.167160
    52  C   -0.190160
    53  C   -0.044434
    54  C   -0.302129
    55  C   -0.168727
    56  C   -0.165147
    57  C   -0.142096
    58  C   -0.074938
    59  C   -0.327574
    60  C   -0.150586
    61  C   -0.156324
    62  C   -0.172563
    63  C   -0.049644
    64  C   -0.318421
    65  C   -0.294495
    66  H    0.060532
    67  H    0.083532
    68  H    0.072847
    69  H    0.139210
    70  H    0.107166
    71  H    0.110030
    72  H    0.122598
    73  H    0.129183
    74  H    0.127061
    75  H    0.118946
    76  H    0.143393
    77  H    0.140475
    78  H    0.126440
    79  H    0.126067
    80  H    0.112214
    81  H    0.076921
    82  H    0.097888
    83  H    0.100751
    84  H    0.120324
    85  H    0.109253
    86  H    0.120346
    87  H    0.111644
    88  H    0.100260
    89  H    0.099448
    90  H    0.124018
    91  H    0.120486
    92  H    0.084254
    93  H    0.150930
    94  H    0.129688
    95  H    0.152388
    96  H    0.117055
    97  H    0.147454
    98  H    0.122529
    99  H    0.107737
   100  H    0.106396
   101  H    0.081823
   102  H    0.120077
   103  H    0.101520
   104  H    0.129611
   105  H    0.097099
   106  H    0.098729
   107  H    0.112523
   108  H    0.086166
   109  H    0.083743
   110  H    0.104720
   111  H    0.070138
   112  H    0.121311
   113  H    0.075601
   114  H    0.074391
   115  H    0.077507
   116  H    0.064048
   117  H    0.110238
   118  H    0.094894
   119  H    0.059506
   120  H    0.071674
   121  H    0.057568
   122  H    0.095286
   123  H    0.118342
   124  H    0.113631
   125  H    0.071378
   126  H    0.076095
   127  H    0.085490
   128  H    0.093752
   129  H    0.096628
   130  H    0.091040
   131  H    0.085539
   132  H    0.103957
   133  H    0.104171
   134  H    0.079848
   135  H    0.107195
   136  H    0.113149
   137  H    0.050141
 Sum of Mulliken charges =  -0.00000

 Dipole moment (field-independent basis, Debye):
    X=             -0.8946    Y=              4.1844    Z=              0.2939  Tot=              4.2890
 Quadrupole moment (field-independent basis, Debye-Ang):
   XX=           -324.4396   YY=           -394.2228   ZZ=           -397.9399
   XY=            -18.2149   XZ=             17.0038   YZ=             -3.7958

 Normal termination of Gaussian 16 at Sun Sep 22 15:13:44 2019.
