 Gaussian 16, Revision A.03,
 Gaussian 16:  ES64L-G16RevA.03 25-Dec-2016

 ----------------------------------------------------------------------
 # td=(NStates=1) iop(3/107=0140000000,3/108=0140000000) CAM-B3LYP/6-31
 G(d,p)
 ----------------------------------------------------------------------

 --
 TD
 --
 Symbolic Z-matrix:
 Charge =  0 Multiplicity = 1

                         Standard orientation:
 ---------------------------------------------------------------------
 Center     Atomic      Atomic             Coordinates (Angstroms)
 Number     Number       Type             X           Y           Z
 ---------------------------------------------------------------------
      1         12           0       -7.072066    0.661525    0.077441
      2          6           0       -4.842332   -2.032617    0.500243
      3          6           0       -4.780652    2.786894    1.317244
      4          6           0       -9.314786    3.121665   -0.370856
      5          6           0       -9.541889   -1.725048   -0.886901
      6          7           0       -4.996100    0.416656    0.726639
      7          6           0       -4.314462   -0.737176    0.929529
      8          6           0       -2.885223   -0.403094    1.182030
      9          6           0       -2.948714    1.058006    1.653889
     10          6           0       -4.327919    1.479572    1.192788
     11          6           0       -2.949219    1.174847    3.204022
     12          6           0       -1.873927   -0.661341    0.054410
     13          6           0       -0.393649   -0.454212    0.475265
     14          6           0        0.460574   -0.518861   -0.691075
     15          8           0        0.152738   -0.838766   -1.867379
     16          8           0        1.761034   -0.309255   -0.303712
     17          7           0       -7.078414    2.573262    0.454702
     18          6           0       -5.986326    3.318245    0.852597
     19          6           0       -6.315192    4.724795    0.865427
     20          6           0       -7.644493    4.829831    0.458458
     21          6           0       -8.042705    3.444964    0.174164
     22          6           0       -5.469418    5.907467    1.171419
     23          6           0       -8.494716    5.965552    0.263078
     24          6           0       -8.296386    7.192369    0.771542
     25          7           0       -9.127413    0.631397   -0.437898
     26          6           0       -9.855658    1.845872   -0.603642
     27          6           0      -11.274867    1.528960   -1.092447
     28          6           0      -11.177166    0.147485   -1.318358
     29          6           0       -9.969422   -0.396671   -0.781540
     30          6           0      -12.236587    2.525941   -1.420027
     31          6           0      -12.294234   -0.757439   -1.762228
     32          6           0      -12.303485   -1.192298   -3.304086
     33          7           0       -7.219432   -1.445169   -0.119047
     34          6           0       -8.317381   -2.246133   -0.552543
     35          6           0       -7.942378   -3.617485   -0.562130
     36          6           0       -6.608310   -3.630843   -0.043264
     37          6           0       -6.234408   -2.251351    0.179643
     38          6           0       -8.843735   -4.750525   -0.781630
     39          6           0       -5.338515   -4.371842    0.229823
     40          8           0       -5.240880   -5.526070    0.175904
     41          6           0       -4.185645   -3.357135    0.529594
     42          6           0       -3.574602   -3.833395    1.851991
     43          8           0       -3.799666   -3.277912    2.953590
     44          8           0       -2.703636   -4.826082    1.639939
     45          6           0       -2.129603   -5.419328    2.878794
     46          6           0        2.820128   -0.475766   -1.295377
     47          6           0        4.135779   -0.253246   -0.669239
     48          6           0        5.088314    0.680540   -1.025959
     49          6           0        5.003417    1.510575   -2.200713
     50          6           0        6.406913    0.575183   -0.315175
     51          6           0        7.630329   -0.058496   -1.008864
     52          6           0        8.845286   -0.038407   -0.188692
     53          6           0       10.173988   -0.641051   -0.860771
     54          6           0       10.098134   -2.042219   -1.389842
     55          6           0       11.398534   -0.297075    0.035193
     56          6           0       12.702612   -0.501715   -0.723596
     57          6           0       13.825821   -0.102043    0.141494
     58          6           0       15.296290   -0.275403   -0.416577
     59          6           0       15.658455   -1.809971   -0.673852
     60          6           0       16.391602    0.350993    0.536961
     61          6           0       17.778365    0.390205   -0.080014
     62          6           0       18.840833    1.227067    0.763145
     63          6           0       20.214666    1.201480    0.277384
     64          6           0       20.241939    2.058801   -0.988598
     65          6           0       21.250805    1.810616    1.217101
     66          1           0       -4.253621    3.507975    1.853686
     67          1           0      -10.038892    4.038684   -0.408717
     68          1           0      -10.128606   -2.368272   -1.367089
     69          1           0       -2.614235   -1.049975    1.987443
     70          1           0       -2.249303    1.726562    1.189532
     71          1           0       -2.121483    0.817549    3.788233
     72          1           0       -3.049368    2.326308    3.519728
     73          1           0       -3.995488    0.889199    3.637217
     74          1           0       -1.827572   -1.708073   -0.453418
     75          1           0       -2.031636   -0.036288   -0.743506
     76          1           0       -0.016894    0.366198    1.227257
     77          1           0       -0.079561   -1.267362    1.111773
     78          1           0       -5.832685    6.620113    0.545680
     79          1           0       -5.573585    6.186381    2.124580
     80          1           0       -4.411996    5.781756    0.902500
     81          1           0       -9.265586    5.771793   -0.520140
     82          1           0       -8.801430    8.073434    0.282628
     83          1           0       -7.580467    7.513428    1.464160
     84          1           0      -11.902949    3.346081   -2.274319
     85          1           0      -13.175306    2.224475   -1.887620
     86          1           0      -12.456412    3.371651   -0.643141
     87          1           0      -12.148266   -1.617675   -1.084052
     88          1           0      -13.130396   -0.346291   -1.563621
     89          1           0      -13.177142   -1.999349   -3.404812
     90          1           0      -12.521488   -0.414371   -4.066230
     91          1           0      -11.280535   -1.629807   -3.488173
     92          1           0       -9.128611   -4.634974   -1.737040
     93          1           0       -8.361202   -5.821735   -0.853561
     94          1           0       -9.724973   -4.670540   -0.206784
     95          1           0       -3.495592   -3.445888   -0.198764
     96          1           0       -1.509590   -4.596205    3.462740
     97          1           0       -2.805645   -5.904547    3.584747
     98          1           0       -1.355976   -6.309276    2.512137
     99          1           0        2.654803   -1.582424   -1.660932
    100          1           0        2.658076    0.389687   -2.149172
    101          1           0        4.368377   -1.194322   -0.103955
    102          1           0        4.066306    1.287417   -2.833702
    103          1           0        5.012935    2.663298   -2.098385
    104          1           0        6.148206    1.436072   -2.762756
    105          1           0        6.792947    1.786296   -0.229759
    106          1           0        6.344670   -0.096233    0.715830
    107          1           0        7.471753   -1.069563   -1.345653
    108          1           0        7.498478    0.614088   -1.999965
    109          1           0        9.311803    0.949551    0.067501
    110          1           0        8.530378   -0.523320    0.740885
    111          1           0       10.382374    0.002146   -1.898669
    112          1           0        9.229724   -2.057918   -2.179524
    113          1           0       10.974620   -2.342473   -1.930179
    114          1           0        9.925533   -2.815626   -0.731907
    115          1           0       11.281257    0.740732    0.387479
    116          1           0       11.585269   -1.083933    0.737182
    117          1           0       12.824125   -1.483756   -1.126971
    118          1           0       12.866336    0.185746   -1.646024
    119          1           0       13.594559    0.876530    0.478750
    120          1           0       13.718562   -0.767768    1.026936
    121          1           0       15.224483    0.375180   -1.534613
    122          1           0       15.604833   -2.176834    0.346480
    123          1           0       14.842784   -2.058041   -1.504165
    124          1           0       16.741073   -1.729007   -1.098308
    125          1           0       16.087551    1.416336    0.704254
    126          1           0       16.437089   -0.177613    1.459884
    127          1           0       18.240549   -0.583622   -0.263458
    128          1           0       17.675913    1.023801   -0.850282
    129          1           0       18.573068    2.251947    0.744687
    130          1           0       18.591981    0.750896    1.754859
    131          1           0       20.742929    0.106990   -0.043049
    132          1           0       19.881034    3.194469   -0.699484
    133          1           0       21.162243    1.911744   -1.714171
    134          1           0       19.476803    1.723182   -1.679513
    135          1           0       21.103516    1.362180    2.210463
    136          1           0       22.231834    1.974589    0.784656
    137          1           0       21.316620    2.997568    1.349502
 ---------------------------------------------------------------------

 SCF Done:  E(RCAM-B3LYP) =  -2933.49999539     A.U. after   16 cycles

 Excitation energies and oscillator strengths:

 Excited State   1:      Singlet-A      2.0191 eV  614.05 nm  f=0.2104  <S**2>=0.000
     240 -> 243        0.26623
     241 -> 242        0.65179
 This state for optimization and/or second-order correction.
 Total Energy, E(TD-HF/TD-DFT) =  -2933.42579452
 Copying the excited state density for this state as the 1-particle RhoCI density.

 The electronic state is 1-A.
 Alpha  occ. eigenvalues --  -46.80321 -19.23433 -19.21182 -19.16382 -19.16144
 Alpha  occ. eigenvalues --  -19.15578 -14.37449 -14.35201 -14.34887 -14.34296
 Alpha  occ. eigenvalues --  -10.34707 -10.34370 -10.29673 -10.29534 -10.28769
 Alpha  occ. eigenvalues --  -10.26402 -10.25816 -10.25070 -10.24942 -10.24799
 Alpha  occ. eigenvalues --  -10.24715 -10.24659 -10.24474 -10.24072 -10.23913
 Alpha  occ. eigenvalues --  -10.23819 -10.23668 -10.23539 -10.23495 -10.23390
 Alpha  occ. eigenvalues --  -10.23233 -10.23069 -10.23045 -10.23007 -10.22994
 Alpha  occ. eigenvalues --  -10.22976 -10.22908 -10.22722 -10.22618 -10.22539
 Alpha  occ. eigenvalues --  -10.22431 -10.22420 -10.22345 -10.22217 -10.22198
 Alpha  occ. eigenvalues --  -10.22136 -10.21832 -10.21811 -10.21805 -10.21652
 Alpha  occ. eigenvalues --  -10.21548 -10.21430 -10.21138 -10.21064 -10.20932
 Alpha  occ. eigenvalues --  -10.20641 -10.20629 -10.20469 -10.20459 -10.20432
 Alpha  occ. eigenvalues --  -10.20389 -10.20218 -10.20124 -10.19762 -10.19709
 Alpha  occ. eigenvalues --   -3.08779  -1.83729  -1.83238  -1.83186  -1.12402
 Alpha  occ. eigenvalues --   -1.10983  -1.08982  -1.02339  -1.02122  -0.99867
 Alpha  occ. eigenvalues --   -0.98799  -0.97707  -0.95630  -0.86925  -0.86784
 Alpha  occ. eigenvalues --   -0.85814  -0.85302  -0.85052  -0.84614  -0.83758
 Alpha  occ. eigenvalues --   -0.83173  -0.82950  -0.82709  -0.82025  -0.81476
 Alpha  occ. eigenvalues --   -0.80875  -0.79780  -0.78626  -0.78373  -0.77611
 Alpha  occ. eigenvalues --   -0.76746  -0.75977  -0.75651  -0.75354  -0.73827
 Alpha  occ. eigenvalues --   -0.73500  -0.72017  -0.71683  -0.71495  -0.70734
 Alpha  occ. eigenvalues --   -0.70547  -0.70298  -0.69418  -0.68598  -0.67770
 Alpha  occ. eigenvalues --   -0.66855  -0.66103  -0.65202  -0.64368  -0.63909
 Alpha  occ. eigenvalues --   -0.62652  -0.62127  -0.61430  -0.60659  -0.60371
 Alpha  occ. eigenvalues --   -0.59684  -0.58609  -0.58284  -0.57592  -0.57572
 Alpha  occ. eigenvalues --   -0.56497  -0.56341  -0.56055  -0.55461  -0.55102
 Alpha  occ. eigenvalues --   -0.54412  -0.53915  -0.53817  -0.53493  -0.52583
 Alpha  occ. eigenvalues --   -0.52457  -0.51999  -0.51513  -0.51384  -0.51167
 Alpha  occ. eigenvalues --   -0.50801  -0.50524  -0.49899  -0.49741  -0.49143
 Alpha  occ. eigenvalues --   -0.48864  -0.48668  -0.48627  -0.48366  -0.48204
 Alpha  occ. eigenvalues --   -0.47721  -0.47504  -0.47224  -0.47158  -0.47088
 Alpha  occ. eigenvalues --   -0.47019  -0.46664  -0.46473  -0.46362  -0.46006
 Alpha  occ. eigenvalues --   -0.45684  -0.45544  -0.45138  -0.44902  -0.44804
 Alpha  occ. eigenvalues --   -0.44665  -0.44347  -0.44244  -0.44038  -0.43886
 Alpha  occ. eigenvalues --   -0.43599  -0.43486  -0.43249  -0.42740  -0.42545
 Alpha  occ. eigenvalues --   -0.42281  -0.42175  -0.41977  -0.41754  -0.41639
 Alpha  occ. eigenvalues --   -0.41329  -0.40986  -0.40886  -0.40781  -0.40508
 Alpha  occ. eigenvalues --   -0.40276  -0.40227  -0.40077  -0.39930  -0.39900
 Alpha  occ. eigenvalues --   -0.39817  -0.39565  -0.39283  -0.39193  -0.38954
 Alpha  occ. eigenvalues --   -0.38591  -0.38535  -0.38454  -0.38131  -0.38028
 Alpha  occ. eigenvalues --   -0.37940  -0.37763  -0.37632  -0.37546  -0.37148
 Alpha  occ. eigenvalues --   -0.37008  -0.36720  -0.36525  -0.36440  -0.35901
 Alpha  occ. eigenvalues --   -0.35306  -0.35181  -0.34895  -0.34781  -0.34650
 Alpha  occ. eigenvalues --   -0.34555  -0.33890  -0.33524  -0.33237  -0.33231
 Alpha  occ. eigenvalues --   -0.32982  -0.32931  -0.32606  -0.32507  -0.32435
 Alpha  occ. eigenvalues --   -0.32291  -0.31915  -0.31612  -0.30577  -0.30129
 Alpha  occ. eigenvalues --   -0.29978  -0.29651  -0.29246  -0.28016  -0.26363
 Alpha  occ. eigenvalues --   -0.26010  -0.25868  -0.25104  -0.24622  -0.21089
 Alpha  occ. eigenvalues --   -0.19648
 Alpha virt. eigenvalues --   -0.06730  -0.03854   0.00399   0.01071   0.02458
 Alpha virt. eigenvalues --    0.03038   0.03802   0.04158   0.05465   0.06330
 Alpha virt. eigenvalues --    0.06573   0.07070   0.08794   0.09519   0.09850

 Mulliken charges:
               1
     1  Mg   0.827736
     2  C    0.058022
     3  C   -0.170636
     4  C   -0.188943
     5  C   -0.150793
     6  N   -0.605309
     7  C    0.279183
     8  C   -0.142418
     9  C   -0.142507
    10  C    0.334936
    11  C   -0.318150
    12  C   -0.175254
    13  C   -0.281630
    14  C    0.626533
    15  O   -0.502563
    16  O   -0.486773
    17  N   -0.742223
    18  C    0.291629
    19  C   -0.014183
    20  C    0.044357
    21  C    0.323098
    22  C   -0.373352
    23  C   -0.078015
    24  C   -0.258402
    25  N   -0.668937
    26  C    0.267322
    27  C    0.104128
    28  C   -0.010884
    29  C    0.302362
    30  C   -0.413136
    31  C   -0.225761
    32  C   -0.313904
    33  N   -0.713785
    34  C    0.268853
    35  C    0.010113
    36  C   -0.019362
    37  C    0.307329
    38  C   -0.378971
    39  C    0.344781
    40  O   -0.415882
    41  C   -0.296424
    42  C    0.614832
    43  O   -0.497143
    44  O   -0.428921
    45  C   -0.090373
    46  C    0.022606
    47  C   -0.115735
    48  C    0.184271
    49  C   -0.372117
    50  C   -0.224066
    51  C   -0.148681
    52  C   -0.154370
    53  C   -0.045632
    54  C   -0.324871
    55  C   -0.165556
    56  C   -0.185766
    57  C   -0.156056
    58  C   -0.063189
    59  C   -0.300001
    60  C   -0.179104
    61  C   -0.178298
    62  C   -0.172753
    63  C   -0.025611
    64  C   -0.313174
    65  C   -0.290553
    66  H    0.077297
    67  H    0.078350
    68  H    0.068982
    69  H    0.117785
    70  H    0.111365
    71  H    0.119701
    72  H    0.083291
    73  H    0.124661
    74  H    0.116377
    75  H    0.131849
    76  H    0.131989
    77  H    0.153376
    78  H    0.132679
    79  H    0.135519
    80  H    0.106249
    81  H    0.095539
    82  H    0.093551
    83  H    0.106798
    84  H    0.095390
    85  H    0.122430
    86  H    0.117429
    87  H    0.103887
    88  H    0.105439
    89  H    0.087605
    90  H    0.114230
    91  H    0.108148
    92  H    0.136718
    93  H    0.129351
    94  H    0.135302
    95  H    0.158653
    96  H    0.124520
    97  H    0.153032
    98  H    0.108972
    99  H    0.115229
   100  H    0.085769
   101  H    0.089864
   102  H    0.118892
   103  H    0.119059
   104  H    0.098559
   105  H    0.066603
   106  H    0.078849
   107  H    0.105426
   108  H    0.057443
   109  H    0.087161
   110  H    0.093041
   111  H    0.057167
   112  H    0.089387
   113  H    0.109736
   114  H    0.110523
   115  H    0.092759
   116  H    0.102428
   117  H    0.097320
   118  H    0.068044
   119  H    0.092424
   120  H    0.069343
   121  H    0.028923
   122  H    0.113674
   123  H    0.099060
   124  H    0.105619
   125  H    0.086826
   126  H    0.091136
   127  H    0.095884
   128  H    0.111048
   129  H    0.095637
   130  H    0.077510
   131  H    0.059089
   132  H    0.082395
   133  H    0.089855
   134  H    0.107096
   135  H    0.100686
   136  H    0.106031
   137  H    0.066116
 Sum of Mulliken charges =  -0.00000

 Dipole moment (field-independent basis, Debye):
    X=              3.0236    Y=              3.5562    Z=              0.2079  Tot=              4.6725
 Quadrupole moment (field-independent basis, Debye-Ang):
   XX=           -360.1034   YY=           -385.7086   ZZ=           -400.9329
   XY=            -22.1598   XZ=             15.6325   YZ=             -4.8649

 Normal termination of Gaussian 16 at Mon Sep 23 03:40:49 2019.
