 Gaussian 09, Revision D.01,
 Gaussian 09:  ES64L-G09RevD.01 24-Apr-2013

 -------------------------------------
 # td=(NStates=1) CAM-B3LYP/6-31G(d,p)
 -------------------------------------

 --
 TD
 --
 Symbolic Z-matrix:
 Charge =  0 Multiplicity = 1

                         Standard orientation:
 ---------------------------------------------------------------------
 Center     Atomic      Atomic             Coordinates (Angstroms)
 Number     Number       Type             X           Y           Z
 ---------------------------------------------------------------------
      1         12           0       -7.188693    0.558981    0.110975
      2          6           0       -4.842177   -1.955070    0.503154
      3          6           0       -4.794384    2.903773    1.180288
      4          6           0       -9.397648    3.100811   -0.391278
      5          6           0       -9.520126   -1.722786   -0.849455
      6          7           0       -5.057572    0.474522    0.615774
      7          6           0       -4.284957   -0.711742    0.752116
      8          6           0       -2.875728   -0.340099    1.271394
      9          6           0       -2.890821    1.142324    1.549879
     10          6           0       -4.371561    1.526958    1.099436
     11          6           0       -2.837801    1.323162    3.036890
     12          6           0       -1.920481   -0.603862    0.038760
     13          6           0       -0.375077   -0.543014    0.450999
     14          6           0        0.579292   -0.851681   -0.696208
     15          8           0        0.155221   -1.198899   -1.837610
     16          8           0        1.806636   -0.601473   -0.358530
     17          7           0       -7.103002    2.614780    0.228573
     18          6           0       -6.038217    3.370097    0.703408
     19          6           0       -6.417764    4.820601    0.743638
     20          6           0       -7.699122    4.884786    0.303831
     21          6           0       -8.138011    3.483133    0.013319
     22          6           0       -5.495661    5.819357    1.187221
     23          6           0       -8.482918    6.030245    0.166867
     24          6           0       -8.404744    7.112724    0.991064
     25          7           0       -9.114810    0.736451   -0.586310
     26          6           0       -9.884884    1.842000   -0.696033
     27          6           0      -11.170784    1.498144   -1.179408
     28          6           0      -11.278295    0.134704   -1.219696
     29          6           0       -9.951775   -0.376438   -0.920286
     30          6           0      -12.269718    2.583565   -1.319015
     31          6           0      -12.508185   -0.601189   -1.590102
     32          6           0      -12.394001   -0.955424   -3.056920
     33          7           0       -7.254228   -1.381221   -0.081769
     34          6           0       -8.272065   -2.187050   -0.433544
     35          6           0       -7.900280   -3.598560   -0.441634
     36          6           0       -6.534110   -3.506283   -0.038794
     37          6           0       -6.215990   -2.199714    0.164778
     38          6           0       -8.751756   -4.738363   -0.689742
     39          6           0       -5.347151   -4.402607    0.181282
     40          8           0       -5.202111   -5.605518    0.197612
     41          6           0       -4.137349   -3.363589    0.539506
     42          6           0       -3.529100   -3.788833    1.783734
     43          8           0       -3.694750   -3.238750    2.885186
     44          8           0       -2.616525   -4.849452    1.627472
     45          6           0       -2.115335   -5.280423    2.922653
     46          6           0        2.838350   -0.798537   -1.349785
     47          6           0        4.106374   -0.470567   -0.673994
     48          6           0        5.158086    0.359922   -1.038479
     49          6           0        5.106420    1.143635   -2.313606
     50          6           0        6.388644    0.434201   -0.214603
     51          6           0        7.689678   -0.122213   -0.908200
     52          6           0        8.928459   -0.143013   -0.063730
     53          6           0       10.155934   -0.535317   -0.808038
     54          6           0       10.065747   -1.951524   -1.200704
     55          6           0       11.435088   -0.211984    0.060601
     56          6           0       12.749911   -0.598079   -0.706526
     57          6           0       13.845727   -0.096354    0.194789
     58          6           0       15.322451   -0.207617   -0.489468
     59          6           0       15.658363   -1.688377   -0.802476
     60          6           0       16.478932    0.481682    0.323082
     61          6           0       17.830802    0.608019   -0.247353
     62          6           0       18.738952    1.366178    0.710369
     63          6           0       20.177454    1.438971    0.254528
     64          6           0       20.357037    2.361280   -0.917795
     65          6           0       21.170369    1.908473    1.334286
     66          1           0       -4.000509    3.752220    1.241493
     67          1           0      -10.169611    3.925469   -0.478153
     68          1           0      -10.331506   -2.367740   -1.142058
     69          1           0       -2.739957   -1.013927    2.288939
     70          1           0       -2.145186    1.763345    1.121938
     71          1           0       -1.874013    1.168701    3.477177
     72          1           0       -3.087728    2.343374    3.629879
     73          1           0       -3.528457    0.454681    3.380038
     74          1           0       -1.878787   -1.669808   -0.359551
     75          1           0       -1.928969    0.047992   -0.941788
     76          1           0       -0.081089    0.344078    0.987766
     77          1           0       -0.079135   -1.111303    1.226009
     78          1           0       -5.860830    6.836851    0.885459
     79          1           0       -5.462105    5.751509    2.398782
     80          1           0       -4.302699    5.552286    0.914907
     81          1           0       -9.309309    5.902611   -0.467529
     82          1           0       -9.146782    8.012312    0.803764
     83          1           0       -7.749151    7.130157    1.909405
     84          1           0      -11.912767    3.303944   -2.065294
     85          1           0      -13.045074    2.143261   -1.457024
     86          1           0      -12.401840    3.346043   -0.419195
     87          1           0      -12.562829   -1.687596   -1.172338
     88          1           0      -13.378180   -0.064934   -1.279394
     89          1           0      -13.282022   -1.467476   -3.463645
     90          1           0      -12.342211   -0.154485   -3.785906
     91          1           0      -11.502803   -1.579951   -3.233649
     92          1           0       -9.181384   -4.997594   -1.796328
     93          1           0       -8.091372   -5.714860   -0.347198
     94          1           0       -9.633907   -4.752727    0.090927
     95          1           0       -3.394565   -3.461851   -0.241063
     96          1           0       -1.671751   -4.327412    3.503389
     97          1           0       -3.031389   -5.711003    3.555407
     98          1           0       -1.420023   -6.118531    2.695741
     99          1           0        2.926219   -1.977423   -1.540231
    100          1           0        2.463249   -0.316392   -2.173917
    101          1           0        4.340482   -1.136627    0.169811
    102          1           0        4.069873    1.239944   -2.592605
    103          1           0        5.388279    2.305484   -1.904414
    104          1           0        5.788417    0.937697   -3.031563
    105          1           0        6.426213    1.449257    0.129629
    106          1           0        6.323362   -0.083715    0.853118
    107          1           0        7.306873   -1.199454   -1.236376
    108          1           0        7.619062    0.587330   -1.710016
    109          1           0        9.219305    0.868448   -0.000542
    110          1           0        8.838941   -0.641022    1.003273
    111          1           0       10.155201    0.146234   -1.682520
    112          1           0        9.057969   -2.469885   -1.507777
    113          1           0       10.729297   -2.373812   -2.101053
    114          1           0       10.194329   -2.560664   -0.328606
    115          1           0       11.216498    0.738401    0.545713
    116          1           0       11.391057   -1.002873    0.915998
    117          1           0       13.000198   -1.645161   -0.788624
    118          1           0       12.812797   -0.177608   -1.742708
    119          1           0       13.711772    1.008319    0.379577
    120          1           0       13.974413   -0.551385    1.143222
    121          1           0       15.287031    0.290245   -1.303139
    122          1           0       15.647591   -2.303874    0.117842
    123          1           0       14.760608   -2.167325   -1.332981
    124          1           0       16.708403   -1.837692   -1.240447
    125          1           0       16.130511    1.459099    0.670824
    126          1           0       16.535191   -0.090600    1.213120
    127          1           0       18.046698   -0.369684   -0.327527
    128          1           0       17.494731    0.983269   -1.253956
    129          1           0       18.185570    2.232761    0.992006
    130          1           0       18.822943    0.590135    1.585997
    131          1           0       20.449893    0.334940    0.001910
    132          1           0       20.062453    3.369373   -0.842873
    133          1           0       21.365547    2.258511   -1.416052
    134          1           0       19.805144    2.032816   -1.862995
    135          1           0       21.247334    1.167499    2.111814
    136          1           0       22.173205    1.783993    0.847754
    137          1           0       20.830550    2.906428    1.869792
 ---------------------------------------------------------------------

 SCF Done:  E(RCAM-B3LYP) =  -2932.70602181     A.U. after   17 cycles

 Excitation energies and oscillator strengths:

 Excited State   1:      Singlet-A      2.1506 eV  576.50 nm  f=0.2310  <S**2>=0.000
     240 -> 243        0.24815
     241 -> 242        0.64681
 This state for optimization and/or second-order correction.
 Total Energy, E(TD-HF/TD-KS) =  -2932.62698794
 Copying the excited state density for this state as the 1-particle RhoCI density.

 The electronic state is 1-A.
 Alpha  occ. eigenvalues --  -46.84084 -19.27177 -19.25577 -19.21062 -19.20608
 Alpha  occ. eigenvalues --  -19.19811 -14.42212 -14.39657 -14.39337 -14.38766
 Alpha  occ. eigenvalues --  -10.39057 -10.38963 -10.35917 -10.32786 -10.32286
 Alpha  occ. eigenvalues --  -10.32144 -10.30816 -10.30718 -10.30046 -10.29188
 Alpha  occ. eigenvalues --  -10.28797 -10.28693 -10.28444 -10.28364 -10.28361
 Alpha  occ. eigenvalues --  -10.28334 -10.28292 -10.28269 -10.28097 -10.28027
 Alpha  occ. eigenvalues --  -10.27793 -10.27705 -10.27671 -10.27670 -10.27081
 Alpha  occ. eigenvalues --  -10.27077 -10.26945 -10.26923 -10.26805 -10.26736
 Alpha  occ. eigenvalues --  -10.26687 -10.26622 -10.26515 -10.26514 -10.26495
 Alpha  occ. eigenvalues --  -10.26464 -10.26453 -10.26270 -10.25944 -10.25853
 Alpha  occ. eigenvalues --  -10.25849 -10.25671 -10.25608 -10.25474 -10.25384
 Alpha  occ. eigenvalues --  -10.25238 -10.25129 -10.25090 -10.25085 -10.25003
 Alpha  occ. eigenvalues --  -10.24993 -10.24401 -10.24042 -10.23401 -10.23212
 Alpha  occ. eigenvalues --   -3.13178  -1.87876  -1.87393  -1.87387  -1.19498
 Alpha  occ. eigenvalues --   -1.15607  -1.11463  -1.07159  -1.06801  -1.04971
 Alpha  occ. eigenvalues --   -1.03341  -1.02605  -1.01726  -0.92165  -0.91791
 Alpha  occ. eigenvalues --   -0.90974  -0.90625  -0.90583  -0.89615  -0.89448
 Alpha  occ. eigenvalues --   -0.88419  -0.88095  -0.87108  -0.86923  -0.86644
 Alpha  occ. eigenvalues --   -0.85593  -0.84563  -0.83774  -0.83419  -0.82955
 Alpha  occ. eigenvalues --   -0.81999  -0.80636  -0.80403  -0.80145  -0.77772
 Alpha  occ. eigenvalues --   -0.77550  -0.77083  -0.76684  -0.75284  -0.74881
 Alpha  occ. eigenvalues --   -0.74857  -0.74655  -0.74471  -0.73359  -0.71821
 Alpha  occ. eigenvalues --   -0.71080  -0.70359  -0.70079  -0.69269  -0.68096
 Alpha  occ. eigenvalues --   -0.67352  -0.67014  -0.65226  -0.65086  -0.64607
 Alpha  occ. eigenvalues --   -0.64123  -0.64041  -0.63354  -0.62922  -0.62391
 Alpha  occ. eigenvalues --   -0.61083  -0.61011  -0.60478  -0.59818  -0.58654
 Alpha  occ. eigenvalues --   -0.58498  -0.58074  -0.57564  -0.57129  -0.56938
 Alpha  occ. eigenvalues --   -0.56485  -0.55573  -0.55227  -0.55179  -0.54704
 Alpha  occ. eigenvalues --   -0.54462  -0.54181  -0.54025  -0.53527  -0.53220
 Alpha  occ. eigenvalues --   -0.52987  -0.52765  -0.52514  -0.52089  -0.51464
 Alpha  occ. eigenvalues --   -0.51030  -0.50799  -0.50660  -0.50602  -0.50497
 Alpha  occ. eigenvalues --   -0.50366  -0.50152  -0.49947  -0.49851  -0.49351
 Alpha  occ. eigenvalues --   -0.49205  -0.49022  -0.48716  -0.48363  -0.48174
 Alpha  occ. eigenvalues --   -0.48084  -0.47830  -0.47692  -0.47471  -0.47178
 Alpha  occ. eigenvalues --   -0.46970  -0.46871  -0.46350  -0.45663  -0.45626
 Alpha  occ. eigenvalues --   -0.45440  -0.45175  -0.45136  -0.44903  -0.44692
 Alpha  occ. eigenvalues --   -0.44488  -0.44423  -0.44398  -0.43988  -0.43887
 Alpha  occ. eigenvalues --   -0.43817  -0.43767  -0.43409  -0.43338  -0.43232
 Alpha  occ. eigenvalues --   -0.43044  -0.42819  -0.42469  -0.42327  -0.42255
 Alpha  occ. eigenvalues --   -0.41978  -0.41847  -0.41544  -0.41316  -0.41064
 Alpha  occ. eigenvalues --   -0.40952  -0.40885  -0.40703  -0.40454  -0.40208
 Alpha  occ. eigenvalues --   -0.40164  -0.40053  -0.39883  -0.39500  -0.39071
 Alpha  occ. eigenvalues --   -0.38900  -0.38532  -0.38336  -0.38209  -0.37670
 Alpha  occ. eigenvalues --   -0.37650  -0.37526  -0.37222  -0.37020  -0.36636
 Alpha  occ. eigenvalues --   -0.36586  -0.36235  -0.36042  -0.35908  -0.35819
 Alpha  occ. eigenvalues --   -0.35586  -0.34856  -0.34810  -0.33580  -0.33288
 Alpha  occ. eigenvalues --   -0.33167  -0.32771  -0.32277  -0.30812  -0.29899
 Alpha  occ. eigenvalues --   -0.29219  -0.29180  -0.28033  -0.27357  -0.23295
 Alpha  occ. eigenvalues --   -0.21232
 Alpha virt. eigenvalues --   -0.05987  -0.02938   0.01385   0.03509   0.04917
 Alpha virt. eigenvalues --    0.05321   0.05840   0.06482   0.06820   0.07407
 Alpha virt. eigenvalues --    0.08422   0.10785   0.11045   0.11579   0.11819

 Mulliken charges:
               1
     1  Mg   0.832731
     2  C    0.059303
     3  C   -0.203620
     4  C   -0.213931
     5  C   -0.153416
     6  N   -0.605726
     7  C    0.259571
     8  C   -0.172521
     9  C   -0.115999
    10  C    0.327279
    11  C   -0.307221
    12  C   -0.182835
    13  C   -0.280978
    14  C    0.601449
    15  O   -0.523084
    16  O   -0.437957
    17  N   -0.713237
    18  C    0.311447
    19  C    0.070679
    20  C    0.038164
    21  C    0.338544
    22  C   -0.393575
    23  C   -0.077121
    24  C   -0.258537
    25  N   -0.711770
    26  C    0.348762
    27  C   -0.005938
    28  C    0.031834
    29  C    0.250672
    30  C   -0.318188
    31  C   -0.243573
    32  C   -0.313072
    33  N   -0.748774
    34  C    0.268478
    35  C    0.086796
    36  C   -0.033151
    37  C    0.321572
    38  C   -0.408524
    39  C    0.372131
    40  O   -0.443420
    41  C   -0.330121
    42  C    0.652546
    43  O   -0.494816
    44  O   -0.475944
    45  C   -0.069560
    46  C    0.012800
    47  C   -0.134197
    48  C    0.117388
    49  C   -0.348923
    50  C   -0.244493
    51  C   -0.167063
    52  C   -0.162306
    53  C   -0.061919
    54  C   -0.305877
    55  C   -0.179399
    56  C   -0.173104
    57  C   -0.188668
    58  C   -0.059297
    59  C   -0.327014
    60  C   -0.201824
    61  C   -0.158842
    62  C   -0.161372
    63  C   -0.050904
    64  C   -0.308444
    65  C   -0.298011
    66  H    0.078408
    67  H    0.076975
    68  H    0.091925
    69  H    0.142558
    70  H    0.118464
    71  H    0.111200
    72  H    0.093223
    73  H    0.112707
    74  H    0.123416
    75  H    0.129308
    76  H    0.118541
    77  H    0.136760
    78  H    0.124320
    79  H    0.114555
    80  H    0.096675
    81  H    0.095477
    82  H    0.099484
    83  H    0.116197
    84  H    0.122003
    85  H    0.097809
    86  H    0.099423
    87  H    0.100879
    88  H    0.112652
    89  H    0.096918
    90  H    0.112173
    91  H    0.112670
    92  H    0.115486
    93  H    0.129013
    94  H    0.119830
    95  H    0.173988
    96  H    0.120522
    97  H    0.118322
    98  H    0.123327
    99  H    0.118512
   100  H    0.137317
   101  H    0.096864
   102  H    0.122975
   103  H    0.070430
   104  H    0.142565
   105  H    0.106824
   106  H    0.076086
   107  H    0.090343
   108  H    0.102898
   109  H    0.099284
   110  H    0.083813
   111  H    0.083267
   112  H    0.086538
   113  H    0.083350
   114  H    0.102773
   115  H    0.101270
   116  H    0.082413
   117  H    0.112362
   118  H    0.096083
   119  H    0.082176
   120  H    0.102786
   121  H    0.091812
   122  H    0.097140
   123  H    0.090887
   124  H    0.099696
   125  H    0.072614
   126  H    0.080409
   127  H    0.100076
   128  H    0.084544
   129  H    0.096006
   130  H    0.077978
   131  H    0.076960
   132  H    0.112155
   133  H    0.090856
   134  H    0.086846
   135  H    0.097522
   136  H    0.101261
   137  H    0.093224
 Sum of Mulliken charges =   0.00000

 Dipole moment (field-independent basis, Debye):
    X=              1.9932    Y=              5.2178    Z=              0.8192  Tot=              5.6453
 Quadrupole moment (field-independent basis, Debye-Ang):
   XX=           -337.6498   YY=           -396.2929   ZZ=           -400.4387
   XY=            -27.6349   XZ=              8.6327   YZ=              0.1211

 Normal termination of Gaussian 09 at Sat Jul  6 00:40:04 2019.
