 Gaussian 16, Revision A.03,
 Gaussian 16:  ES64L-G16RevA.03 25-Dec-2016

 ----------------------------------------------------------------------
 # td=(NStates=1) iop(3/107=0140000000,3/108=0140000000) CAM-B3LYP/6-31
 G(d,p)
 ----------------------------------------------------------------------

 --
 TD
 --
 Symbolic Z-matrix:
 Charge =  0 Multiplicity = 1

                         Standard orientation:
 ---------------------------------------------------------------------
 Center     Atomic      Atomic             Coordinates (Angstroms)
 Number     Number       Type             X           Y           Z
 ---------------------------------------------------------------------
      1         12           0       -7.136349    0.624907    0.082290
      2          6           0       -4.929201   -1.968101    0.647420
      3          6           0       -4.777682    2.836110    1.275879
      4          6           0       -9.242906    3.098577   -0.453368
      5          6           0       -9.613989   -1.734871   -0.937845
      6          7           0       -5.088271    0.448446    0.794263
      7          6           0       -4.371132   -0.714351    0.831788
      8          6           0       -2.938184   -0.435487    1.335712
      9          6           0       -2.980111    1.115304    1.767242
     10          6           0       -4.276198    1.531236    1.200579
     11          6           0       -2.933371    1.047787    3.292315
     12          6           0       -1.927122   -0.627221    0.197148
     13          6           0       -0.534521   -0.361972    0.709172
     14          6           0        0.422116   -0.594359   -0.466177
     15          8           0        0.058325   -0.925494   -1.610141
     16          8           0        1.708114   -0.346658   -0.130614
     17          7           0       -7.023193    2.670123    0.402661
     18          6           0       -5.981809    3.301389    0.863590
     19          6           0       -6.386163    4.770125    0.891717
     20          6           0       -7.555430    4.886065    0.443673
     21          6           0       -8.037027    3.504360    0.023330
     22          6           0       -5.370956    5.787384    1.331388
     23          6           0       -8.459967    6.069203    0.120884
     24          6           0       -8.330578    7.245405    0.747351
     25          7           0       -9.169296    0.713384   -0.619640
     26          6           0       -9.822429    1.865313   -0.804270
     27          6           0      -11.124457    1.527139   -1.256506
     28          6           0      -11.237916    0.136571   -1.422596
     29          6           0       -9.979797   -0.387504   -1.071026
     30          6           0      -12.240886    2.450083   -1.469871
     31          6           0      -12.364381   -0.663051   -1.950487
     32          6           0      -12.135745   -1.102879   -3.377596
     33          7           0       -7.322980   -1.314133   -0.177221
     34          6           0       -8.371144   -2.205455   -0.608216
     35          6           0       -7.884239   -3.536399   -0.572196
     36          6           0       -6.573557   -3.508562   -0.012439
     37          6           0       -6.304818   -2.100556    0.178733
     38          6           0       -8.627009   -4.785835   -1.021663
     39          6           0       -5.467040   -4.353968    0.232455
     40          8           0       -5.275912   -5.607911    0.283068
     41          6           0       -4.283046   -3.365162    0.548010
     42          6           0       -3.507429   -3.742845    1.883183
     43          8           0       -3.670562   -3.303022    3.007736
     44          8           0       -2.726874   -4.805113    1.642534
     45          6           0       -2.267858   -5.424513    2.856500
     46          6           0        2.787177   -0.711397   -1.136711
     47          6           0        4.016228   -0.443376   -0.528681
     48          6           0        5.200516    0.231360   -0.902279
     49          6           0        5.023895    1.152144   -2.121696
     50          6           0        6.429132    0.310645   -0.143337
     51          6           0        7.637097   -0.157628   -0.958806
     52          6           0        8.930807   -0.129859   -0.095704
     53          6           0       10.182157   -0.569200   -0.914775
     54          6           0       10.168248   -2.017267   -1.394780
     55          6           0       11.513233   -0.275477    0.101564
     56          6           0       12.761828   -0.447264   -0.684873
     57          6           0       14.022872   -0.084342    0.113714
     58          6           0       15.365713   -0.235885   -0.465446
     59          6           0       15.630754   -1.722543   -0.845185
     60          6           0       16.462679    0.487615    0.354782
     61          6           0       17.890460    0.471138   -0.224170
     62          6           0       18.792900    1.335432    0.705590
     63          6           0       20.155833    1.351441    0.166209
     64          6           0       20.202068    2.168990   -1.202276
     65          6           0       21.193815    1.808943    1.179375
     66          1           0       -3.954586    3.429302    1.683293
     67          1           0       -9.947944    3.868682   -0.596102
     68          1           0      -10.497082   -2.485738   -1.054065
     69          1           0       -2.813839   -1.095616    2.240934
     70          1           0       -2.202781    1.675424    1.356748
     71          1           0       -2.001671    0.614248    3.578553
     72          1           0       -2.810480    2.095604    3.591514
     73          1           0       -3.803606    0.490614    3.771489
     74          1           0       -1.924315   -1.497030   -0.402365
     75          1           0       -2.198749    0.230528   -0.515048
     76          1           0       -0.528465    0.769410    1.096313
     77          1           0       -0.283041   -1.088280    1.515509
     78          1           0       -5.562233    6.847939    0.842441
     79          1           0       -5.575676    5.866377    2.423284
     80          1           0       -4.204061    5.514350    1.167808
     81          1           0       -9.259868    6.100017   -0.544381
     82          1           0       -8.994655    8.154242    0.405226
     83          1           0       -7.778425    7.659051    1.526878
     84          1           0      -12.194844    3.062527   -2.243419
     85          1           0      -13.359703    2.251315   -1.572809
     86          1           0      -12.131454    3.015203   -0.618047
     87          1           0      -12.582815   -1.520482   -1.491846
     88          1           0      -13.247488   -0.077643   -1.953654
     89          1           0      -12.998761   -1.552321   -3.732001
     90          1           0      -12.049557   -0.131981   -4.097249
     91          1           0      -11.204610   -1.569604   -3.594415
     92          1           0       -9.221037   -4.746665   -1.891183
     93          1           0       -8.011284   -5.633357   -1.062524
     94          1           0       -9.387899   -4.892604   -0.047726
     95          1           0       -3.636572   -3.210721   -0.336979
     96          1           0       -1.709944   -4.689546    3.385119
     97          1           0       -3.125348   -5.590054    3.520808
     98          1           0       -1.518721   -6.273710    2.714856
     99          1           0        2.709250   -1.780483   -1.380771
    100          1           0        2.731586    0.115537   -2.044641
    101          1           0        4.173995   -1.052257    0.507306
    102          1           0        3.995569    1.161882   -2.637356
    103          1           0        5.333848    2.095300   -1.636186
    104          1           0        5.491818    0.829720   -2.912146
    105          1           0        6.534131    1.379551    0.276163
    106          1           0        6.539257   -0.438137    0.821140
    107          1           0        7.363192   -1.138016   -1.447088
    108          1           0        7.887060    0.559623   -1.917716
    109          1           0        9.198089    1.042324    0.277537
    110          1           0        8.676006   -0.897548    0.658430
    111          1           0       10.256528    0.095776   -1.811187
    112          1           0        9.482574   -2.265061   -2.284518
    113          1           0       11.181799   -2.169127   -1.843196
    114          1           0        9.981473   -2.642507   -0.527395
    115          1           0       11.483962    0.818817    0.353948
    116          1           0       11.286862   -0.986961    0.935281
    117          1           0       12.871536   -1.544017   -0.878732
    118          1           0       12.848761    0.017035   -1.550871
    119          1           0       14.013079    0.917316    0.400196
    120          1           0       13.886125   -0.514170    1.220617
    121          1           0       15.236400    0.312502   -1.554546
    122          1           0       15.736699   -2.378363   -0.069414
    123          1           0       14.916272   -2.323027   -1.566492
    124          1           0       16.569610   -1.817158   -1.601100
    125          1           0       16.165252    1.597630    0.514151
    126          1           0       16.421310    0.072867    1.332114
    127          1           0       18.375923   -0.427182   -0.307878
    128          1           0       17.717238    0.986103   -1.161995
    129          1           0       18.316979    2.434563    0.588070
    130          1           0       18.928849    0.980344    1.725356
    131          1           0       20.545584    0.359737   -0.129577
    132          1           0       19.851958    3.324939   -0.992604
    133          1           0       21.229408    2.083790   -1.693717
    134          1           0       19.604203    1.746331   -1.997383
    135          1           0       21.514199    1.182277    1.935946
    136          1           0       22.072091    2.013634    0.608306
    137          1           0       21.002079    2.944303    1.658464
 ---------------------------------------------------------------------

 SCF Done:  E(RCAM-B3LYP) =  -2933.53709045     A.U. after   16 cycles

 Excitation energies and oscillator strengths:

 Excited State   1:      Singlet-A      2.2182 eV  558.94 nm  f=0.1768  <S**2>=0.000
     240 -> 242       -0.11525
     240 -> 243        0.28557
     241 -> 242        0.62785
 This state for optimization and/or second-order correction.
 Total Energy, E(TD-HF/TD-DFT) =  -2933.45557341
 Copying the excited state density for this state as the 1-particle RhoCI density.

 The electronic state is 1-A.
 Alpha  occ. eigenvalues --  -46.80157 -19.21664 -19.21634 -19.16495 -19.16056
 Alpha  occ. eigenvalues --  -19.14757 -14.37262 -14.35492 -14.35409 -14.34005
 Alpha  occ. eigenvalues --  -10.34396 -10.34303 -10.29656 -10.28607 -10.26684
 Alpha  occ. eigenvalues --  -10.26001 -10.25727 -10.25540 -10.25333 -10.24895
 Alpha  occ. eigenvalues --  -10.24391 -10.24286 -10.24245 -10.24171 -10.24042
 Alpha  occ. eigenvalues --  -10.23997 -10.23983 -10.23955 -10.23743 -10.23411
 Alpha  occ. eigenvalues --  -10.23251 -10.23170 -10.23091 -10.23072 -10.22876
 Alpha  occ. eigenvalues --  -10.22856 -10.22532 -10.22499 -10.22387 -10.22263
 Alpha  occ. eigenvalues --  -10.22134 -10.22123 -10.22034 -10.21961 -10.21933
 Alpha  occ. eigenvalues --  -10.21790 -10.21758 -10.21664 -10.21613 -10.21367
 Alpha  occ. eigenvalues --  -10.21339 -10.21198 -10.21138 -10.21135 -10.21090
 Alpha  occ. eigenvalues --  -10.20999 -10.20647 -10.20624 -10.20236 -10.20184
 Alpha  occ. eigenvalues --  -10.20032 -10.20005 -10.19987 -10.19616 -10.19179
 Alpha  occ. eigenvalues --   -3.08622  -1.83577  -1.83123  -1.82986  -1.13025
 Alpha  occ. eigenvalues --   -1.10828  -1.03576  -1.02185  -1.01994  -1.00160
 Alpha  occ. eigenvalues --   -0.98065  -0.97136  -0.96460  -0.86560  -0.86433
 Alpha  occ. eigenvalues --   -0.85670  -0.85002  -0.84642  -0.84494  -0.84408
 Alpha  occ. eigenvalues --   -0.83426  -0.83051  -0.82541  -0.82158  -0.81225
 Alpha  occ. eigenvalues --   -0.80496  -0.79377  -0.78936  -0.78860  -0.78310
 Alpha  occ. eigenvalues --   -0.76940  -0.76045  -0.75801  -0.75447  -0.73356
 Alpha  occ. eigenvalues --   -0.72838  -0.72398  -0.71652  -0.70984  -0.70786
 Alpha  occ. eigenvalues --   -0.70473  -0.70314  -0.69537  -0.68676  -0.67663
 Alpha  occ. eigenvalues --   -0.67460  -0.65660  -0.65409  -0.64312  -0.63820
 Alpha  occ. eigenvalues --   -0.63017  -0.62219  -0.61497  -0.60714  -0.60335
 Alpha  occ. eigenvalues --   -0.59955  -0.58601  -0.58086  -0.58055  -0.57941
 Alpha  occ. eigenvalues --   -0.57206  -0.57136  -0.56681  -0.55302  -0.54761
 Alpha  occ. eigenvalues --   -0.54574  -0.54216  -0.53729  -0.53094  -0.52540
 Alpha  occ. eigenvalues --   -0.52441  -0.51539  -0.51474  -0.51315  -0.51250
 Alpha  occ. eigenvalues --   -0.50688  -0.50280  -0.50015  -0.49668  -0.49568
 Alpha  occ. eigenvalues --   -0.48972  -0.48747  -0.48411  -0.48103  -0.47821
 Alpha  occ. eigenvalues --   -0.47572  -0.47434  -0.47238  -0.47113  -0.46868
 Alpha  occ. eigenvalues --   -0.46843  -0.46559  -0.46445  -0.46209  -0.46136
 Alpha  occ. eigenvalues --   -0.45969  -0.45493  -0.45408  -0.45201  -0.44438
 Alpha  occ. eigenvalues --   -0.44328  -0.44271  -0.44100  -0.43973  -0.43565
 Alpha  occ. eigenvalues --   -0.43356  -0.43302  -0.42869  -0.42751  -0.42308
 Alpha  occ. eigenvalues --   -0.42278  -0.42117  -0.41723  -0.41647  -0.41466
 Alpha  occ. eigenvalues --   -0.41429  -0.41097  -0.41044  -0.40778  -0.40377
 Alpha  occ. eigenvalues --   -0.40326  -0.40184  -0.39982  -0.39821  -0.39665
 Alpha  occ. eigenvalues --   -0.39234  -0.39129  -0.38937  -0.38872  -0.38442
 Alpha  occ. eigenvalues --   -0.38230  -0.38150  -0.37882  -0.37696  -0.37529
 Alpha  occ. eigenvalues --   -0.37405  -0.37144  -0.37038  -0.36963  -0.36849
 Alpha  occ. eigenvalues --   -0.36589  -0.36487  -0.36250  -0.36106  -0.35712
 Alpha  occ. eigenvalues --   -0.35572  -0.35060  -0.35046  -0.34791  -0.34561
 Alpha  occ. eigenvalues --   -0.34447  -0.34362  -0.33894  -0.33858  -0.33774
 Alpha  occ. eigenvalues --   -0.33340  -0.33132  -0.32580  -0.32347  -0.32229
 Alpha  occ. eigenvalues --   -0.32162  -0.32005  -0.31948  -0.30244  -0.30154
 Alpha  occ. eigenvalues --   -0.29889  -0.29735  -0.29493  -0.28307  -0.26638
 Alpha  occ. eigenvalues --   -0.26437  -0.26327  -0.26003  -0.24119  -0.21543
 Alpha  occ. eigenvalues --   -0.20342
 Alpha virt. eigenvalues --   -0.06292  -0.03928   0.00102   0.02232   0.02432
 Alpha virt. eigenvalues --    0.03685   0.04226   0.05076   0.05210   0.05518
 Alpha virt. eigenvalues --    0.06803   0.08983   0.09171   0.09739   0.09962

 Mulliken charges:
               1
     1  Mg   0.806005
     2  C    0.039723
     3  C   -0.192044
     4  C   -0.178655
     5  C   -0.178914
     6  N   -0.630468
     7  C    0.314166
     8  C   -0.184591
     9  C   -0.152952
    10  C    0.319623
    11  C   -0.302410
    12  C   -0.160189
    13  C   -0.258939
    14  C    0.611730
    15  O   -0.486569
    16  O   -0.481587
    17  N   -0.722595
    18  C    0.384633
    19  C    0.003117
    20  C    0.055630
    21  C    0.295686
    22  C   -0.377980
    23  C   -0.070808
    24  C   -0.237285
    25  N   -0.697169
    26  C    0.363595
    27  C   -0.024613
    28  C    0.054330
    29  C    0.241558
    30  C   -0.391236
    31  C   -0.227924
    32  C   -0.311101
    33  N   -0.758005
    34  C    0.278188
    35  C    0.013411
    36  C    0.034088
    37  C    0.340761
    38  C   -0.359327
    39  C    0.342582
    40  O   -0.505821
    41  C   -0.310488
    42  C    0.618367
    43  O   -0.480375
    44  O   -0.425420
    45  C   -0.092465
    46  C    0.023583
    47  C   -0.114397
    48  C    0.119798
    49  C   -0.348706
    50  C   -0.220085
    51  C   -0.174219
    52  C   -0.147306
    53  C   -0.073200
    54  C   -0.311084
    55  C   -0.175771
    56  C   -0.156462
    57  C   -0.168969
    58  C   -0.036615
    59  C   -0.312501
    60  C   -0.182508
    61  C   -0.170014
    62  C   -0.144503
    63  C   -0.046841
    64  C   -0.312245
    65  C   -0.314472
    66  H    0.072403
    67  H    0.066482
    68  H    0.100229
    69  H    0.126164
    70  H    0.103551
    71  H    0.121636
    72  H    0.097100
    73  H    0.135329
    74  H    0.130864
    75  H    0.103655
    76  H    0.116858
    77  H    0.135274
    78  H    0.109632
    79  H    0.130933
    80  H    0.103664
    81  H    0.105901
    82  H    0.074023
    83  H    0.110360
    84  H    0.127956
    85  H    0.106219
    86  H    0.122893
    87  H    0.111461
    88  H    0.103498
    89  H    0.109908
    90  H    0.073402
    91  H    0.119578
    92  H    0.128461
    93  H    0.153593
    94  H    0.104641
    95  H    0.165019
    96  H    0.124819
    97  H    0.138562
    98  H    0.118640
    99  H    0.144454
   100  H    0.096966
   101  H    0.057468
   102  H    0.095842
   103  H    0.117706
   104  H    0.136946
   105  H    0.104698
   106  H    0.084980
   107  H    0.105407
   108  H    0.066703
   109  H    0.070982
   110  H    0.088723
   111  H    0.077779
   112  H    0.097252
   113  H    0.106445
   114  H    0.103410
   115  H    0.087532
   116  H    0.097085
   117  H    0.093974
   118  H    0.099199
   119  H    0.088118
   120  H    0.053303
   121  H    0.046763
   122  H    0.115948
   123  H    0.089284
   124  H    0.072250
   125  H    0.081497
   126  H    0.097257
   127  H    0.102974
   128  H    0.103830
   129  H    0.070531
   130  H    0.092420
   131  H    0.085239
   132  H    0.080248
   133  H    0.088800
   134  H    0.112675
   135  H    0.113904
   136  H    0.104639
   137  H    0.063315
 Sum of Mulliken charges =  -0.00000

 Dipole moment (field-independent basis, Debye):
    X=              3.6562    Y=              4.6602    Z=              0.1151  Tot=              5.9244
 Quadrupole moment (field-independent basis, Debye-Ang):
   XX=           -330.3835   YY=           -397.2333   ZZ=           -396.9268
   XY=            -33.2610   XZ=              7.1625   YZ=              1.8905

 Normal termination of Gaussian 16 at Mon Sep 23 23:55:03 2019.
