 Gaussian 16, Revision A.03,
 Gaussian 16:  ES64L-G16RevA.03 25-Dec-2016

 ----------------------------------------------------------------------
 # td=(NStates=1) iop(3/107=0140000000,3/108=0140000000) CAM-B3LYP/6-31
 G(d,p)
 ----------------------------------------------------------------------

 --
 TD
 --
 Symbolic Z-matrix:
 Charge =  0 Multiplicity = 1

                         Standard orientation:
 ---------------------------------------------------------------------
 Center     Atomic      Atomic             Coordinates (Angstroms)
 Number     Number       Type             X           Y           Z
 ---------------------------------------------------------------------
      1         12           0       -7.087242    0.632555    0.205126
      2          6           0       -4.844726   -2.011393    0.436634
      3          6           0       -4.714068    2.814215    1.352669
      4          6           0       -9.292492    3.142137   -0.382210
      5          6           0       -9.503903   -1.654020   -0.978200
      6          7           0       -5.129976    0.416770    0.806474
      7          6           0       -4.401950   -0.748778    0.914547
      8          6           0       -2.992940   -0.467251    1.343352
      9          6           0       -3.041279    0.995314    1.784249
     10          6           0       -4.402820    1.380371    1.329760
     11          6           0       -2.988932    1.011176    3.282304
     12          6           0       -1.939100   -0.603768    0.161705
     13          6           0       -0.469665   -0.426744    0.598368
     14          6           0        0.427930   -0.725656   -0.552220
     15          8           0        0.175799   -0.982635   -1.635745
     16          8           0        1.720187   -0.465244   -0.154049
     17          7           0       -7.006669    2.599934    0.458884
     18          6           0       -5.949334    3.367624    0.888392
     19          6           0       -6.257116    4.771812    0.771614
     20          6           0       -7.630145    4.913274    0.385247
     21          6           0       -8.088923    3.470876    0.207082
     22          6           0       -5.341355    5.948108    1.063651
     23          6           0       -8.401435    6.056003    0.269193
     24          6           0       -8.142808    7.208447    0.720611
     25          7           0       -9.073525    0.701773   -0.632354
     26          6           0       -9.834790    1.836737   -0.740730
     27          6           0      -11.125786    1.649196   -1.208080
     28          6           0      -11.243035    0.275207   -1.378553
     29          6           0       -9.937962   -0.262990   -1.029470
     30          6           0      -12.183658    2.672414   -1.406905
     31          6           0      -12.333414   -0.703310   -1.802798
     32          6           0      -12.073668   -0.994014   -3.292533
     33          7           0       -7.215912   -1.330861   -0.265284
     34          6           0       -8.285088   -2.167296   -0.645465
     35          6           0       -7.899250   -3.568990   -0.608404
     36          6           0       -6.480837   -3.491982   -0.173891
     37          6           0       -6.186416   -2.169056    0.033782
     38          6           0       -8.785485   -4.721463   -0.868568
     39          6           0       -5.383879   -4.281124    0.074274
     40          8           0       -5.359025   -5.545943    0.120352
     41          6           0       -4.248105   -3.381598    0.509894
     42          6           0       -3.687942   -3.796381    1.901649
     43          8           0       -3.768733   -3.255876    3.025586
     44          8           0       -2.824004   -4.854914    1.653324
     45          6           0       -2.306556   -5.456600    2.922317
     46          6           0        2.743904   -0.596917   -1.220565
     47          6           0        4.106010   -0.382911   -0.486636
     48          6           0        5.171378    0.370695   -0.911801
     49          6           0        5.071515    1.212973   -2.260031
     50          6           0        6.378412    0.373413   -0.187802
     51          6           0        7.643462   -0.286436   -0.893189
     52          6           0        8.900624   -0.113202   -0.192319
     53          6           0       10.087738   -0.647645   -0.945060
     54          6           0       10.137276   -2.143123   -1.371340
     55          6           0       11.384822   -0.335920   -0.070607
     56          6           0       12.783767   -0.339629   -0.725073
     57          6           0       13.979373   -0.137897    0.222684
     58          6           0       15.329408   -0.154138   -0.475416
     59          6           0       15.578426   -1.567599   -1.036487
     60          6           0       16.418793    0.320983    0.471900
     61          6           0       17.704839    0.520804   -0.192855
     62          6           0       18.669770    1.353609    0.665905
     63          6           0       20.171741    1.377346    0.225431
     64          6           0       20.292534    2.314043   -1.034431
     65          6           0       21.198797    1.769230    1.328276
     66          1           0       -3.906990    3.262509    1.851397
     67          1           0       -9.804984    4.002518   -0.492872
     68          1           0      -10.248014   -2.453548   -1.287655
     69          1           0       -2.649945   -1.132542    2.138255
     70          1           0       -2.227331    1.606719    1.543956
     71          1           0       -2.073883    0.510823    3.559795
     72          1           0       -2.929808    1.972011    3.676373
     73          1           0       -3.852997    0.437340    3.729395
     74          1           0       -1.845680   -1.566344   -0.192358
     75          1           0       -2.301056    0.123869   -0.480952
     76          1           0       -0.065459    0.378529    1.063565
     77          1           0       -0.236667   -1.238408    1.261929
     78          1           0       -5.316351    6.470708    0.255948
     79          1           0       -5.405773    6.585969    1.980004
     80          1           0       -4.269513    5.529552    1.116678
     81          1           0       -9.466993    5.877890   -0.269613
     82          1           0       -8.832428    7.892445    0.474040
     83          1           0       -6.962503    7.209972    1.237300
     84          1           0      -12.166551    3.417410   -2.086105
     85          1           0      -13.036952    2.143491   -1.558553
     86          1           0      -12.484670    3.126016   -0.388057
     87          1           0      -12.426297   -1.533326   -1.239169
     88          1           0      -13.293215   -0.154254   -1.554933
     89          1           0      -12.877673   -1.623108   -3.630305
     90          1           0      -12.314019   -0.191991   -3.874479
     91          1           0      -11.203750   -1.475362   -3.558314
     92          1           0       -9.329497   -4.704955   -1.886650
     93          1           0       -8.124672   -5.637113   -0.943377
     94          1           0       -9.651763   -4.931152   -0.159897
     95          1           0       -3.210245   -3.550736   -0.296955
     96          1           0       -1.854936   -4.564326    3.455863
     97          1           0       -3.050037   -6.030481    3.524158
     98          1           0       -1.676128   -6.218071    2.744423
     99          1           0        2.705617   -1.605077   -1.740760
    100          1           0        2.428901    0.245341   -1.900777
    101          1           0        4.472140   -1.042537    0.272078
    102          1           0        4.189192    1.298593   -2.731423
    103          1           0        5.513768    2.189814   -2.041646
    104          1           0        5.697451    0.703249   -2.984418
    105          1           0        6.608087    1.444829   -0.019493
    106          1           0        6.186315   -0.114949    0.771611
    107          1           0        7.432696   -1.287171   -1.299964
    108          1           0        7.757196    0.166008   -1.909470
    109          1           0        9.009099    0.931723   -0.125744
    110          1           0        8.703729   -0.567958    0.781249
    111          1           0       10.000502    0.125301   -1.808702
    112          1           0        9.224460   -2.444583   -1.880064
    113          1           0       10.969588   -2.327882   -1.831398
    114          1           0       10.354607   -2.711530   -0.442158
    115          1           0       11.115732    0.594742    0.522056
    116          1           0       11.475523   -1.112136    0.667930
    117          1           0       12.873200   -1.395339   -0.952629
    118          1           0       12.844521    0.326677   -1.619319
    119          1           0       13.773196    0.911426    0.643440
    120          1           0       13.876338   -0.805577    1.099584
    121          1           0       15.322832    0.539824   -1.399721
    122          1           0       15.500810   -2.223570   -0.067245
    123          1           0       14.787383   -1.915654   -1.977335
    124          1           0       16.551166   -1.748386   -1.527814
    125          1           0       15.888752    1.251722    0.806043
    126          1           0       16.477431   -0.076607    1.392797
    127          1           0       18.336957   -0.505122   -0.303417
    128          1           0       17.644093    0.925835   -1.200179
    129          1           0       18.187219    2.227498    0.849063
    130          1           0       18.636758    0.844498    1.621444
    131          1           0       20.502996    0.240352    0.107940
    132          1           0       20.045542    3.347814   -0.770075
    133          1           0       21.388440    2.136441   -1.449491
    134          1           0       19.851067    2.002546   -2.038476
    135          1           0       21.196044    1.014788    2.119077
    136          1           0       22.272777    1.783598    1.011485
    137          1           0       21.080403    2.893262    1.768664
 ---------------------------------------------------------------------

 SCF Done:  E(RCAM-B3LYP) =  -2933.53762256     A.U. after   16 cycles

 Excitation energies and oscillator strengths:

 Excited State   1:      Singlet-A      2.0705 eV  598.81 nm  f=0.1763  <S**2>=0.000
     240 -> 243       -0.27843
     241 -> 242        0.63232
 This state for optimization and/or second-order correction.
 Total Energy, E(TD-HF/TD-DFT) =  -2933.46153321
 Copying the excited state density for this state as the 1-particle RhoCI density.

 The electronic state is 1-A.
 Alpha  occ. eigenvalues --  -46.79743 -19.21717 -19.19660 -19.17331 -19.16618
 Alpha  occ. eigenvalues --  -19.14051 -14.37919 -14.35407 -14.34903 -14.34655
 Alpha  occ. eigenvalues --  -10.35362 -10.32922 -10.28545 -10.28194 -10.26567
 Alpha  occ. eigenvalues --  -10.26526 -10.26291 -10.26066 -10.26065 -10.25302
 Alpha  occ. eigenvalues --  -10.24899 -10.24483 -10.24134 -10.24063 -10.23938
 Alpha  occ. eigenvalues --  -10.23742 -10.23579 -10.23150 -10.23026 -10.22776
 Alpha  occ. eigenvalues --  -10.22652 -10.22612 -10.22436 -10.22391 -10.22187
 Alpha  occ. eigenvalues --  -10.22186 -10.22167 -10.21992 -10.21944 -10.21876
 Alpha  occ. eigenvalues --  -10.21801 -10.21795 -10.21737 -10.21698 -10.21617
 Alpha  occ. eigenvalues --  -10.21582 -10.21563 -10.21492 -10.21450 -10.21271
 Alpha  occ. eigenvalues --  -10.21176 -10.21152 -10.21024 -10.20994 -10.20773
 Alpha  occ. eigenvalues --  -10.20607 -10.20554 -10.20505 -10.20388 -10.20337
 Alpha  occ. eigenvalues --  -10.19745 -10.19617 -10.19484 -10.19409 -10.19241
 Alpha  occ. eigenvalues --   -3.08396  -1.83329  -1.82898  -1.82783  -1.13956
 Alpha  occ. eigenvalues --   -1.10441  -1.04416  -1.02300  -1.02173  -1.00600
 Alpha  occ. eigenvalues --   -0.98413  -0.97451  -0.96601  -0.88383  -0.86647
 Alpha  occ. eigenvalues --   -0.86006  -0.85888  -0.85607  -0.84381  -0.83673
 Alpha  occ. eigenvalues --   -0.83393  -0.82853  -0.82629  -0.81635  -0.81327
 Alpha  occ. eigenvalues --   -0.80130  -0.79843  -0.78985  -0.78490  -0.77926
 Alpha  occ. eigenvalues --   -0.76433  -0.75926  -0.75458  -0.75062  -0.73835
 Alpha  occ. eigenvalues --   -0.73499  -0.73184  -0.73125  -0.71547  -0.71090
 Alpha  occ. eigenvalues --   -0.70565  -0.70132  -0.69947  -0.68784  -0.68052
 Alpha  occ. eigenvalues --   -0.67555  -0.66660  -0.66276  -0.64685  -0.64305
 Alpha  occ. eigenvalues --   -0.62982  -0.62488  -0.61405  -0.60747  -0.60273
 Alpha  occ. eigenvalues --   -0.59389  -0.58860  -0.58811  -0.57822  -0.57607
 Alpha  occ. eigenvalues --   -0.57233  -0.56632  -0.56548  -0.54960  -0.54811
 Alpha  occ. eigenvalues --   -0.54466  -0.54217  -0.53717  -0.53476  -0.52853
 Alpha  occ. eigenvalues --   -0.51878  -0.51781  -0.51654  -0.51387  -0.50706
 Alpha  occ. eigenvalues --   -0.50501  -0.50213  -0.50057  -0.49724  -0.49285
 Alpha  occ. eigenvalues --   -0.49163  -0.48761  -0.48372  -0.48055  -0.48032
 Alpha  occ. eigenvalues --   -0.47706  -0.47495  -0.47209  -0.47170  -0.46960
 Alpha  occ. eigenvalues --   -0.46929  -0.46684  -0.46523  -0.46420  -0.45545
 Alpha  occ. eigenvalues --   -0.45377  -0.45063  -0.44870  -0.44806  -0.44587
 Alpha  occ. eigenvalues --   -0.44495  -0.44367  -0.44132  -0.43677  -0.43591
 Alpha  occ. eigenvalues --   -0.43503  -0.43329  -0.42898  -0.42665  -0.42597
 Alpha  occ. eigenvalues --   -0.42421  -0.42169  -0.42099  -0.41963  -0.41676
 Alpha  occ. eigenvalues --   -0.41471  -0.41268  -0.41204  -0.41147  -0.40951
 Alpha  occ. eigenvalues --   -0.40884  -0.40414  -0.40235  -0.40152  -0.40011
 Alpha  occ. eigenvalues --   -0.39851  -0.39704  -0.39524  -0.39421  -0.39065
 Alpha  occ. eigenvalues --   -0.38708  -0.38640  -0.38589  -0.38172  -0.37926
 Alpha  occ. eigenvalues --   -0.37777  -0.37721  -0.37522  -0.37347  -0.37168
 Alpha  occ. eigenvalues --   -0.36917  -0.36586  -0.36538  -0.36157  -0.36118
 Alpha  occ. eigenvalues --   -0.35844  -0.35589  -0.35462  -0.35211  -0.34905
 Alpha  occ. eigenvalues --   -0.34708  -0.34425  -0.34059  -0.33774  -0.33672
 Alpha  occ. eigenvalues --   -0.33411  -0.33171  -0.32842  -0.32753  -0.32424
 Alpha  occ. eigenvalues --   -0.32275  -0.32250  -0.32055  -0.30991  -0.30724
 Alpha  occ. eigenvalues --   -0.30514  -0.30274  -0.29829  -0.27472  -0.26115
 Alpha  occ. eigenvalues --   -0.26029  -0.25765  -0.25484  -0.24899  -0.21320
 Alpha  occ. eigenvalues --   -0.20274
 Alpha virt. eigenvalues --   -0.06977  -0.04524  -0.00746   0.01780   0.03019
 Alpha virt. eigenvalues --    0.04300   0.04447   0.05018   0.05707   0.06553
 Alpha virt. eigenvalues --    0.06951   0.08852   0.09729   0.10208   0.10506

 Mulliken charges:
               1
     1  Mg   0.816008
     2  C    0.053496
     3  C   -0.189972
     4  C   -0.130798
     5  C   -0.190787
     6  N   -0.641754
     7  C    0.292052
     8  C   -0.178156
     9  C   -0.155744
    10  C    0.362013
    11  C   -0.312186
    12  C   -0.137602
    13  C   -0.286358
    14  C    0.590765
    15  O   -0.424932
    16  O   -0.510531
    17  N   -0.721656
    18  C    0.339841
    19  C   -0.006616
    20  C    0.047183
    21  C    0.267591
    22  C   -0.405248
    23  C   -0.051218
    24  C   -0.228017
    25  N   -0.654442
    26  C    0.285456
    27  C    0.037975
    28  C    0.015600
    29  C    0.285284
    30  C   -0.377197
    31  C   -0.239671
    32  C   -0.316249
    33  N   -0.742850
    34  C    0.283935
    35  C    0.080056
    36  C    0.053077
    37  C    0.339277
    38  C   -0.410697
    39  C    0.305518
    40  O   -0.505461
    41  C   -0.306681
    42  C    0.633754
    43  O   -0.483261
    44  O   -0.454377
    45  C   -0.084650
    46  C    0.014421
    47  C   -0.136813
    48  C    0.130441
    49  C   -0.359196
    50  C   -0.236825
    51  C   -0.195499
    52  C   -0.151080
    53  C   -0.049427
    54  C   -0.313932
    55  C   -0.188120
    56  C   -0.174716
    57  C   -0.180234
    58  C   -0.050602
    59  C   -0.286590
    60  C   -0.153768
    61  C   -0.166132
    62  C   -0.168706
    63  C   -0.043152
    64  C   -0.308105
    65  C   -0.307116
    66  H    0.070522
    67  H    0.051474
    68  H    0.081186
    69  H    0.116685
    70  H    0.110646
    71  H    0.108577
    72  H    0.108068
    73  H    0.123047
    74  H    0.115238
    75  H    0.119390
    76  H    0.137982
    77  H    0.139336
    78  H    0.156231
    79  H    0.136014
    80  H    0.097058
    81  H    0.070408
    82  H    0.095469
    83  H    0.079609
    84  H    0.132180
    85  H    0.118658
    86  H    0.104951
    87  H    0.119477
    88  H    0.091740
    89  H    0.094751
    90  H    0.123142
    91  H    0.127090
    92  H    0.114726
    93  H    0.150592
    94  H    0.131193
    95  H    0.140067
    96  H    0.130615
    97  H    0.127161
    98  H    0.129129
    99  H    0.128369
   100  H    0.119421
   101  H    0.078202
   102  H    0.116787
   103  H    0.105727
   104  H    0.121771
   105  H    0.097186
   106  H    0.101624
   107  H    0.093328
   108  H    0.078101
   109  H    0.102539
   110  H    0.085659
   111  H    0.064661
   112  H    0.103314
   113  H    0.124548
   114  H    0.095243
   115  H    0.070716
   116  H    0.088568
   117  H    0.100669
   118  H    0.086581
   119  H    0.076617
   120  H    0.088141
   121  H    0.077163
   122  H    0.083319
   123  H    0.067265
   124  H    0.106363
   125  H    0.082913
   126  H    0.099034
   127  H    0.065698
   128  H    0.093665
   129  H    0.096766
   130  H    0.081125
   131  H    0.070790
   132  H    0.114729
   133  H    0.080239
   134  H    0.101087
   135  H    0.104901
   136  H    0.102884
   137  H    0.075262
 Sum of Mulliken charges =  -0.00000

 Dipole moment (field-independent basis, Debye):
    X=              1.5987    Y=              4.3874    Z=              0.3787  Tot=              4.6849
 Quadrupole moment (field-independent basis, Debye-Ang):
   XX=           -326.1657   YY=           -394.3736   ZZ=           -396.0104
   XY=            -23.5800   XZ=             12.8309   YZ=             -3.5424

 Normal termination of Gaussian 16 at Sun Sep 22 02:23:35 2019.
