 Gaussian 09, Revision D.01,
 Gaussian 09:  ES64L-G09RevD.01 24-Apr-2013

 -------------------------------------
 # td=(NStates=1) CAM-B3LYP/6-31G(d,p)
 -------------------------------------

 --
 TD
 --
 Symbolic Z-matrix:
 Charge =  0 Multiplicity = 1

                         Standard orientation:
 ---------------------------------------------------------------------
 Center     Atomic      Atomic             Coordinates (Angstroms)
 Number     Number       Type             X           Y           Z
 ---------------------------------------------------------------------
      1         12           0       -7.139085    0.619461    0.103403
      2          6           0       -4.843120   -1.976914    0.491896
      3          6           0       -4.840186    2.749671    1.110893
      4          6           0       -9.439052    3.009707   -0.362301
      5          6           0       -9.411137   -1.778563   -0.987803
      6          7           0       -5.201906    0.402915    0.737331
      7          6           0       -4.327960   -0.732641    0.770653
      8          6           0       -2.960500   -0.363338    1.195946
      9          6           0       -3.156612    1.017730    1.612264
     10          6           0       -4.431313    1.395258    1.120542
     11          6           0       -2.974943    1.084210    3.151554
     12          6           0       -1.922312   -0.653701    0.106270
     13          6           0       -0.463712   -0.445713    0.451388
     14          6           0        0.471825   -0.520890   -0.633912
     15          8           0        0.174282   -0.832943   -1.760901
     16          8           0        1.761104   -0.433164   -0.313072
     17          7           0       -7.135359    2.611437    0.307538
     18          6           0       -6.050835    3.370340    0.751542
     19          6           0       -6.374985    4.767546    0.720727
     20          6           0       -7.676963    4.847373    0.371758
     21          6           0       -8.197886    3.495173    0.069387
     22          6           0       -5.493634    5.962462    1.142769
     23          6           0       -8.538200    5.936903    0.333504
     24          6           0       -8.474894    7.211429    0.890530
     25          7           0       -9.053979    0.681912   -0.543093
     26          6           0       -9.867292    1.741807   -0.676865
     27          6           0      -11.261851    1.385721   -1.079598
     28          6           0      -11.252763    0.025742   -1.276553
     29          6           0       -9.894102   -0.419842   -0.993906
     30          6           0      -12.336363    2.464382   -1.377662
     31          6           0      -12.449966   -0.763161   -1.722843
     32          6           0      -12.321576   -1.138399   -3.108653
     33          7           0       -7.130912   -1.356352   -0.239536
     34          6           0       -8.223578   -2.202377   -0.487077
     35          6           0       -7.839939   -3.620898   -0.494111
     36          6           0       -6.531509   -3.590110   -0.100685
     37          6           0       -6.148067   -2.153559    0.021014
     38          6           0       -8.611838   -4.836828   -0.840073
     39          6           0       -5.265569   -4.335491    0.266362
     40          8           0       -5.100065   -5.522969    0.201774
     41          6           0       -4.149388   -3.256506    0.602161
     42          6           0       -3.504359   -3.594759    2.008703
     43          8           0       -3.761447   -3.052633    3.042183
     44          8           0       -2.716107   -4.641049    1.800176
     45          6           0       -2.111892   -5.249456    2.933735
     46          6           0        2.840862   -0.572349   -1.291503
     47          6           0        4.156730   -0.362983   -0.572729
     48          6           0        5.148485    0.418622   -1.064865
     49          6           0        5.098000    1.223792   -2.301074
     50          6           0        6.432919    0.528155   -0.274330
     51          6           0        7.649500   -0.143632   -0.940576
     52          6           0        8.938884   -0.095569   -0.164549
     53          6           0       10.219865   -0.468545   -0.883853
     54          6           0       10.055705   -2.006706   -1.218855
     55          6           0       11.348443   -0.312356    0.074628
     56          6           0       12.759819   -0.678890   -0.618833
     57          6           0       13.898344   -0.108708    0.226221
     58          6           0       15.249957   -0.199005   -0.492615
     59          6           0       15.729686   -1.652329   -0.809635
     60          6           0       16.408853    0.391221    0.412481
     61          6           0       17.860075    0.548234   -0.262074
     62          6           0       18.881061    1.202715    0.744995
     63          6           0       20.322943    1.274662    0.187274
     64          6           0       20.363018    2.226867   -1.101633
     65          6           0       21.227650    1.896773    1.400630
     66          1           0       -4.164724    3.253886    1.584845
     67          1           0      -10.245766    3.716243   -0.360777
     68          1           0      -10.094910   -2.493824   -1.405744
     69          1           0       -2.766178   -1.027554    2.167101
     70          1           0       -2.480759    1.717093    1.043244
     71          1           0       -1.720255    0.993365    3.385753
     72          1           0       -3.366263    2.070055    3.292127
     73          1           0       -3.713071    0.095329    3.809670
     74          1           0       -2.066481   -1.495919   -0.484981
     75          1           0       -2.298479    0.020041   -0.612478
     76          1           0       -0.143035    0.596126    0.894844
     77          1           0       -0.114729   -1.147480    1.084447
     78          1           0       -5.832113    6.777310    0.560917
     79          1           0       -5.796401    6.480864    2.221399
     80          1           0       -4.468167    5.895241    1.171101
     81          1           0       -9.309758    5.945912   -0.274798
     82          1           0       -9.217294    7.885888    0.604361
     83          1           0       -7.496437    7.641047    1.482345
     84          1           0      -12.131545    2.934761   -2.180583
     85          1           0      -13.268979    1.989190   -1.541761
     86          1           0      -12.509534    3.043527   -0.410194
     87          1           0      -12.611911   -1.689977   -1.187088
     88          1           0      -13.363897   -0.026447   -1.625328
     89          1           0      -13.179145   -1.659360   -3.485156
     90          1           0      -11.965723   -0.306624   -3.775066
     91          1           0      -11.464636   -1.990862   -3.232920
     92          1           0       -8.959846   -4.817190   -1.830429
     93          1           0       -8.091157   -5.694476   -0.686841
     94          1           0       -9.467137   -4.948629   -0.458412
     95          1           0       -3.377213   -3.597919   -0.222610
     96          1           0       -1.468670   -4.612096    3.528334
     97          1           0       -3.000733   -5.824764    3.622228
     98          1           0       -1.485190   -6.214877    2.677279
     99          1           0        2.506176   -1.440361   -1.781354
    100          1           0        2.763052    0.255196   -1.989918
    101          1           0        4.157166   -0.876915    0.454366
    102          1           0        4.087583    1.263795   -2.646640
    103          1           0        5.642603    2.170231   -2.042421
    104          1           0        5.853412    0.618458   -3.158840
    105          1           0        6.649622    1.647890   -0.271012
    106          1           0        6.240304    0.282945    0.648240
    107          1           0        7.345624   -1.123766   -1.160827
    108          1           0        7.725622    0.256004   -1.822588
    109          1           0        8.970518    0.916064    0.215122
    110          1           0        8.894430   -0.503336    0.730129
    111          1           0       10.175453   -0.022329   -1.834593
    112          1           0        9.394393   -2.300948   -2.014278
    113          1           0       10.993184   -2.029163   -1.790621
    114          1           0        9.829962   -2.687178   -0.322954
    115          1           0       11.682541    0.767549    0.246179
    116          1           0       11.195672   -1.111784    0.783112
    117          1           0       12.588281   -1.756406   -0.557014
    118          1           0       12.826123   -0.353786   -1.757126
    119          1           0       13.696923    0.854308    0.703317
    120          1           0       13.916386   -0.828893    1.048316
    121          1           0       15.152280    0.446635   -1.335411
    122          1           0       15.778903   -2.447463   -0.038448
    123          1           0       15.154473   -2.299140   -1.521043
    124          1           0       16.654288   -1.409107   -1.234706
    125          1           0       16.174459    1.513029    0.905439
    126          1           0       16.622576   -0.098435    1.523607
    127          1           0       18.263678   -0.477334   -0.421016
    128          1           0       17.838205    1.204949   -1.106476
    129          1           0       18.474840    2.072402    1.054599
    130          1           0       18.878592    0.681275    1.651768
    131          1           0       20.633779    0.175518    0.006562
    132          1           0       19.853432    3.196683   -1.038639
    133          1           0       21.438176    2.489014   -1.259496
    134          1           0       19.783951    1.741754   -1.904588
    135          1           0       21.196516    1.230087    2.238015
    136          1           0       22.172210    2.177636    0.970459
    137          1           0       20.610774    2.692528    1.454210
 ---------------------------------------------------------------------

 SCF Done:  E(RCAM-B3LYP) =  -2932.59710538     A.U. after   17 cycles

 Excitation energies and oscillator strengths:

 Excited State   1:      Singlet-A      1.9717 eV  628.81 nm  f=0.2448  <S**2>=0.000
     240 -> 243       -0.23268
     241 -> 242        0.66188
 This state for optimization and/or second-order correction.
 Total Energy, E(TD-HF/TD-KS) =  -2932.52464583
 Copying the excited state density for this state as the 1-particle RhoCI density.

 The electronic state is 1-A.
 Alpha  occ. eigenvalues --  -46.82773 -19.27674 -19.24560 -19.21762 -19.20346
 Alpha  occ. eigenvalues --  -19.19024 -14.41156 -14.39502 -14.39168 -14.38584
 Alpha  occ. eigenvalues --  -10.40029 -10.37826 -10.35237 -10.33825 -10.31348
 Alpha  occ. eigenvalues --  -10.30252 -10.29928 -10.29730 -10.29713 -10.29073
 Alpha  occ. eigenvalues --  -10.28939 -10.28784 -10.28543 -10.28508 -10.28190
 Alpha  occ. eigenvalues --  -10.28037 -10.28020 -10.27951 -10.27642 -10.27341
 Alpha  occ. eigenvalues --  -10.27214 -10.27188 -10.27088 -10.26957 -10.26934
 Alpha  occ. eigenvalues --  -10.26870 -10.26849 -10.26708 -10.26527 -10.26482
 Alpha  occ. eigenvalues --  -10.26372 -10.26212 -10.26118 -10.25927 -10.25897
 Alpha  occ. eigenvalues --  -10.25828 -10.25633 -10.25625 -10.25618 -10.25576
 Alpha  occ. eigenvalues --  -10.25446 -10.25437 -10.25343 -10.25068 -10.24994
 Alpha  occ. eigenvalues --  -10.24873 -10.24772 -10.24745 -10.24369 -10.23580
 Alpha  occ. eigenvalues --  -10.23432 -10.23418 -10.23214 -10.23212 -10.22735
 Alpha  occ. eigenvalues --   -3.12140  -1.86823  -1.86391  -1.86339  -1.19853
 Alpha  occ. eigenvalues --   -1.17799  -1.11747  -1.11142  -1.07792  -1.05568
 Alpha  occ. eigenvalues --   -1.04178  -1.02053  -1.00810  -0.92507  -0.92230
 Alpha  occ. eigenvalues --   -0.91481  -0.90793  -0.89527  -0.89165  -0.89151
 Alpha  occ. eigenvalues --   -0.88693  -0.88038  -0.87770  -0.87296  -0.86604
 Alpha  occ. eigenvalues --   -0.85378  -0.84422  -0.83797  -0.82849  -0.82415
 Alpha  occ. eigenvalues --   -0.81720  -0.81348  -0.80783  -0.80035  -0.79402
 Alpha  occ. eigenvalues --   -0.78080  -0.77392  -0.76775  -0.76468  -0.75854
 Alpha  occ. eigenvalues --   -0.75299  -0.75193  -0.74066  -0.73505  -0.72938
 Alpha  occ. eigenvalues --   -0.72054  -0.70971  -0.69845  -0.68932  -0.68306
 Alpha  occ. eigenvalues --   -0.67953  -0.66768  -0.65275  -0.64897  -0.64618
 Alpha  occ. eigenvalues --   -0.64343  -0.63456  -0.63331  -0.62715  -0.62416
 Alpha  occ. eigenvalues --   -0.62362  -0.60741  -0.60127  -0.59640  -0.59208
 Alpha  occ. eigenvalues --   -0.58419  -0.58223  -0.57828  -0.57426  -0.56997
 Alpha  occ. eigenvalues --   -0.56605  -0.56246  -0.56065  -0.55821  -0.55616
 Alpha  occ. eigenvalues --   -0.54860  -0.54476  -0.54218  -0.53643  -0.53414
 Alpha  occ. eigenvalues --   -0.52700  -0.52448  -0.52024  -0.51946  -0.51782
 Alpha  occ. eigenvalues --   -0.51710  -0.51295  -0.51038  -0.51010  -0.50920
 Alpha  occ. eigenvalues --   -0.50564  -0.50442  -0.50068  -0.49852  -0.49645
 Alpha  occ. eigenvalues --   -0.49424  -0.49127  -0.49011  -0.48777  -0.48558
 Alpha  occ. eigenvalues --   -0.48285  -0.48225  -0.47779  -0.47403  -0.47240
 Alpha  occ. eigenvalues --   -0.47016  -0.46901  -0.46521  -0.46496  -0.46334
 Alpha  occ. eigenvalues --   -0.46148  -0.45823  -0.45455  -0.45360  -0.44980
 Alpha  occ. eigenvalues --   -0.44905  -0.44849  -0.44646  -0.44422  -0.44160
 Alpha  occ. eigenvalues --   -0.44138  -0.44037  -0.43729  -0.43651  -0.43365
 Alpha  occ. eigenvalues --   -0.43167  -0.43050  -0.42891  -0.42818  -0.42486
 Alpha  occ. eigenvalues --   -0.42153  -0.41979  -0.41641  -0.41544  -0.41350
 Alpha  occ. eigenvalues --   -0.41193  -0.40981  -0.40644  -0.40621  -0.40380
 Alpha  occ. eigenvalues --   -0.40287  -0.40179  -0.39883  -0.39750  -0.39346
 Alpha  occ. eigenvalues --   -0.38703  -0.38598  -0.38274  -0.38215  -0.37941
 Alpha  occ. eigenvalues --   -0.37827  -0.37740  -0.37207  -0.37065  -0.36789
 Alpha  occ. eigenvalues --   -0.36454  -0.36149  -0.35965  -0.35589  -0.35264
 Alpha  occ. eigenvalues --   -0.35130  -0.35042  -0.34328  -0.34097  -0.33845
 Alpha  occ. eigenvalues --   -0.32492  -0.32153  -0.31792  -0.30420  -0.29868
 Alpha  occ. eigenvalues --   -0.29553  -0.29392  -0.28253  -0.26923  -0.22992
 Alpha  occ. eigenvalues --   -0.20185
 Alpha virt. eigenvalues --   -0.05725  -0.02629   0.02093   0.03915   0.05340
 Alpha virt. eigenvalues --    0.05730   0.06471   0.07138   0.07421   0.08037
 Alpha virt. eigenvalues --    0.08302   0.10184   0.11260   0.11447   0.11780

 Mulliken charges:
               1
     1  Mg   0.800748
     2  C    0.087886
     3  C   -0.190657
     4  C   -0.208490
     5  C   -0.163553
     6  N   -0.639052
     7  C    0.274169
     8  C   -0.167474
     9  C   -0.160865
    10  C    0.383371
    11  C   -0.262877
    12  C   -0.171747
    13  C   -0.247293
    14  C    0.585981
    15  O   -0.489715
    16  O   -0.508254
    17  N   -0.722397
    18  C    0.312112
    19  C    0.035728
    20  C    0.054011
    21  C    0.309110
    22  C   -0.365516
    23  C   -0.104984
    24  C   -0.242367
    25  N   -0.670158
    26  C    0.331482
    27  C   -0.013338
    28  C    0.039561
    29  C    0.220825
    30  C   -0.349925
    31  C   -0.224996
    32  C   -0.292351
    33  N   -0.699392
    34  C    0.239356
    35  C    0.007332
    36  C   -0.007656
    37  C    0.295888
    38  C   -0.358886
    39  C    0.369037
    40  O   -0.443758
    41  C   -0.342975
    42  C    0.623412
    43  O   -0.459050
    44  O   -0.417773
    45  C   -0.088620
    46  C    0.031784
    47  C   -0.137629
    48  C    0.101966
    49  C   -0.332705
    50  C   -0.214738
    51  C   -0.166054
    52  C   -0.156421
    53  C   -0.068483
    54  C   -0.337519
    55  C   -0.176231
    56  C   -0.203713
    57  C   -0.173555
    58  C   -0.056002
    59  C   -0.315522
    60  C   -0.176322
    61  C   -0.187574
    62  C   -0.180891
    63  C   -0.082628
    64  C   -0.323507
    65  C   -0.311816
    66  H    0.040285
    67  H    0.078087
    68  H    0.086662
    69  H    0.123782
    70  H    0.118137
    71  H    0.089169
    72  H    0.114286
    73  H    0.100169
    74  H    0.133599
    75  H    0.118880
    76  H    0.120900
    77  H    0.150022
    78  H    0.135613
    79  H    0.093252
    80  H    0.122918
    81  H    0.090158
    82  H    0.103555
    83  H    0.082289
    84  H    0.141978
    85  H    0.109095
    86  H    0.117351
    87  H    0.110920
    88  H    0.092649
    89  H    0.108044
    90  H    0.111096
    91  H    0.073296
    92  H    0.123223
    93  H    0.147874
    94  H    0.130453
    95  H    0.158654
    96  H    0.136910
    97  H    0.104412
    98  H    0.123280
    99  H    0.137761
   100  H    0.109953
   101  H    0.096311
   102  H    0.119062
   103  H    0.121238
   104  H    0.090527
   105  H    0.075973
   106  H    0.102113
   107  H    0.099520
   108  H    0.095409
   109  H    0.072803
   110  H    0.089478
   111  H    0.087749
   112  H    0.106601
   113  H    0.108157
   114  H    0.096917
   115  H    0.100357
   116  H    0.107740
   117  H    0.108928
   118  H    0.068981
   119  H    0.091854
   120  H    0.095879
   121  H    0.099507
   122  H    0.104602
   123  H    0.092387
   124  H    0.115269
   125  H    0.048653
   126  H    0.069531
   127  H    0.102337
   128  H    0.099930
   129  H    0.096622
   130  H    0.087894
   131  H    0.077812
   132  H    0.103820
   133  H    0.100269
   134  H    0.110998
   135  H    0.108067
   136  H    0.099386
   137  H    0.120276
 Sum of Mulliken charges =   0.00000

 Dipole moment (field-independent basis, Debye):
    X=              2.6568    Y=              2.5523    Z=              0.2555  Tot=              3.6929
 Quadrupole moment (field-independent basis, Debye-Ang):
   XX=           -343.8243   YY=           -387.6139   ZZ=           -399.6872
   XY=             -9.3337   XZ=             12.8326   YZ=             -6.0883

 Normal termination of Gaussian 09 at Sat Jul  6 15:36:46 2019.
