 Gaussian 09, Revision D.01,
 Gaussian 09:  ES64L-G09RevD.01 24-Apr-2013

 -------------------------------------
 # td=(NStates=1) CAM-B3LYP/6-31G(d,p)
 -------------------------------------

 --
 TD
 --
 Symbolic Z-matrix:
 Charge =  0 Multiplicity = 1

                         Standard orientation:
 ---------------------------------------------------------------------
 Center     Atomic      Atomic             Coordinates (Angstroms)
 Number     Number       Type             X           Y           Z
 ---------------------------------------------------------------------
      1         12           0       -7.169002    0.575488    0.023599
      2          6           0       -4.782509   -1.848216    0.488010
      3          6           0       -4.842517    2.823593    1.227485
      4          6           0       -9.409918    3.153991   -0.482902
      5          6           0       -9.521223   -1.764714   -0.783486
      6          7           0       -5.065231    0.517430    0.738449
      7          6           0       -4.283916   -0.645294    0.848419
      8          6           0       -2.939651   -0.362104    1.300701
      9          6           0       -3.086361    1.124432    1.797621
     10          6           0       -4.411597    1.565383    1.214822
     11          6           0       -2.881524    1.233711    3.393193
     12          6           0       -1.988601   -0.576174    0.078568
     13          6           0       -0.469849   -0.309266    0.396944
     14          6           0        0.529621   -0.532390   -0.702429
     15          8           0        0.254306   -0.890207   -1.766836
     16          8           0        1.736402   -0.466154   -0.317582
     17          7           0       -7.129268    2.500878    0.286933
     18          6           0       -6.083940    3.292132    0.724257
     19          6           0       -6.414894    4.723988    0.705844
     20          6           0       -7.671338    4.838038    0.169561
     21          6           0       -8.118607    3.407053   -0.080716
     22          6           0       -5.524061    5.887795    1.024051
     23          6           0       -8.525201    6.039780    0.036365
     24          6           0       -8.354388    7.150003    0.795480
     25          7           0       -9.087658    0.709515   -0.531147
     26          6           0       -9.850550    1.770925   -0.716663
     27          6           0      -11.224842    1.498298   -1.113370
     28          6           0      -11.238614    0.027602   -1.243266
     29          6           0       -9.886846   -0.350432   -0.786036
     30          6           0      -12.295217    2.341917   -1.451867
     31          6           0      -12.438004   -0.739061   -1.502050
     32          6           0      -12.563590   -1.215944   -3.023988
     33          7           0       -7.172387   -1.419024   -0.221859
     34          6           0       -8.237827   -2.223323   -0.555448
     35          6           0       -7.914063   -3.499753   -0.368619
     36          6           0       -6.487556   -3.531392   -0.065575
     37          6           0       -6.074511   -2.155796    0.008080
     38          6           0       -8.637885   -4.782742   -0.835827
     39          6           0       -5.385832   -4.371078    0.177775
     40          8           0       -5.165673   -5.530311    0.078131
     41          6           0       -4.215878   -3.250088    0.567804
     42          6           0       -3.629056   -3.657866    1.843668
     43          8           0       -3.742935   -3.121284    2.905498
     44          8           0       -2.733518   -4.711828    1.752385
     45          6           0       -2.134927   -5.071064    2.934634
     46          6           0        2.849375   -0.745475   -1.268592
     47          6           0        4.125696   -0.535860   -0.620642
     48          6           0        5.183129    0.346658   -0.909629
     49          6           0        5.105455    1.154011   -2.263653
     50          6           0        6.438827    0.282323   -0.158697
     51          6           0        7.645661   -0.377900   -0.891320
     52          6           0        8.912010   -0.297498   -0.012051
     53          6           0       10.211403   -0.594015   -0.770113
     54          6           0       10.128849   -2.020171   -1.513851
     55          6           0       11.424083   -0.311890    0.118788
     56          6           0       12.795107   -0.533559   -0.629437
     57          6           0       14.034450   -0.329960    0.250458
     58          6           0       15.380241   -0.289664   -0.428726
     59          6           0       15.726183   -1.749569   -0.983034
     60          6           0       16.407836    0.312321    0.404034
     61          6           0       17.774690    0.594930   -0.165185
     62          6           0       18.848858    1.353312    0.760524
     63          6           0       20.180494    1.419982    0.256021
     64          6           0       20.238123    2.407317   -1.029884
     65          6           0       21.074173    2.010583    1.226304
     66          1           0       -4.097988    3.677565    1.518944
     67          1           0      -10.048738    4.025324   -0.617095
     68          1           0      -10.316562   -2.523211   -0.616289
     69          1           0       -2.637710   -1.066570    2.038238
     70          1           0       -2.371066    1.880475    1.279401
     71          1           0       -1.763806    0.903650    3.448366
     72          1           0       -2.774308    2.411217    3.453939
     73          1           0       -3.512960    0.549447    3.933515
     74          1           0       -1.946347   -1.611137   -0.348023
     75          1           0       -2.304497    0.292204   -0.609635
     76          1           0       -0.305544    0.656183    0.831609
     77          1           0       -0.192839   -0.873062    1.447583
     78          1           0       -5.737327    6.762423    0.336073
     79          1           0       -5.695419    6.283977    2.083645
     80          1           0       -4.562738    5.551533    0.924647
     81          1           0       -9.054672    6.245305   -0.823933
     82          1           0       -8.964594    8.130034    0.729224
     83          1           0       -7.957617    7.219296    1.747681
     84          1           0      -12.209031    2.854100   -2.454529
     85          1           0      -13.131275    1.828595   -1.580875
     86          1           0      -12.511990    3.054069   -0.654908
     87          1           0      -12.468614   -1.700293   -0.870614
     88          1           0      -13.414298   -0.383237   -1.079059
     89          1           0      -13.473094   -1.955381   -3.310247
     90          1           0      -12.477778   -0.466676   -3.716909
     91          1           0      -11.599109   -1.793332   -3.300247
     92          1           0       -8.851611   -4.628048   -1.896156
     93          1           0       -8.130896   -5.549124   -0.647533
     94          1           0       -9.507199   -4.863394   -0.210658
     95          1           0       -3.378399   -3.281388   -0.239545
     96          1           0       -1.378034   -4.234131    3.352219
     97          1           0       -2.967566   -5.230345    3.730412
     98          1           0       -1.760818   -6.072455    2.886924
     99          1           0        2.750966   -1.708387   -1.752402
    100          1           0        2.807061    0.078753   -2.037106
    101          1           0        4.113931   -1.059798    0.331130
    102          1           0        4.060348    1.362767   -2.509412
    103          1           0        5.859085    1.977320   -2.003465
    104          1           0        5.955291    0.415655   -2.933730
    105          1           0        6.780754    1.367644    0.195566
    106          1           0        6.482304   -0.071123    0.838546
    107          1           0        7.412816   -1.261456   -1.175968
    108          1           0        7.999127    0.245900   -1.685751
    109          1           0        8.798668    0.681762    0.518554
    110          1           0        8.910058   -0.864916    1.046280
    111          1           0       10.249312    0.236112   -1.537505
    112          1           0        9.308407   -1.937403   -2.359949
    113          1           0       10.946212   -2.319555   -2.067621
    114          1           0       10.090813   -2.761227   -0.557269
    115          1           0       11.190482    0.735404    0.522716
    116          1           0       11.436529   -0.927846    1.006570
    117          1           0       12.908644   -1.555315   -1.181575
    118          1           0       12.883956    0.134973   -1.559709
    119          1           0       13.968241    0.677730    0.485494
    120          1           0       13.852796   -0.955884    1.322769
    121          1           0       15.257929    0.280301   -1.280463
    122          1           0       16.087262   -2.473893   -0.086773
    123          1           0       14.922522   -2.195450   -1.505010
    124          1           0       16.702812   -1.657284   -1.726661
    125          1           0       15.980412    1.240784    1.033981
    126          1           0       16.384326   -0.473746    1.267456
    127          1           0       18.412861   -0.262783   -0.636637
    128          1           0       17.828798    1.341959   -1.139126
    129          1           0       18.437899    2.226993    0.812047
    130          1           0       18.742994    0.922136    1.744937
    131          1           0       20.622889    0.464239   -0.268600
    132          1           0       19.870948    3.339942   -0.883893
    133          1           0       21.320883    2.373733   -1.398169
    134          1           0       19.659271    1.899396   -1.891508
    135          1           0       21.092831    1.360176    2.197207
    136          1           0       22.133590    2.084850    0.913596
    137          1           0       20.767772    3.107837    1.418562
 ---------------------------------------------------------------------

 SCF Done:  E(RCAM-B3LYP) =  -2932.62808220     A.U. after   15 cycles

 Excitation energies and oscillator strengths:

 Excited State   1:      Singlet-A      2.2089 eV  561.30 nm  f=0.1620  <S**2>=0.000
     240 -> 242        0.13592
     240 -> 243        0.27402
     241 -> 242        0.62198
 This state for optimization and/or second-order correction.
 Total Energy, E(TD-HF/TD-KS) =  -2932.54690817
 Copying the excited state density for this state as the 1-particle RhoCI density.

 The electronic state is 1-A.
 Alpha  occ. eigenvalues --  -46.83512 -19.25216 -19.24076 -19.19802 -19.19753
 Alpha  occ. eigenvalues --  -19.18591 -14.40698 -14.40344 -14.39966 -14.38515
 Alpha  occ. eigenvalues --  -10.37710 -10.37167 -10.34162 -10.32109 -10.31549
 Alpha  occ. eigenvalues --  -10.30289 -10.30096 -10.30088 -10.29811 -10.29665
 Alpha  occ. eigenvalues --  -10.29613 -10.29182 -10.29037 -10.28945 -10.28583
 Alpha  occ. eigenvalues --  -10.28557 -10.28151 -10.28074 -10.27968 -10.27756
 Alpha  occ. eigenvalues --  -10.27645 -10.27559 -10.27526 -10.27394 -10.27388
 Alpha  occ. eigenvalues --  -10.27386 -10.27201 -10.27195 -10.27164 -10.27067
 Alpha  occ. eigenvalues --  -10.26933 -10.26884 -10.26792 -10.26751 -10.26692
 Alpha  occ. eigenvalues --  -10.26631 -10.26593 -10.26500 -10.26496 -10.26369
 Alpha  occ. eigenvalues --  -10.26245 -10.26071 -10.25974 -10.25969 -10.25805
 Alpha  occ. eigenvalues --  -10.25785 -10.25546 -10.25363 -10.25265 -10.24799
 Alpha  occ. eigenvalues --  -10.24790 -10.24505 -10.24145 -10.24130 -10.23128
 Alpha  occ. eigenvalues --   -3.12827  -1.87512  -1.87073  -1.87027  -1.20444
 Alpha  occ. eigenvalues --   -1.17597  -1.11977  -1.09703  -1.08529  -1.04973
 Alpha  occ. eigenvalues --   -1.04244  -1.03681  -1.02656  -0.92551  -0.91560
 Alpha  occ. eigenvalues --   -0.91314  -0.90338  -0.89928  -0.89392  -0.89092
 Alpha  occ. eigenvalues --   -0.88984  -0.88393  -0.87330  -0.86957  -0.86261
 Alpha  occ. eigenvalues --   -0.84916  -0.84127  -0.83622  -0.83326  -0.82796
 Alpha  occ. eigenvalues --   -0.81431  -0.80773  -0.80418  -0.79466  -0.78464
 Alpha  occ. eigenvalues --   -0.78001  -0.77145  -0.75940  -0.75597  -0.75513
 Alpha  occ. eigenvalues --   -0.75174  -0.74764  -0.74474  -0.73199  -0.72581
 Alpha  occ. eigenvalues --   -0.71809  -0.70900  -0.70392  -0.69255  -0.68728
 Alpha  occ. eigenvalues --   -0.67714  -0.67425  -0.65467  -0.64884  -0.64507
 Alpha  occ. eigenvalues --   -0.63766  -0.63329  -0.63161  -0.62799  -0.62241
 Alpha  occ. eigenvalues --   -0.61748  -0.60679  -0.60089  -0.59997  -0.58840
 Alpha  occ. eigenvalues --   -0.58413  -0.58211  -0.57899  -0.57587  -0.56481
 Alpha  occ. eigenvalues --   -0.55980  -0.55400  -0.55192  -0.54933  -0.54652
 Alpha  occ. eigenvalues --   -0.54225  -0.53783  -0.53511  -0.53297  -0.53054
 Alpha  occ. eigenvalues --   -0.52835  -0.52408  -0.52258  -0.52039  -0.51983
 Alpha  occ. eigenvalues --   -0.51865  -0.51491  -0.51207  -0.50621  -0.50592
 Alpha  occ. eigenvalues --   -0.50448  -0.50394  -0.50091  -0.50053  -0.49786
 Alpha  occ. eigenvalues --   -0.49661  -0.49343  -0.49125  -0.48869  -0.48495
 Alpha  occ. eigenvalues --   -0.48006  -0.47813  -0.47550  -0.47425  -0.47224
 Alpha  occ. eigenvalues --   -0.47210  -0.46937  -0.46676  -0.46529  -0.46203
 Alpha  occ. eigenvalues --   -0.46022  -0.45925  -0.45608  -0.45483  -0.45318
 Alpha  occ. eigenvalues --   -0.45241  -0.45040  -0.44759  -0.44537  -0.44226
 Alpha  occ. eigenvalues --   -0.43927  -0.43696  -0.43510  -0.43465  -0.43296
 Alpha  occ. eigenvalues --   -0.43009  -0.42695  -0.42455  -0.42421  -0.42356
 Alpha  occ. eigenvalues --   -0.42059  -0.41846  -0.41662  -0.41248  -0.41074
 Alpha  occ. eigenvalues --   -0.40819  -0.40776  -0.40452  -0.40207  -0.39939
 Alpha  occ. eigenvalues --   -0.39684  -0.39551  -0.39289  -0.38891  -0.38685
 Alpha  occ. eigenvalues --   -0.38642  -0.38517  -0.38281  -0.37999  -0.37925
 Alpha  occ. eigenvalues --   -0.37725  -0.37486  -0.36765  -0.36589  -0.36488
 Alpha  occ. eigenvalues --   -0.36155  -0.35907  -0.35720  -0.35486  -0.35332
 Alpha  occ. eigenvalues --   -0.35067  -0.34854  -0.34017  -0.33963  -0.33321
 Alpha  occ. eigenvalues --   -0.32956  -0.32642  -0.32363  -0.30761  -0.29167
 Alpha  occ. eigenvalues --   -0.29103  -0.28686  -0.28353  -0.27542  -0.23126
 Alpha  occ. eigenvalues --   -0.22121
 Alpha virt. eigenvalues --   -0.06337  -0.03557   0.01719   0.03644   0.04287
 Alpha virt. eigenvalues --    0.06241   0.06485   0.06778   0.07429   0.08565
 Alpha virt. eigenvalues --    0.08900   0.10273   0.10369   0.10650   0.11496

 Mulliken charges:
               1
     1  Mg   0.825309
     2  C    0.110404
     3  C   -0.235157
     4  C   -0.176701
     5  C   -0.152419
     6  N   -0.650177
     7  C    0.321750
     8  C   -0.161130
     9  C   -0.184868
    10  C    0.415466
    11  C   -0.292292
    12  C   -0.155263
    13  C   -0.291332
    14  C    0.590114
    15  O   -0.457637
    16  O   -0.456139
    17  N   -0.727099
    18  C    0.331655
    19  C    0.008373
    20  C    0.014477
    21  C    0.311299
    22  C   -0.360239
    23  C   -0.090892
    24  C   -0.242060
    25  N   -0.675270
    26  C    0.287817
    27  C    0.021424
    28  C    0.043211
    29  C    0.255769
    30  C   -0.380769
    31  C   -0.267990
    32  C   -0.312158
    33  N   -0.738216
    34  C    0.303685
    35  C   -0.021858
    36  C   -0.003984
    37  C    0.271550
    38  C   -0.329721
    39  C    0.331445
    40  O   -0.437360
    41  C   -0.381851
    42  C    0.628047
    43  O   -0.469545
    44  O   -0.450076
    45  C   -0.065290
    46  C    0.024939
    47  C   -0.132485
    48  C    0.092924
    49  C   -0.341701
    50  C   -0.247887
    51  C   -0.154210
    52  C   -0.188220
    53  C   -0.064028
    54  C   -0.301651
    55  C   -0.172212
    56  C   -0.187373
    57  C   -0.160034
    58  C   -0.053744
    59  C   -0.298852
    60  C   -0.158961
    61  C   -0.190157
    62  C   -0.142491
    63  C   -0.057685
    64  C   -0.324338
    65  C   -0.284634
    66  H    0.075500
    67  H    0.100234
    68  H    0.120093
    69  H    0.128887
    70  H    0.093963
    71  H    0.105315
    72  H    0.106967
    73  H    0.147528
    74  H    0.129441
    75  H    0.105950
    76  H    0.126866
    77  H    0.103572
    78  H    0.127541
    79  H    0.116758
    80  H    0.116730
    81  H    0.113121
    82  H    0.095877
    83  H    0.115884
    84  H    0.115116
    85  H    0.124013
    86  H    0.114826
    87  H    0.096110
    88  H    0.114872
    89  H    0.088244
    90  H    0.126129
    91  H    0.099078
    92  H    0.131461
    93  H    0.143919
    94  H    0.111317
    95  H    0.152783
    96  H    0.090214
    97  H    0.104532
    98  H    0.120312
    99  H    0.146382
   100  H    0.099260
   101  H    0.089494
   102  H    0.134882
   103  H    0.118495
   104  H    0.100754
   105  H    0.074302
   106  H    0.120914
   107  H    0.122279
   108  H    0.100305
   109  H    0.087876
   110  H    0.061466
   111  H    0.079692
   112  H    0.095603
   113  H    0.118023
   114  H    0.092547
   115  H    0.090867
   116  H    0.094976
   117  H    0.082453
   118  H    0.081024
   119  H    0.103728
   120  H    0.060782
   121  H    0.097018
   122  H    0.081429
   123  H    0.112458
   124  H    0.075369
   125  H    0.075330
   126  H    0.083593
   127  H    0.087723
   128  H    0.062831
   129  H    0.109000
   130  H    0.088691
   131  H    0.077752
   132  H    0.114141
   133  H    0.092303
   134  H    0.089415
   135  H    0.083975
   136  H    0.098277
   137  H    0.089940
 Sum of Mulliken charges =   0.00000

 Dipole moment (field-independent basis, Debye):
    X=              0.7124    Y=              7.1450    Z=              0.2058  Tot=              7.1834
 Quadrupole moment (field-independent basis, Debye-Ang):
   XX=           -320.9170   YY=           -393.1827   ZZ=           -400.0058
   XY=            -24.5437   XZ=              5.3987   YZ=              1.6581

 Normal termination of Gaussian 09 at Tue Jul  2 12:47:49 2019.
