 Gaussian 09, Revision D.01,
 Gaussian 09:  ES64L-G09RevD.01 24-Apr-2013

 -------------------------------------
 # td=(NStates=1) CAM-B3LYP/6-31G(d,p)
 -------------------------------------

 --
 TD
 --
 Symbolic Z-matrix:
 Charge =  0 Multiplicity = 1

                         Standard orientation:
 ---------------------------------------------------------------------
 Center     Atomic      Atomic             Coordinates (Angstroms)
 Number     Number       Type             X           Y           Z
 ---------------------------------------------------------------------
      1         12           0       -7.114347    0.599672    0.165107
      2          6           0       -4.826887   -1.945927    0.448364
      3          6           0       -4.834396    2.835531    1.138399
      4          6           0       -9.405673    3.128269   -0.382120
      5          6           0       -9.645481   -1.741918   -0.721451
      6          7           0       -5.100678    0.451464    0.765599
      7          6           0       -4.256560   -0.731895    0.768789
      8          6           0       -2.903265   -0.374391    1.199134
      9          6           0       -2.950066    1.037228    1.628623
     10          6           0       -4.364654    1.466690    1.113887
     11          6           0       -3.020568    1.072207    3.163527
     12          6           0       -1.934052   -0.532314   -0.047162
     13          6           0       -0.471830   -0.375739    0.358002
     14          6           0        0.562146   -0.586038   -0.726286
     15          8           0        0.257566   -0.972155   -1.812445
     16          8           0        1.757607   -0.309124   -0.355414
     17          7           0       -7.109063    2.556104    0.280911
     18          6           0       -6.042669    3.393733    0.781775
     19          6           0       -6.363652    4.752327    0.880742
     20          6           0       -7.716151    4.783161    0.386379
     21          6           0       -8.211675    3.397493    0.020288
     22          6           0       -5.615239    5.975784    1.183359
     23          6           0       -8.542085    6.043117    0.191941
     24          6           0       -8.387869    7.180572    0.792457
     25          7           0       -9.225308    0.627913   -0.492203
     26          6           0       -9.881168    1.801773   -0.650266
     27          6           0      -11.293683    1.444558   -1.124114
     28          6           0      -11.283806    0.110138   -1.184893
     29          6           0      -10.034358   -0.454321   -0.760431
     30          6           0      -12.356642    2.470296   -1.360334
     31          6           0      -12.442201   -0.824836   -1.541750
     32          6           0      -12.483994   -1.017352   -3.156576
     33          7           0       -7.242307   -1.432327   -0.098457
     34          6           0       -8.344554   -2.243365   -0.405974
     35          6           0       -7.847071   -3.609550   -0.487342
     36          6           0       -6.489359   -3.542558   -0.130429
     37          6           0       -6.196721   -2.183215    0.104608
     38          6           0       -8.605279   -4.936154   -0.760968
     39          6           0       -5.236979   -4.317810    0.139435
     40          8           0       -5.179986   -5.553007    0.193925
     41          6           0       -4.140503   -3.297038    0.409840
     42          6           0       -3.503961   -3.751592    1.863020
     43          8           0       -3.723801   -3.260054    2.977120
     44          8           0       -2.634075   -4.644679    1.728711
     45          6           0       -2.081999   -5.311202    2.856686
     46          6           0        2.837549   -0.579892   -1.314139
     47          6           0        4.130709   -0.449474   -0.678746
     48          6           0        5.123662    0.365733   -1.064380
     49          6           0        5.021896    1.329586   -2.257137
     50          6           0        6.466456    0.404650   -0.352697
     51          6           0        7.690011   -0.214659   -1.053029
     52          6           0        8.926818   -0.172845   -0.162119
     53          6           0       10.249152   -0.544627   -0.966818
     54          6           0       10.175923   -2.161155   -1.154537
     55          6           0       11.416539   -0.120719   -0.009010
     56          6           0       12.811101   -0.384126   -0.682578
     57          6           0       13.980176    0.004214    0.260585
     58          6           0       15.381285   -0.119160   -0.556750
     59          6           0       15.706046   -1.551910   -0.835836
     60          6           0       16.417410    0.443717    0.464828
     61          6           0       17.842106    0.468824   -0.086051
     62          6           0       18.786716    1.197890    0.746486
     63          6           0       20.269250    1.322312    0.275536
     64          6           0       20.385595    2.102724   -0.972122
     65          6           0       21.157778    1.831316    1.418320
     66          1           0       -4.094065    3.578139    1.449207
     67          1           0      -10.217431    4.011005   -0.757658
     68          1           0      -10.445859   -2.381495   -0.965284
     69          1           0       -2.417913   -1.224442    1.947057
     70          1           0       -2.085602    1.752849    1.353932
     71          1           0       -2.227653    0.544645    3.771965
     72          1           0       -3.166502    2.101545    3.542021
     73          1           0       -3.849814    0.466155    3.467776
     74          1           0       -2.077876   -1.458659   -0.445418
     75          1           0       -2.322168    0.410208   -0.777251
     76          1           0       -0.262833    0.544089    1.038505
     77          1           0       -0.269172   -1.180249    0.925463
     78          1           0       -6.059031    6.804870    0.618735
     79          1           0       -5.547472    6.214987    2.207372
     80          1           0       -4.575602    5.984995    0.875611
     81          1           0       -9.208524    6.118043   -0.668200
     82          1           0       -9.030564    7.933303    0.782901
     83          1           0       -7.555015    7.295234    1.723290
     84          1           0      -11.891067    3.228266   -2.184643
     85          1           0      -13.266688    2.115663   -1.864753
     86          1           0      -12.616138    3.143055   -0.489682
     87          1           0      -12.378634   -1.794692   -1.057279
     88          1           0      -13.537147   -0.548743   -1.255521
     89          1           0      -13.305631   -1.613258   -3.646117
     90          1           0      -12.393528   -0.193925   -3.873496
     91          1           0      -11.522827   -1.628488   -3.349828
     92          1           0       -8.719549   -5.093863   -1.921483
     93          1           0       -8.135994   -5.922771   -0.409013
     94          1           0       -9.553782   -4.857278   -0.287235
     95          1           0       -3.264064   -3.265271   -0.237145
     96          1           0       -1.366822   -4.541467    3.393569
     97          1           0       -2.899041   -5.549450    3.578612
     98          1           0       -1.672118   -6.176289    2.561545
     99          1           0        2.550959   -1.497890   -1.892747
    100          1           0        2.912719    0.102249   -2.287196
    101          1           0        4.371042   -1.168209    0.214930
    102          1           0        3.962779    1.549762   -2.614442
    103          1           0        5.526286    2.264393   -1.824950
    104          1           0        5.731502    0.988811   -2.997126
    105          1           0        6.624267    1.531309   -0.068149
    106          1           0        6.341002   -0.016846    0.678723
    107          1           0        7.669650   -1.158035   -1.445463
    108          1           0        7.805170    0.355509   -2.045505
    109          1           0        9.116882    0.942177    0.354813
    110          1           0        8.650206   -0.815853    0.639942
    111          1           0       10.257098    0.013654   -1.823251
    112          1           0        9.228560   -2.227251   -1.703891
    113          1           0       10.974856   -2.392159   -1.703879
    114          1           0        9.914918   -2.736162   -0.234114
    115          1           0       11.428406    0.808131    0.282416
    116          1           0       11.167431   -0.704283    1.029092
    117          1           0       12.915737   -1.405329   -0.991696
    118          1           0       12.889991    0.144730   -1.578224
    119          1           0       13.955986    0.965760    0.503218
    120          1           0       14.116375   -0.572901    1.160424
    121          1           0       15.311329    0.651215   -1.264730
    122          1           0       15.616751   -2.364642   -0.069772
    123          1           0       14.940338   -2.214676   -1.294127
    124          1           0       16.592352   -1.939487   -1.464325
    125          1           0       16.149402    1.568237    0.693775
    126          1           0       16.397414   -0.041119    1.533453
    127          1           0       18.202774   -0.553314   -0.343971
    128          1           0       17.911591    0.853035   -1.215060
    129          1           0       18.414312    2.109112    0.989650
    130          1           0       18.757102    0.589196    1.694779
    131          1           0       20.765612    0.343323   -0.105131
    132          1           0       19.924712    3.083818   -0.988451
    133          1           0       21.258218    2.223780   -1.330031
    134          1           0       19.890869    1.636766   -1.834681
    135          1           0       21.202037    0.956929    2.229429
    136          1           0       22.197592    2.031896    1.226209
    137          1           0       20.847408    2.843291    1.761320
 ---------------------------------------------------------------------

 SCF Done:  E(RCAM-B3LYP) =  -2932.70412746     A.U. after   17 cycles

 Excitation energies and oscillator strengths:

 Excited State   1:      Singlet-A      2.2366 eV  554.33 nm  f=0.1932  <S**2>=0.000
     240 -> 242       -0.19553
     240 -> 243       -0.21890
     241 -> 242        0.61814
     241 -> 243       -0.14792
 This state for optimization and/or second-order correction.
 Total Energy, E(TD-HF/TD-KS) =  -2932.62193222
 Copying the excited state density for this state as the 1-particle RhoCI density.

 The electronic state is 1-A.
 Alpha  occ. eigenvalues --  -46.84141 -19.27189 -19.26907 -19.19458 -19.19302
 Alpha  occ. eigenvalues --  -19.19170 -14.42259 -14.39100 -14.39074 -14.38844
 Alpha  occ. eigenvalues --  -10.39094 -10.38138 -10.34470 -10.32777 -10.32248
 Alpha  occ. eigenvalues --  -10.31981 -10.30705 -10.30365 -10.29987 -10.29775
 Alpha  occ. eigenvalues --  -10.29145 -10.29011 -10.28800 -10.28637 -10.28357
 Alpha  occ. eigenvalues --  -10.28253 -10.27967 -10.27600 -10.27548 -10.27527
 Alpha  occ. eigenvalues --  -10.27492 -10.27459 -10.27417 -10.27399 -10.27357
 Alpha  occ. eigenvalues --  -10.27286 -10.27276 -10.27274 -10.27106 -10.26847
 Alpha  occ. eigenvalues --  -10.26496 -10.26449 -10.26420 -10.26394 -10.26362
 Alpha  occ. eigenvalues --  -10.26261 -10.26250 -10.26110 -10.25993 -10.25926
 Alpha  occ. eigenvalues --  -10.25899 -10.25859 -10.25795 -10.25779 -10.25563
 Alpha  occ. eigenvalues --  -10.25459 -10.25055 -10.24968 -10.24867 -10.24808
 Alpha  occ. eigenvalues --  -10.24451 -10.24014 -10.23733 -10.23508 -10.21984
 Alpha  occ. eigenvalues --   -3.13133  -1.87843  -1.87389  -1.87294  -1.21543
 Alpha  occ. eigenvalues --   -1.20299  -1.09566  -1.08816  -1.07191  -1.04758
 Alpha  occ. eigenvalues --   -1.03333  -1.02497  -1.00913  -0.92208  -0.91517
 Alpha  occ. eigenvalues --   -0.90676  -0.90499  -0.89792  -0.89465  -0.88897
 Alpha  occ. eigenvalues --   -0.88403  -0.87190  -0.86980  -0.86646  -0.85787
 Alpha  occ. eigenvalues --   -0.85078  -0.84449  -0.84072  -0.83628  -0.82696
 Alpha  occ. eigenvalues --   -0.81927  -0.81614  -0.80510  -0.80080  -0.78168
 Alpha  occ. eigenvalues --   -0.77634  -0.77221  -0.76673  -0.76229  -0.76048
 Alpha  occ. eigenvalues --   -0.75975  -0.74900  -0.74554  -0.73304  -0.72301
 Alpha  occ. eigenvalues --   -0.71223  -0.70774  -0.69571  -0.69270  -0.67642
 Alpha  occ. eigenvalues --   -0.66991  -0.66858  -0.65810  -0.65056  -0.64874
 Alpha  occ. eigenvalues --   -0.64329  -0.64018  -0.63559  -0.63397  -0.63078
 Alpha  occ. eigenvalues --   -0.62359  -0.60714  -0.60251  -0.59525  -0.59075
 Alpha  occ. eigenvalues --   -0.58570  -0.57962  -0.57680  -0.57382  -0.57208
 Alpha  occ. eigenvalues --   -0.56162  -0.55506  -0.55318  -0.54968  -0.54713
 Alpha  occ. eigenvalues --   -0.54660  -0.54355  -0.53969  -0.53773  -0.53290
 Alpha  occ. eigenvalues --   -0.53149  -0.52797  -0.52655  -0.52588  -0.51440
 Alpha  occ. eigenvalues --   -0.51321  -0.50872  -0.50839  -0.50508  -0.50431
 Alpha  occ. eigenvalues --   -0.50105  -0.50013  -0.49739  -0.49615  -0.49389
 Alpha  occ. eigenvalues --   -0.48992  -0.48676  -0.48560  -0.48490  -0.48093
 Alpha  occ. eigenvalues --   -0.47955  -0.47670  -0.47463  -0.47200  -0.47134
 Alpha  occ. eigenvalues --   -0.46702  -0.46654  -0.46234  -0.46060  -0.45891
 Alpha  occ. eigenvalues --   -0.45739  -0.45653  -0.45377  -0.45248  -0.45052
 Alpha  occ. eigenvalues --   -0.44743  -0.44593  -0.44387  -0.44169  -0.44023
 Alpha  occ. eigenvalues --   -0.43932  -0.43879  -0.43397  -0.43337  -0.43302
 Alpha  occ. eigenvalues --   -0.43110  -0.42815  -0.42571  -0.42413  -0.42147
 Alpha  occ. eigenvalues --   -0.41940  -0.41912  -0.41637  -0.41629  -0.41542
 Alpha  occ. eigenvalues --   -0.41155  -0.40933  -0.40564  -0.40443  -0.40155
 Alpha  occ. eigenvalues --   -0.39802  -0.39751  -0.39459  -0.39353  -0.39091
 Alpha  occ. eigenvalues --   -0.38773  -0.38483  -0.38436  -0.38257  -0.38052
 Alpha  occ. eigenvalues --   -0.37911  -0.37862  -0.36961  -0.36648  -0.36319
 Alpha  occ. eigenvalues --   -0.36307  -0.35968  -0.35761  -0.35727  -0.35673
 Alpha  occ. eigenvalues --   -0.35442  -0.35226  -0.34679  -0.33374  -0.33107
 Alpha  occ. eigenvalues --   -0.32607  -0.32225  -0.32101  -0.30407  -0.30109
 Alpha  occ. eigenvalues --   -0.29192  -0.28536  -0.27973  -0.27885  -0.23342
 Alpha  occ. eigenvalues --   -0.21308
 Alpha virt. eigenvalues --   -0.05810  -0.02738   0.01997   0.04466   0.05503
 Alpha virt. eigenvalues --    0.06042   0.06884   0.07237   0.07432   0.08042
 Alpha virt. eigenvalues --    0.08797   0.10702   0.11451   0.11787   0.12018

 Mulliken charges:
               1
     1  Mg   0.819961
     2  C    0.068074
     3  C   -0.241689
     4  C   -0.197256
     5  C   -0.136971
     6  N   -0.629539
     7  C    0.307056
     8  C   -0.163611
     9  C   -0.141111
    10  C    0.369913
    11  C   -0.313487
    12  C   -0.142543
    13  C   -0.266599
    14  C    0.595790
    15  O   -0.481191
    16  O   -0.441844
    17  N   -0.785697
    18  C    0.327197
    19  C    0.099019
    20  C   -0.067155
    21  C    0.413143
    22  C   -0.401033
    23  C   -0.061856
    24  C   -0.238093
    25  N   -0.694481
    26  C    0.286354
    27  C    0.035262
    28  C    0.032099
    29  C    0.309313
    30  C   -0.378382
    31  C   -0.253110
    32  C   -0.322077
    33  N   -0.737306
    34  C    0.239406
    35  C   -0.026756
    36  C   -0.002010
    37  C    0.330645
    38  C   -0.364304
    39  C    0.390775
    40  O   -0.486044
    41  C   -0.323422
    42  C    0.564722
    43  O   -0.503600
    44  O   -0.375630
    45  C   -0.080183
    46  C   -0.007329
    47  C   -0.120412
    48  C    0.112536
    49  C   -0.358918
    50  C   -0.229190
    51  C   -0.169306
    52  C   -0.172473
    53  C   -0.074842
    54  C   -0.311110
    55  C   -0.150077
    56  C   -0.197232
    57  C   -0.180411
    58  C   -0.054765
    59  C   -0.320297
    60  C   -0.171742
    61  C   -0.174982
    62  C   -0.146911
    63  C   -0.057261
    64  C   -0.303462
    65  C   -0.304283
    66  H    0.070541
    67  H    0.095663
    68  H    0.092820
    69  H    0.111467
    70  H    0.108046
    71  H    0.108797
    72  H    0.103742
    73  H    0.137197
    74  H    0.116549
    75  H    0.083946
    76  H    0.117359
    77  H    0.139773
    78  H    0.140450
    79  H    0.134211
    80  H    0.116423
    81  H    0.101847
    82  H    0.105870
    83  H    0.081749
    84  H    0.093126
    85  H    0.123514
    86  H    0.125564
    87  H    0.113151
    88  H    0.096421
    89  H    0.096387
    90  H    0.116028
    91  H    0.095003
    92  H    0.108458
    93  H    0.142074
    94  H    0.118659
    95  H    0.163746
    96  H    0.116156
    97  H    0.142181
    98  H    0.140130
    99  H    0.142170
   100  H    0.097090
   101  H    0.078054
   102  H    0.122395
   103  H    0.105946
   104  H    0.133065
   105  H    0.094381
   106  H    0.098234
   107  H    0.113497
   108  H    0.074480
   109  H    0.054340
   110  H    0.103256
   111  H    0.096464
   112  H    0.095767
   113  H    0.116614
   114  H    0.110382
   115  H    0.099662
   116  H    0.060540
   117  H    0.098635
   118  H    0.096388
   119  H    0.096644
   120  H    0.097090
   121  H    0.103213
   122  H    0.102947
   123  H    0.086915
   124  H    0.100433
   125  H    0.065462
   126  H    0.080292
   127  H    0.095083
   128  H    0.059947
   129  H    0.098125
   130  H    0.080631
   131  H    0.072494
   132  H    0.088611
   133  H    0.107293
   134  H    0.093193
   135  H    0.086158
   136  H    0.101253
   137  H    0.096529
 Sum of Mulliken charges =   0.00000

 Dipole moment (field-independent basis, Debye):
    X=              3.8040    Y=              5.2391    Z=              0.3331  Tot=              6.4831
 Quadrupole moment (field-independent basis, Debye-Ang):
   XX=           -356.3405   YY=           -382.6329   ZZ=           -399.3761
   XY=            -37.0528   XZ=              1.0571   YZ=             -3.2711

 Normal termination of Gaussian 09 at Fri Jul  5 04:33:18 2019.
