 Gaussian 09, Revision D.01,
 Gaussian 09:  ES64L-G09RevD.01 24-Apr-2013

 -------------------------------------
 # td=(NStates=1) CAM-B3LYP/6-31G(d,p)
 -------------------------------------

 --
 TD
 --
 Symbolic Z-matrix:
 Charge =  0 Multiplicity = 1

                         Standard orientation:
 ---------------------------------------------------------------------
 Center     Atomic      Atomic             Coordinates (Angstroms)
 Number     Number       Type             X           Y           Z
 ---------------------------------------------------------------------
      1         12           0       -7.147557    0.589750    0.086865
      2          6           0       -4.927576   -1.895676    0.382506
      3          6           0       -4.793141    2.868304    1.062377
      4          6           0       -9.425013    3.092452   -0.291463
      5          6           0       -9.618684   -1.806248   -0.867219
      6          7           0       -5.056678    0.390245    0.554486
      7          6           0       -4.314178   -0.682239    0.623804
      8          6           0       -2.886698   -0.376851    1.089200
      9          6           0       -3.024461    1.063887    1.574079
     10          6           0       -4.378614    1.503978    1.109433
     11          6           0       -3.069729    1.218762    3.177861
     12          6           0       -1.844759   -0.605888    0.018635
     13          6           0       -0.470057   -0.314300    0.390255
     14          6           0        0.501950   -0.523815   -0.604059
     15          8           0        0.371174   -0.855856   -1.780376
     16          8           0        1.772767   -0.396633   -0.182704
     17          7           0       -7.092020    2.554842    0.331688
     18          6           0       -5.989939    3.368088    0.761543
     19          6           0       -6.420091    4.727025    0.747538
     20          6           0       -7.810158    4.839300    0.356320
     21          6           0       -8.138374    3.421195    0.098808
     22          6           0       -5.494403    5.807771    1.204501
     23          6           0       -8.648328    5.992477    0.210527
     24          6           0       -8.623831    7.112233    0.878754
     25          7           0       -9.132623    0.595907   -0.431669
     26          6           0       -9.896336    1.787136   -0.648646
     27          6           0      -11.256305    1.379711   -1.194661
     28          6           0      -11.262343    0.078300   -1.227839
     29          6           0      -10.010125   -0.408873   -0.807857
     30          6           0      -12.355179    2.409137   -1.466551
     31          6           0      -12.378961   -0.879691   -1.708972
     32          6           0      -12.225260   -1.064844   -3.307014
     33          7           0       -7.285474   -1.387059   -0.293891
     34          6           0       -8.332956   -2.234317   -0.549602
     35          6           0       -7.773827   -3.645519   -0.400857
     36          6           0       -6.503571   -3.600409   -0.075476
     37          6           0       -6.261692   -2.182719    0.086811
     38          6           0       -8.539403   -4.934266   -0.778960
     39          6           0       -5.257397   -4.359079    0.095803
     40          8           0       -5.134663   -5.536799    0.088156
     41          6           0       -4.140865   -3.233117    0.510229
     42          6           0       -3.544968   -3.567505    1.952551
     43          8           0       -3.875210   -2.997453    2.923300
     44          8           0       -2.837379   -4.711567    1.833984
     45          6           0       -2.344515   -5.228691    3.036934
     46          6           0        2.771547   -0.472835   -1.198315
     47          6           0        4.093830   -0.311168   -0.585748
     48          6           0        5.204756    0.433950   -0.991856
     49          6           0        5.095865    1.412404   -2.117758
     50          6           0        6.487467    0.457637   -0.215879
     51          6           0        7.697306   -0.046829   -0.921375
     52          6           0        9.010395    0.008666    0.047522
     53          6           0       10.251329   -0.568254   -0.763724
     54          6           0       10.144905   -2.140280   -0.894416
     55          6           0       11.492401   -0.297540    0.066701
     56          6           0       12.782653   -0.471707   -0.592670
     57          6           0       14.052497   -0.143493    0.236163
     58          6           0       15.344503   -0.257820   -0.532202
     59          6           0       15.604362   -1.663383   -0.847953
     60          6           0       16.515131    0.259738    0.373262
     61          6           0       17.936563    0.451339   -0.176805
     62          6           0       18.830889    1.284620    0.644239
     63          6           0       20.337271    1.268710    0.259839
     64          6           0       20.389988    1.876464   -1.257441
     65          6           0       21.215413    2.037908    1.260236
     66          1           0       -4.105385    3.566039    1.305455
     67          1           0      -10.047008    3.856043   -0.594830
     68          1           0      -10.366962   -2.426776   -0.975624
     69          1           0       -2.737012   -0.865907    2.029850
     70          1           0       -2.253319    1.830396    1.326063
     71          1           0       -2.051320    0.855564    3.609207
     72          1           0       -3.201453    2.296073    3.595823
     73          1           0       -3.923696    0.388653    3.590968
     74          1           0       -2.141961   -1.603777   -0.413568
     75          1           0       -2.065422    0.047490   -0.815059
     76          1           0       -0.450853    0.640567    0.913049
     77          1           0       -0.419261   -0.971305    1.236945
     78          1           0       -5.892221    6.651610    0.825221
     79          1           0       -5.299908    5.815033    2.291209
     80          1           0       -4.416143    5.711876    0.843112
     81          1           0       -9.655950    5.811354   -0.347626
     82          1           0       -9.375532    7.997036    0.903607
     83          1           0       -7.771718    7.321030    1.774969
     84          1           0      -11.948146    2.953643   -2.161629
     85          1           0      -13.267668    1.885202   -1.948031
     86          1           0      -12.618297    3.136582   -0.729714
     87          1           0      -12.250560   -1.830687   -1.239791
     88          1           0      -13.356997   -0.533151   -1.514145
     89          1           0      -13.016224   -1.788011   -3.597346
     90          1           0      -12.309408   -0.070200   -3.936057
     91          1           0      -11.119071   -1.482691   -3.638039
     92          1           0       -8.950937   -5.112483   -1.855136
     93          1           0       -7.776976   -5.853921   -0.620030
     94          1           0       -9.359165   -5.090186    0.057058
     95          1           0       -3.418963   -3.460855   -0.279470
     96          1           0       -1.658928   -4.585200    3.473658
     97          1           0       -3.453539   -5.226023    3.866176
     98          1           0       -1.806375   -6.221709    2.875591
     99          1           0        2.819482   -1.604028   -1.707602
    100          1           0        2.592911    0.322426   -1.984645
    101          1           0        4.331890   -0.948208    0.205868
    102          1           0        4.127698    1.361190   -2.565909
    103          1           0        5.176797    2.334911   -1.834217
    104          1           0        5.934010    1.309063   -2.959965
    105          1           0        6.557376    1.480274    0.048986
    106          1           0        6.300716   -0.173535    0.736708
    107          1           0        7.728635   -1.123176   -1.136745
    108          1           0        8.185717    0.381564   -1.839331
    109          1           0        8.945301    0.987681    0.295101
    110          1           0        8.719209   -0.759267    0.804310
    111          1           0       10.273752   -0.147476   -1.723103
    112          1           0        9.091550   -2.380325   -1.422049
    113          1           0       10.919471   -2.623130   -1.458744
    114          1           0       10.091488   -2.572180    0.071002
    115          1           0       11.397560    0.833499    0.323930
    116          1           0       11.407349   -0.970032    0.862729
    117          1           0       12.866679   -1.553340   -0.729816
    118          1           0       12.873127    0.089419   -1.637000
    119          1           0       13.827595    0.997711    0.428597
    120          1           0       14.032245   -0.794300    1.006892
    121          1           0       15.302963    0.486068   -1.325958
    122          1           0       15.408954   -2.359115   -0.060484
    123          1           0       15.103704   -2.151860   -1.689040
    124          1           0       16.787438   -1.919706   -1.161902
    125          1           0       16.181048    1.301638    0.584893
    126          1           0       16.506875   -0.170282    1.219364
    127          1           0       18.325669   -0.594788   -0.248535
    128          1           0       17.653855    0.909926   -1.062731
    129          1           0       18.404073    2.170707    0.536475
    130          1           0       18.840273    0.914314    1.529991
    131          1           0       20.614943    0.219784    0.086089
    132          1           0       20.423691    3.100726   -1.325463
    133          1           0       21.372847    1.773826   -1.757234
    134          1           0       19.471162    1.551946   -1.953643
    135          1           0       21.314501    1.672352    2.113903
    136          1           0       22.333099    2.177531    0.987846
    137          1           0       20.809749    3.195788    1.277314
 ---------------------------------------------------------------------

 SCF Done:  E(RCAM-B3LYP) =  -2932.61471899     A.U. after   16 cycles

 Excitation energies and oscillator strengths:

 Excited State   1:      Singlet-A      1.9740 eV  628.07 nm  f=0.2106  <S**2>=0.000
     240 -> 243        0.27746
     241 -> 242        0.64691
 This state for optimization and/or second-order correction.
 Total Energy, E(TD-HF/TD-KS) =  -2932.54217444
 Copying the excited state density for this state as the 1-particle RhoCI density.

 The electronic state is 1-A.
 Alpha  occ. eigenvalues --  -46.83714 -19.27471 -19.25884 -19.22693 -19.21971
 Alpha  occ. eigenvalues --  -19.20336 -14.41939 -14.39728 -14.39202 -14.38926
 Alpha  occ. eigenvalues --  -10.40323 -10.39034 -10.36207 -10.33573 -10.32841
 Alpha  occ. eigenvalues --  -10.31108 -10.30504 -10.29777 -10.29335 -10.29131
 Alpha  occ. eigenvalues --  -10.29115 -10.29105 -10.28996 -10.28652 -10.28592
 Alpha  occ. eigenvalues --  -10.28444 -10.28404 -10.28087 -10.28006 -10.27845
 Alpha  occ. eigenvalues --  -10.27820 -10.27524 -10.27461 -10.27423 -10.27315
 Alpha  occ. eigenvalues --  -10.26953 -10.26826 -10.26760 -10.26746 -10.26600
 Alpha  occ. eigenvalues --  -10.26391 -10.26306 -10.26190 -10.26185 -10.26060
 Alpha  occ. eigenvalues --  -10.26056 -10.25558 -10.25371 -10.25342 -10.25311
 Alpha  occ. eigenvalues --  -10.25186 -10.25126 -10.25088 -10.25086 -10.25038
 Alpha  occ. eigenvalues --  -10.25024 -10.25009 -10.24922 -10.24914 -10.24634
 Alpha  occ. eigenvalues --  -10.24525 -10.24394 -10.23586 -10.22802 -10.21875
 Alpha  occ. eigenvalues --   -3.12858  -1.87554  -1.87112  -1.87035  -1.20337
 Alpha  occ. eigenvalues --   -1.18881  -1.14004  -1.12658  -1.07869  -1.05093
 Alpha  occ. eigenvalues --   -1.03888  -1.01549  -1.00639  -0.92869  -0.91912
 Alpha  occ. eigenvalues --   -0.91757  -0.90941  -0.89958  -0.89417  -0.88625
 Alpha  occ. eigenvalues --   -0.88544  -0.87983  -0.87598  -0.86994  -0.86504
 Alpha  occ. eigenvalues --   -0.85349  -0.84311  -0.83411  -0.83165  -0.82418
 Alpha  occ. eigenvalues --   -0.81972  -0.81305  -0.80686  -0.80099  -0.78076
 Alpha  occ. eigenvalues --   -0.77840  -0.76908  -0.76483  -0.76120  -0.75965
 Alpha  occ. eigenvalues --   -0.75113  -0.74536  -0.74176  -0.73330  -0.71683
 Alpha  occ. eigenvalues --   -0.71325  -0.70692  -0.69327  -0.68979  -0.68254
 Alpha  occ. eigenvalues --   -0.67038  -0.66752  -0.65253  -0.65058  -0.64788
 Alpha  occ. eigenvalues --   -0.64478  -0.63906  -0.63636  -0.63330  -0.63092
 Alpha  occ. eigenvalues --   -0.62930  -0.61437  -0.60180  -0.59563  -0.59255
 Alpha  occ. eigenvalues --   -0.58937  -0.58547  -0.57966  -0.57511  -0.57318
 Alpha  occ. eigenvalues --   -0.56955  -0.56422  -0.56235  -0.55826  -0.55288
 Alpha  occ. eigenvalues --   -0.55131  -0.55055  -0.54608  -0.54334  -0.54249
 Alpha  occ. eigenvalues --   -0.53046  -0.52621  -0.52193  -0.52117  -0.51910
 Alpha  occ. eigenvalues --   -0.51430  -0.51303  -0.51161  -0.50968  -0.50903
 Alpha  occ. eigenvalues --   -0.50514  -0.50440  -0.50096  -0.50019  -0.49675
 Alpha  occ. eigenvalues --   -0.49350  -0.49179  -0.48803  -0.48398  -0.48334
 Alpha  occ. eigenvalues --   -0.48255  -0.48027  -0.47695  -0.47499  -0.47263
 Alpha  occ. eigenvalues --   -0.46728  -0.46649  -0.46567  -0.46228  -0.46074
 Alpha  occ. eigenvalues --   -0.45968  -0.45730  -0.45588  -0.45547  -0.45208
 Alpha  occ. eigenvalues --   -0.44961  -0.44789  -0.44689  -0.44576  -0.44163
 Alpha  occ. eigenvalues --   -0.43936  -0.43833  -0.43527  -0.43408  -0.43327
 Alpha  occ. eigenvalues --   -0.42925  -0.42735  -0.42558  -0.42149  -0.42035
 Alpha  occ. eigenvalues --   -0.41774  -0.41651  -0.41357  -0.41260  -0.41055
 Alpha  occ. eigenvalues --   -0.41026  -0.40974  -0.40493  -0.40399  -0.40228
 Alpha  occ. eigenvalues --   -0.40055  -0.39819  -0.39718  -0.39608  -0.39274
 Alpha  occ. eigenvalues --   -0.38938  -0.38839  -0.38814  -0.38362  -0.38002
 Alpha  occ. eigenvalues --   -0.37617  -0.37443  -0.37285  -0.37144  -0.36747
 Alpha  occ. eigenvalues --   -0.36625  -0.36603  -0.36351  -0.35930  -0.35869
 Alpha  occ. eigenvalues --   -0.35762  -0.34880  -0.34352  -0.34182  -0.33824
 Alpha  occ. eigenvalues --   -0.33580  -0.33039  -0.32732  -0.31045  -0.30589
 Alpha  occ. eigenvalues --   -0.30210  -0.28796  -0.28308  -0.26656  -0.23028
 Alpha  occ. eigenvalues --   -0.20223
 Alpha virt. eigenvalues --   -0.05702  -0.03477   0.01178   0.03678   0.05069
 Alpha virt. eigenvalues --    0.05955   0.06086   0.06542   0.07112   0.07139
 Alpha virt. eigenvalues --    0.08874   0.10704   0.11234   0.11753   0.11993

 Mulliken charges:
               1
     1  Mg   0.811852
     2  C    0.000897
     3  C   -0.184463
     4  C   -0.152225
     5  C   -0.146717
     6  N   -0.615996
     7  C    0.306848
     8  C   -0.142651
     9  C   -0.175588
    10  C    0.318664
    11  C   -0.306761
    12  C   -0.173478
    13  C   -0.280390
    14  C    0.630505
    15  O   -0.489627
    16  O   -0.477685
    17  N   -0.747737
    18  C    0.348957
    19  C   -0.022308
    20  C    0.043345
    21  C    0.315433
    22  C   -0.371124
    23  C   -0.068251
    24  C   -0.254395
    25  N   -0.669073
    26  C    0.225443
    27  C    0.007798
    28  C    0.045028
    29  C    0.264550
    30  C   -0.364882
    31  C   -0.228157
    32  C   -0.303443
    33  N   -0.690461
    34  C    0.304456
    35  C   -0.071799
    36  C    0.116267
    37  C    0.284242
    38  C   -0.382191
    39  C    0.364941
    40  O   -0.413330
    41  C   -0.327920
    42  C    0.618919
    43  O   -0.432645
    44  O   -0.424807
    45  C   -0.076061
    46  C    0.043967
    47  C   -0.135890
    48  C    0.111877
    49  C   -0.359775
    50  C   -0.222496
    51  C   -0.198057
    52  C   -0.179722
    53  C   -0.073761
    54  C   -0.328356
    55  C   -0.134541
    56  C   -0.183900
    57  C   -0.156199
    58  C   -0.045507
    59  C   -0.311297
    60  C   -0.180693
    61  C   -0.190264
    62  C   -0.125966
    63  C   -0.059927
    64  C   -0.317999
    65  C   -0.292872
    66  H    0.063756
    67  H    0.071894
    68  H    0.069208
    69  H    0.132771
    70  H    0.107456
    71  H    0.091817
    72  H    0.113760
    73  H    0.107754
    74  H    0.119968
    75  H    0.124483
    76  H    0.149119
    77  H    0.152169
    78  H    0.124549
    79  H    0.121935
    80  H    0.100124
    81  H    0.090319
    82  H    0.111417
    83  H    0.083443
    84  H    0.139884
    85  H    0.101145
    86  H    0.127139
    87  H    0.111524
    88  H    0.112181
    89  H    0.104637
    90  H    0.101123
    91  H    0.094602
    92  H    0.123775
    93  H    0.128309
    94  H    0.111865
    95  H    0.153097
    96  H    0.132943
    97  H    0.082562
    98  H    0.129885
    99  H    0.108480
   100  H    0.114458
   101  H    0.081452
   102  H    0.105183
   103  H    0.129414
   104  H    0.097819
   105  H    0.111080
   106  H    0.094211
   107  H    0.099585
   108  H    0.091931
   109  H    0.105122
   110  H    0.090598
   111  H    0.089498
   112  H    0.080352
   113  H    0.117295
   114  H    0.110821
   115  H    0.068227
   116  H    0.092272
   117  H    0.084533
   118  H    0.067242
   119  H    0.073159
   120  H    0.094421
   121  H    0.083410
   122  H    0.107201
   123  H    0.106449
   124  H    0.067337
   125  H    0.067819
   126  H    0.089204
   127  H    0.080940
   128  H    0.096757
   129  H    0.098034
   130  H    0.091867
   131  H    0.092569
   132  H    0.064702
   133  H    0.099775
   134  H    0.097192
   135  H    0.117525
   136  H    0.087079
   137  H    0.081772
 Sum of Mulliken charges =   0.00000

 Dipole moment (field-independent basis, Debye):
    X=              1.3787    Y=              2.7102    Z=              1.8486  Tot=              3.5585
 Quadrupole moment (field-independent basis, Debye-Ang):
   XX=           -358.4106   YY=           -389.6654   ZZ=           -400.2193
   XY=            -20.7355   XZ=             17.9088   YZ=             -4.0376

 Normal termination of Gaussian 09 at Tue Jul  2 21:08:46 2019.
