 Gaussian 16, Revision A.03,
 Gaussian 16:  ES64L-G16RevA.03 25-Dec-2016

 ----------------------------------------------------------------------
 # td=(NStates=1) iop(3/107=0140000000,3/108=0140000000) CAM-B3LYP/6-31
 G(d,p)
 ----------------------------------------------------------------------

 --
 TD
 --
 Symbolic Z-matrix:
 Charge =  0 Multiplicity = 1

                         Standard orientation:
 ---------------------------------------------------------------------
 Center     Atomic      Atomic             Coordinates (Angstroms)
 Number     Number       Type             X           Y           Z
 ---------------------------------------------------------------------
      1         12           0       -7.155220    0.613641    0.042568
      2          6           0       -4.929880   -1.988643    0.577414
      3          6           0       -4.799156    2.806319    1.191279
      4          6           0       -9.386402    3.181386   -0.276766
      5          6           0       -9.552466   -1.771064   -1.009121
      6          7           0       -5.064459    0.437997    0.647721
      7          6           0       -4.367340   -0.770553    0.804793
      8          6           0       -2.988102   -0.481097    1.308283
      9          6           0       -3.170184    0.968476    1.775305
     10          6           0       -4.440126    1.483263    1.114125
     11          6           0       -3.255364    1.024144    3.358137
     12          6           0       -1.837981   -0.588602    0.196752
     13          6           0       -0.399740   -0.525785    0.623739
     14          6           0        0.632002   -0.672184   -0.457918
     15          8           0        0.274826   -0.974977   -1.611550
     16          8           0        1.790324   -0.436800    0.025510
     17          7           0       -7.097937    2.707851    0.297898
     18          6           0       -6.005526    3.335199    0.712984
     19          6           0       -6.321756    4.745890    0.834143
     20          6           0       -7.671202    4.879549    0.443433
     21          6           0       -8.079875    3.521914    0.132666
     22          6           0       -5.387002    5.849479    1.214453
     23          6           0       -8.399296    6.086155    0.131493
     24          6           0       -8.232870    7.270726    0.763148
     25          7           0       -9.171013    0.692135   -0.568870
     26          6           0       -9.839372    1.890547   -0.668335
     27          6           0      -11.210157    1.516498   -1.251532
     28          6           0      -11.269429    0.143940   -1.363160
     29          6           0       -9.955270   -0.402168   -0.940265
     30          6           0      -12.323970    2.416786   -1.349551
     31          6           0      -12.348195   -0.759009   -1.810331
     32          6           0      -12.264751   -1.223963   -3.272042
     33          7           0       -7.180831   -1.358039   -0.274852
     34          6           0       -8.227235   -2.266688   -0.627909
     35          6           0       -7.731330   -3.630142   -0.672604
     36          6           0       -6.410204   -3.547782   -0.327822
     37          6           0       -6.144973   -2.189248    0.044359
     38          6           0       -8.606464   -4.832245   -1.003417
     39          6           0       -5.315143   -4.353601    0.130614
     40          8           0       -5.100270   -5.563358    0.101183
     41          6           0       -4.171283   -3.311655    0.594877
     42          6           0       -3.611254   -3.697954    1.860957
     43          8           0       -4.003058   -3.290233    2.887240
     44          8           0       -2.776279   -4.814167    1.765124
     45          6           0       -2.381237   -5.239988    3.001278
     46          6           0        2.752655   -0.591423   -1.051438
     47          6           0        4.148556   -0.318638   -0.407643
     48          6           0        5.000725    0.483070   -0.930934
     49          6           0        4.971403    1.113677   -2.198861
     50          6           0        6.301325    0.568833   -0.112054
     51          6           0        7.540884   -0.109538   -0.815600
     52          6           0        8.940911    0.011164   -0.021953
     53          6           0       10.138622   -0.467022   -0.747404
     54          6           0       10.103181   -1.884621   -1.234590
     55          6           0       11.405472   -0.153772    0.062412
     56          6           0       12.743199   -0.360010   -0.646642
     57          6           0       13.959192    0.037502    0.117919
     58          6           0       15.317579   -0.183300   -0.526382
     59          6           0       15.685489   -1.632980   -0.847501
     60          6           0       16.377492    0.484350    0.427490
     61          6           0       17.822807    0.500345   -0.258728
     62          6           0       18.866389    1.091333    0.717965
     63          6           0       20.277086    1.164949    0.011553
     64          6           0       20.434195    1.895208   -1.284213
     65          6           0       21.376214    1.725630    0.991261
     66          1           0       -4.185058    3.639026    1.469882
     67          1           0      -10.285070    4.089184   -0.441222
     68          1           0      -10.245490   -2.508475   -1.262954
     69          1           0       -2.638556   -1.079607    2.201796
     70          1           0       -2.258805    1.627408    1.278322
     71          1           0       -2.342113    0.881169    3.796249
     72          1           0       -3.412060    2.068579    3.740614
     73          1           0       -4.239628    0.455085    3.528030
     74          1           0       -2.033944   -1.388579   -0.278932
     75          1           0       -2.043680    0.151493   -0.598033
     76          1           0        0.022772    0.423537    1.021409
     77          1           0        0.014732   -1.123487    1.515165
     78          1           0       -5.506374    6.719739    0.477953
     79          1           0       -5.521528    6.248539    2.183732
     80          1           0       -4.399851    5.578799    0.883440
     81          1           0       -8.991399    6.091403   -0.870609
     82          1           0       -9.034892    8.078273    0.377644
     83          1           0       -7.710320    7.116106    1.756797
     84          1           0      -12.309499    3.091810   -2.355077
     85          1           0      -13.206202    2.092066   -1.506653
     86          1           0      -12.532278    3.129233   -0.632216
     87          1           0      -12.585554   -1.567984   -1.205740
     88          1           0      -13.231557   -0.060129   -1.803179
     89          1           0      -13.116088   -1.968318   -3.387438
     90          1           0      -12.435742   -0.359674   -3.927597
     91          1           0      -11.210704   -1.448276   -3.620389
     92          1           0       -8.760347   -4.706023   -2.220982
     93          1           0       -8.044793   -5.853642   -0.941940
     94          1           0       -9.453281   -4.859274   -0.368300
     95          1           0       -3.309220   -3.269316   -0.211183
     96          1           0       -1.688432   -4.512560    3.689860
     97          1           0       -3.339976   -5.680062    3.467327
     98          1           0       -1.730950   -6.104463    2.761781
     99          1           0        2.692682   -1.577988   -1.382932
    100          1           0        2.529604   -0.164895   -2.080017
    101          1           0        4.288727   -0.895159    0.601124
    102          1           0        3.977027    0.867714   -2.711549
    103          1           0        5.117410    2.209285   -2.028266
    104          1           0        5.661168    0.818912   -2.848579
    105          1           0        6.609910    1.759077   -0.003518
    106          1           0        6.212355    0.233092    0.904675
    107          1           0        7.543848   -1.209148   -1.150477
    108          1           0        7.459124    0.531280   -1.658124
    109          1           0        9.001921    0.980604    0.460694
    110          1           0        8.788933   -0.397457    1.233819
    111          1           0       10.121889    0.198351   -1.716577
    112          1           0        9.355849   -2.093402   -1.870581
    113          1           0       11.035760   -2.215793   -1.614706
    114          1           0        9.920845   -2.486719   -0.369218
    115          1           0       11.582505    0.843292    0.557573
    116          1           0       11.481198   -0.626828    1.091386
    117          1           0       12.981812   -1.456817   -0.881907
    118          1           0       12.920515    0.154049   -1.662317
    119          1           0       13.736596    1.018034    0.606882
    120          1           0       14.266799   -0.690513    1.073290
    121          1           0       15.300953    0.461353   -1.399044
    122          1           0       15.399409   -2.140673    0.124343
    123          1           0       15.216627   -2.083540   -1.682425
    124          1           0       16.922954   -1.738518   -1.134750
    125          1           0       16.171515    1.451951    0.749202
    126          1           0       16.401488   -0.141882    1.294604
    127          1           0       18.267680   -0.393153   -0.416908
    128          1           0       17.796377    0.874974   -1.276547
    129          1           0       18.515420    2.136778    0.930128
    130          1           0       18.950959    0.629443    1.796875
    131          1           0       20.384432    0.102763   -0.063217
    132          1           0       20.236155    2.991812   -1.150485
    133          1           0       21.443807    2.069866   -1.471183
    134          1           0       19.884292    1.686766   -2.191399
    135          1           0       21.586161    1.099494    2.014173
    136          1           0       22.417490    2.019994    0.497347
    137          1           0       20.996606    2.639058    1.578199
 ---------------------------------------------------------------------

 SCF Done:  E(RCAM-B3LYP) =  -2933.47318438     A.U. after   15 cycles

 Excitation energies and oscillator strengths:

 Excited State   1:      Singlet-A      2.0315 eV  610.32 nm  f=0.2620  <S**2>=0.000
     240 -> 243        0.24012
     241 -> 242        0.66325
 This state for optimization and/or second-order correction.
 Total Energy, E(TD-HF/TD-DFT) =  -2933.39852927
 Copying the excited state density for this state as the 1-particle RhoCI density.

 The electronic state is 1-A.
 Alpha  occ. eigenvalues --  -46.80924 -19.24430 -19.20608 -19.16438 -19.15844
 Alpha  occ. eigenvalues --  -19.15774 -14.37780 -14.35704 -14.35570 -14.35200
 Alpha  occ. eigenvalues --  -10.34075 -10.33085 -10.30405 -10.27638 -10.26579
 Alpha  occ. eigenvalues --  -10.26008 -10.25964 -10.25945 -10.25605 -10.25256
 Alpha  occ. eigenvalues --  -10.25037 -10.25026 -10.24663 -10.24022 -10.24018
 Alpha  occ. eigenvalues --  -10.23900 -10.23673 -10.23554 -10.23469 -10.23151
 Alpha  occ. eigenvalues --  -10.23093 -10.23057 -10.23018 -10.23007 -10.22978
 Alpha  occ. eigenvalues --  -10.22831 -10.22589 -10.22544 -10.22457 -10.22324
 Alpha  occ. eigenvalues --  -10.22315 -10.22196 -10.22056 -10.22051 -10.22046
 Alpha  occ. eigenvalues --  -10.22021 -10.21893 -10.21865 -10.21724 -10.21646
 Alpha  occ. eigenvalues --  -10.21618 -10.21613 -10.21560 -10.21514 -10.21505
 Alpha  occ. eigenvalues --  -10.21501 -10.21442 -10.21393 -10.21103 -10.20971
 Alpha  occ. eigenvalues --  -10.20233 -10.20120 -10.19817 -10.19646 -10.18753
 Alpha  occ. eigenvalues --   -3.09315  -1.84279  -1.83748  -1.83734  -1.16620
 Alpha  occ. eigenvalues --   -1.13626  -1.05764  -1.05007  -1.03435  -1.01432
 Alpha  occ. eigenvalues --   -0.99724  -0.97759  -0.96199  -0.87974  -0.87461
 Alpha  occ. eigenvalues --   -0.85841  -0.84642  -0.84526  -0.84216  -0.83974
 Alpha  occ. eigenvalues --   -0.83569  -0.83154  -0.82538  -0.81818  -0.81222
 Alpha  occ. eigenvalues --   -0.79751  -0.79513  -0.78855  -0.78200  -0.77926
 Alpha  occ. eigenvalues --   -0.77118  -0.76321  -0.76106  -0.75987  -0.73899
 Alpha  occ. eigenvalues --   -0.73251  -0.72602  -0.72545  -0.71465  -0.70795
 Alpha  occ. eigenvalues --   -0.70744  -0.70368  -0.69752  -0.68999  -0.68314
 Alpha  occ. eigenvalues --   -0.67403  -0.67104  -0.65198  -0.64489  -0.63809
 Alpha  occ. eigenvalues --   -0.62653  -0.62482  -0.61545  -0.61104  -0.60625
 Alpha  occ. eigenvalues --   -0.60065  -0.59850  -0.59211  -0.59087  -0.57673
 Alpha  occ. eigenvalues --   -0.57037  -0.56434  -0.56009  -0.55675  -0.55417
 Alpha  occ. eigenvalues --   -0.55023  -0.54364  -0.53484  -0.53250  -0.53069
 Alpha  occ. eigenvalues --   -0.52358  -0.51772  -0.51639  -0.51536  -0.51458
 Alpha  occ. eigenvalues --   -0.50948  -0.50427  -0.49945  -0.49686  -0.49591
 Alpha  occ. eigenvalues --   -0.49411  -0.49232  -0.48489  -0.48449  -0.48120
 Alpha  occ. eigenvalues --   -0.47945  -0.47894  -0.47552  -0.47215  -0.47040
 Alpha  occ. eigenvalues --   -0.46816  -0.46337  -0.46199  -0.46128  -0.45727
 Alpha  occ. eigenvalues --   -0.45468  -0.45380  -0.45248  -0.45018  -0.44801
 Alpha  occ. eigenvalues --   -0.44514  -0.44497  -0.44226  -0.43948  -0.43703
 Alpha  occ. eigenvalues --   -0.43520  -0.43173  -0.42945  -0.42811  -0.42745
 Alpha  occ. eigenvalues --   -0.42560  -0.42087  -0.41710  -0.41648  -0.41398
 Alpha  occ. eigenvalues --   -0.41264  -0.41159  -0.41091  -0.40821  -0.40683
 Alpha  occ. eigenvalues --   -0.40502  -0.40330  -0.40256  -0.40027  -0.39856
 Alpha  occ. eigenvalues --   -0.39788  -0.39271  -0.39202  -0.39051  -0.38852
 Alpha  occ. eigenvalues --   -0.38819  -0.38513  -0.38286  -0.38041  -0.37819
 Alpha  occ. eigenvalues --   -0.37684  -0.37490  -0.37342  -0.36937  -0.36907
 Alpha  occ. eigenvalues --   -0.36743  -0.36633  -0.36486  -0.36336  -0.36060
 Alpha  occ. eigenvalues --   -0.35983  -0.35847  -0.35818  -0.35065  -0.35021
 Alpha  occ. eigenvalues --   -0.34341  -0.34218  -0.34092  -0.33637  -0.33319
 Alpha  occ. eigenvalues --   -0.33251  -0.32533  -0.32305  -0.32133  -0.31800
 Alpha  occ. eigenvalues --   -0.31546  -0.31537  -0.31128  -0.30330  -0.30312
 Alpha  occ. eigenvalues --   -0.29819  -0.29740  -0.29436  -0.28826  -0.27967
 Alpha  occ. eigenvalues --   -0.27426  -0.26594  -0.25492  -0.25161  -0.21915
 Alpha  occ. eigenvalues --   -0.20083
 Alpha virt. eigenvalues --   -0.07247  -0.04022  -0.00501   0.02393   0.03813
 Alpha virt. eigenvalues --    0.04369   0.04738   0.05085   0.05203   0.05466
 Alpha virt. eigenvalues --    0.06201   0.08448   0.08948   0.09250   0.09866

 Mulliken charges:
               1
     1  Mg   0.810893
     2  C    0.124977
     3  C   -0.141721
     4  C   -0.173517
     5  C   -0.165130
     6  N   -0.638405
     7  C    0.274626
     8  C   -0.159759
     9  C   -0.163504
    10  C    0.367664
    11  C   -0.304897
    12  C   -0.149870
    13  C   -0.287324
    14  C    0.631940
    15  O   -0.516091
    16  O   -0.421394
    17  N   -0.706872
    18  C    0.311826
    19  C   -0.002857
    20  C    0.003904
    21  C    0.327457
    22  C   -0.394234
    23  C   -0.079258
    24  C   -0.249369
    25  N   -0.705251
    26  C    0.311337
    27  C    0.024867
    28  C    0.035679
    29  C    0.298218
    30  C   -0.388150
    31  C   -0.251191
    32  C   -0.309482
    33  N   -0.730481
    34  C    0.254604
    35  C    0.018077
    36  C    0.029202
    37  C    0.278107
    38  C   -0.370483
    39  C    0.370892
    40  O   -0.468301
    41  C   -0.341765
    42  C    0.631788
    43  O   -0.440718
    44  O   -0.442222
    45  C   -0.073320
    46  C   -0.039720
    47  C   -0.139927
    48  C    0.175690
    49  C   -0.365912
    50  C   -0.244566
    51  C   -0.169970
    52  C   -0.156805
    53  C   -0.034579
    54  C   -0.314802
    55  C   -0.182642
    56  C   -0.162059
    57  C   -0.162315
    58  C   -0.075136
    59  C   -0.291469
    60  C   -0.167188
    61  C   -0.187276
    62  C   -0.189461
    63  C   -0.027704
    64  C   -0.323432
    65  C   -0.322311
    66  H    0.078489
    67  H    0.088432
    68  H    0.089622
    69  H    0.116597
    70  H    0.068835
    71  H    0.123746
    72  H    0.097561
    73  H    0.126916
    74  H    0.119459
    75  H    0.111541
    76  H    0.125882
    77  H    0.122535
    78  H    0.122411
    79  H    0.135682
    80  H    0.118635
    81  H    0.094158
    82  H    0.099389
    83  H    0.102282
    84  H    0.079921
    85  H    0.122523
    86  H    0.128749
    87  H    0.117742
    88  H    0.096619
    89  H    0.102094
    90  H    0.109637
    91  H    0.110421
    92  H    0.111190
    93  H    0.139574
    94  H    0.137218
    95  H    0.150682
    96  H    0.091096
    97  H    0.115160
    98  H    0.111569
    99  H    0.138378
   100  H    0.136770
   101  H    0.094465
   102  H    0.095665
   103  H    0.116322
   104  H    0.142952
   105  H    0.061991
   106  H    0.103298
   107  H    0.093192
   108  H    0.102532
   109  H    0.102299
   110  H    0.018008
   111  H    0.078150
   112  H    0.111196
   113  H    0.111569
   114  H    0.107558
   115  H    0.085312
   116  H    0.094203
   117  H    0.085696
   118  H    0.082535
   119  H    0.083431
   120  H    0.039364
   121  H    0.078499
   122  H    0.097411
   123  H    0.116989
   124  H    0.076291
   125  H    0.101691
   126  H    0.091637
   127  H    0.103412
   128  H    0.096061
   129  H    0.077076
   130  H    0.083590
   131  H    0.099022
   132  H    0.093680
   133  H    0.113261
   134  H    0.105711
   135  H    0.076512
   136  H    0.090336
   137  H    0.098663
 Sum of Mulliken charges =  -0.00000

 Dipole moment (field-independent basis, Debye):
    X=              1.2318    Y=              4.8938    Z=             -0.4489  Tot=              5.0664
 Quadrupole moment (field-independent basis, Debye-Ang):
   XX=           -342.7125   YY=           -404.4724   ZZ=           -396.0146
   XY=            -16.1118   XZ=              2.9928   YZ=              1.5077

 Normal termination of Gaussian 16 at Tue Sep 10 00:29:49 2019.
