 Gaussian 09, Revision D.01,
 Gaussian 09:  ES64L-G09RevD.01 24-Apr-2013

 -------------------------------------
 # td=(NStates=1) CAM-B3LYP/6-31G(d,p)
 -------------------------------------

 --
 TD
 --
 Symbolic Z-matrix:
 Charge =  0 Multiplicity = 1

                         Standard orientation:
 ---------------------------------------------------------------------
 Center     Atomic      Atomic             Coordinates (Angstroms)
 Number     Number       Type             X           Y           Z
 ---------------------------------------------------------------------
      1         12           0       -7.085674    0.628696   -0.013101
      2          6           0       -4.855099   -1.902009    0.573140
      3          6           0       -4.779142    2.849212    1.222661
      4          6           0       -9.358669    3.039519   -0.456809
      5          6           0       -9.538705   -1.745673   -0.888892
      6          7           0       -5.087730    0.444356    0.778241
      7          6           0       -4.363452   -0.635308    0.825575
      8          6           0       -2.912024   -0.326374    1.198585
      9          6           0       -3.032633    1.125374    1.742991
     10          6           0       -4.416703    1.576277    1.123579
     11          6           0       -2.895318    1.403941    3.271049
     12          6           0       -1.874422   -0.640636    0.083202
     13          6           0       -0.518093   -0.411893    0.584547
     14          6           0        0.505793   -0.596128   -0.652206
     15          8           0        0.223318   -0.979767   -1.763364
     16          8           0        1.744983   -0.506622   -0.153877
     17          7           0       -7.099006    2.643011    0.328706
     18          6           0       -6.039080    3.412240    0.773758
     19          6           0       -6.382043    4.740235    0.782305
     20          6           0       -7.700361    4.854119    0.249616
     21          6           0       -8.102254    3.446238   -0.027661
     22          6           0       -5.469531    5.917873    1.176277
     23          6           0       -8.525906    5.971689    0.065071
     24          6           0       -8.448575    7.183267    0.697534
     25          7           0       -9.022756    0.645469   -0.635197
     26          6           0       -9.828113    1.749430   -0.700901
     27          6           0      -11.247900    1.465405   -1.140351
     28          6           0      -11.248152    0.098411   -1.164405
     29          6           0       -9.906028   -0.401667   -0.846432
     30          6           0      -12.246175    2.500115   -1.392589
     31          6           0      -12.344902   -0.809972   -1.600675
     32          6           0      -12.472609   -1.077794   -3.124475
     33          7           0       -7.144018   -1.383968   -0.171159
     34          6           0       -8.157578   -2.228333   -0.512987
     35          6           0       -7.789823   -3.629359   -0.593209
     36          6           0       -6.515831   -3.504638   -0.130713
     37          6           0       -6.118357   -2.182933    0.034238
     38          6           0       -8.526595   -4.902956   -0.853913
     39          6           0       -5.292014   -4.310892    0.143282
     40          8           0       -5.124720   -5.532507    0.198255
     41          6           0       -4.164254   -3.321525    0.601909
     42          6           0       -3.526000   -3.687767    1.876869
     43          8           0       -3.801295   -3.113114    2.928377
     44          8           0       -2.742976   -4.759085    1.759063
     45          6           0       -2.278066   -5.307939    2.962359
     46          6           0        2.780237   -0.750761   -1.106047
     47          6           0        4.058367   -0.596502   -0.527989
     48          6           0        5.091396    0.228221   -0.952345
     49          6           0        4.951525    1.106468   -2.023576
     50          6           0        6.379088    0.406933   -0.212982
     51          6           0        7.624496   -0.194975   -0.913440
     52          6           0        8.874920   -0.088879   -0.115948
     53          6           0       10.204953   -0.622502   -0.859950
     54          6           0       10.089639   -2.101414   -1.255131
     55          6           0       11.417420   -0.282496   -0.049819
     56          6           0       12.726871   -0.425531   -0.764647
     57          6           0       13.981275   -0.159915    0.055088
     58          6           0       15.365394   -0.228746   -0.599861
     59          6           0       15.699565   -1.666102   -0.843350
     60          6           0       16.422409    0.344816    0.350733
     61          6           0       17.860280    0.578035   -0.186070
     62          6           0       18.680038    1.421838    0.664051
     63          6           0       20.220470    1.409010    0.266273
     64          6           0       20.373911    2.212715   -1.091397
     65          6           0       21.069029    1.958886    1.371847
     66          1           0       -4.160664    3.585584    1.773917
     67          1           0      -10.296042    3.728604   -0.638602
     68          1           0      -10.228284   -2.464718   -1.228467
     69          1           0       -2.646423   -0.832554    2.103132
     70          1           0       -2.343898    1.766219    1.143975
     71          1           0       -1.694612    1.317135    3.533978
     72          1           0       -3.247032    2.338263    3.608785
     73          1           0       -3.548778    0.783459    3.811410
     74          1           0       -2.082523   -1.431352   -0.490581
     75          1           0       -1.903914    0.125778   -0.768949
     76          1           0       -0.376129    0.566693    0.918097
     77          1           0       -0.073039   -1.079246    1.458154
     78          1           0       -5.915176    6.787950    0.432905
     79          1           0       -5.375865    6.426258    2.102046
     80          1           0       -4.502991    5.369974    1.064515
     81          1           0       -9.454176    5.993479   -0.456897
     82          1           0       -9.177729    8.025855    0.221444
     83          1           0       -7.798114    7.288888    1.482107
     84          1           0      -11.818622    3.481139   -1.922261
     85          1           0      -13.193709    2.064304   -2.023933
     86          1           0      -12.663154    2.963313   -0.434796
     87          1           0      -12.337812   -1.713252   -0.969556
     88          1           0      -13.353063   -0.362684   -1.443703
     89          1           0      -13.365752   -1.591191   -3.415311
     90          1           0      -12.553169   -0.199534   -3.542726
     91          1           0      -11.626839   -1.610379   -3.318079
     92          1           0       -8.771712   -5.251808   -1.958960
     93          1           0       -8.033111   -5.741574   -0.284158
     94          1           0       -9.635941   -4.791665   -0.452477
     95          1           0       -3.430510   -3.596459   -0.251557
     96          1           0       -1.608068   -4.689523    3.690078
     97          1           0       -2.955125   -5.934376    3.571344
     98          1           0       -1.525796   -6.057317    2.735999
     99          1           0        2.684748   -1.730924   -1.795247
    100          1           0        2.707554    0.160505   -1.926357
    101          1           0        4.404806   -1.487868    0.209613
    102          1           0        3.804986    1.210155   -2.432467
    103          1           0        5.266897    2.105533   -1.675913
    104          1           0        5.513534    0.761718   -3.068227
    105          1           0        6.592276    1.500122    0.004795
    106          1           0        6.371000    0.159579    0.734285
    107          1           0        7.456969   -1.201069   -1.290548
    108          1           0        7.722065    0.386444   -1.796690
    109          1           0        9.227519    0.953035    0.293127
    110          1           0        8.585232   -0.723479    0.708056
    111          1           0       10.371241    0.030894   -1.745654
    112          1           0        9.546780   -2.303339   -2.159079
    113          1           0       11.155102   -2.361009   -1.477050
    114          1           0        9.653580   -2.785456   -0.335486
    115          1           0       11.369622    0.668848    0.329270
    116          1           0       11.655625   -0.819296    0.958780
    117          1           0       12.850904   -1.539680   -1.055482
    118          1           0       12.928420    0.126035   -1.645892
    119          1           0       13.763340    0.821050    0.375855
    120          1           0       14.000526   -0.749212    1.163738
    121          1           0       15.272380    0.292151   -1.556954
    122          1           0       15.918948   -2.195401    0.180215
    123          1           0       14.921713   -2.207564   -1.429544
    124          1           0       16.583571   -1.880821   -1.365664
    125          1           0       16.150837    1.445420    1.037171
    126          1           0       16.425855   -0.175859    1.322589
    127          1           0       18.290463   -0.357571   -0.637789
    128          1           0       17.707100    1.147802   -1.245214
    129          1           0       18.459874    2.454856    0.513476
    130          1           0       18.718299    1.020529    1.620079
    131          1           0       20.380125    0.323925    0.093508
    132          1           0       20.130785    3.295230   -0.971933
    133          1           0       21.349009    2.179974   -1.347969
    134          1           0       19.712457    1.696189   -1.942905
    135          1           0       21.166940    1.234780    2.266711
    136          1           0       22.117713    1.792144    1.212485
    137          1           0       20.851116    3.076800    1.486293
 ---------------------------------------------------------------------

 SCF Done:  E(RCAM-B3LYP) =  -2932.67551891     A.U. after   17 cycles

 Excitation energies and oscillator strengths:

 Excited State   1:      Singlet-A      1.8985 eV  653.07 nm  f=0.4147  <S**2>=0.000
     240 -> 242       -0.10359
     240 -> 243        0.19618
     241 -> 242        0.66610
 This state for optimization and/or second-order correction.
 Total Energy, E(TD-HF/TD-KS) =  -2932.60575101
 Copying the excited state density for this state as the 1-particle RhoCI density.

 The electronic state is 1-A.
 Alpha  occ. eigenvalues --  -46.84610 -19.27306 -19.26813 -19.21388 -19.20075
 Alpha  occ. eigenvalues --  -19.20023 -14.41447 -14.40072 -14.39400 -14.39346
 Alpha  occ. eigenvalues --  -10.39241 -10.38803 -10.35067 -10.32808 -10.31266
 Alpha  occ. eigenvalues --  -10.30248 -10.30151 -10.29861 -10.29512 -10.29440
 Alpha  occ. eigenvalues --  -10.29360 -10.29354 -10.29288 -10.28661 -10.28262
 Alpha  occ. eigenvalues --  -10.28111 -10.27957 -10.27710 -10.27689 -10.27643
 Alpha  occ. eigenvalues --  -10.27577 -10.27446 -10.27355 -10.27354 -10.27043
 Alpha  occ. eigenvalues --  -10.26933 -10.26862 -10.26844 -10.26783 -10.26748
 Alpha  occ. eigenvalues --  -10.26706 -10.26689 -10.26600 -10.26556 -10.26389
 Alpha  occ. eigenvalues --  -10.26369 -10.26343 -10.26296 -10.26154 -10.25917
 Alpha  occ. eigenvalues --  -10.25872 -10.25776 -10.25756 -10.25724 -10.25381
 Alpha  occ. eigenvalues --  -10.25260 -10.25138 -10.24942 -10.24919 -10.24892
 Alpha  occ. eigenvalues --  -10.24753 -10.24721 -10.24578 -10.23383 -10.23263
 Alpha  occ. eigenvalues --   -3.13669  -1.88376  -1.87909  -1.87848  -1.19019
 Alpha  occ. eigenvalues --   -1.18923  -1.09879  -1.09816  -1.08526  -1.05929
 Alpha  occ. eigenvalues --   -1.04747  -1.03961  -1.02727  -0.92389  -0.91770
 Alpha  occ. eigenvalues --   -0.91144  -0.90017  -0.89818  -0.89544  -0.88962
 Alpha  occ. eigenvalues --   -0.88764  -0.88562  -0.87894  -0.87375  -0.86466
 Alpha  occ. eigenvalues --   -0.85377  -0.84336  -0.83907  -0.83375  -0.82859
 Alpha  occ. eigenvalues --   -0.82336  -0.81353  -0.80838  -0.80184  -0.78099
 Alpha  occ. eigenvalues --   -0.77756  -0.76929  -0.76452  -0.75894  -0.75658
 Alpha  occ. eigenvalues --   -0.75401  -0.75328  -0.74450  -0.73369  -0.72900
 Alpha  occ. eigenvalues --   -0.71449  -0.70470  -0.69991  -0.69049  -0.68183
 Alpha  occ. eigenvalues --   -0.67138  -0.66923  -0.65175  -0.64853  -0.64374
 Alpha  occ. eigenvalues --   -0.64197  -0.63715  -0.63316  -0.62767  -0.62567
 Alpha  occ. eigenvalues --   -0.62145  -0.60740  -0.60101  -0.59950  -0.59441
 Alpha  occ. eigenvalues --   -0.58944  -0.58453  -0.57830  -0.56882  -0.56709
 Alpha  occ. eigenvalues --   -0.56413  -0.55473  -0.55321  -0.55154  -0.55003
 Alpha  occ. eigenvalues --   -0.54772  -0.54355  -0.54226  -0.54207  -0.53487
 Alpha  occ. eigenvalues --   -0.53129  -0.52730  -0.52327  -0.52022  -0.51767
 Alpha  occ. eigenvalues --   -0.51645  -0.51278  -0.51053  -0.50860  -0.50483
 Alpha  occ. eigenvalues --   -0.50394  -0.50105  -0.49611  -0.49480  -0.49321
 Alpha  occ. eigenvalues --   -0.49296  -0.48959  -0.48744  -0.48429  -0.48264
 Alpha  occ. eigenvalues --   -0.47963  -0.47793  -0.47640  -0.47357  -0.47146
 Alpha  occ. eigenvalues --   -0.46920  -0.46757  -0.46674  -0.46375  -0.46060
 Alpha  occ. eigenvalues --   -0.45797  -0.45612  -0.45443  -0.45367  -0.44996
 Alpha  occ. eigenvalues --   -0.44843  -0.44525  -0.44410  -0.44172  -0.43936
 Alpha  occ. eigenvalues --   -0.43887  -0.43636  -0.43438  -0.43294  -0.43204
 Alpha  occ. eigenvalues --   -0.43007  -0.42886  -0.42759  -0.42308  -0.41943
 Alpha  occ. eigenvalues --   -0.41806  -0.41718  -0.41662  -0.41537  -0.41344
 Alpha  occ. eigenvalues --   -0.41206  -0.41198  -0.40914  -0.40391  -0.40152
 Alpha  occ. eigenvalues --   -0.40097  -0.40030  -0.39656  -0.39425  -0.39406
 Alpha  occ. eigenvalues --   -0.39137  -0.38465  -0.38293  -0.38195  -0.37587
 Alpha  occ. eigenvalues --   -0.37525  -0.37505  -0.37059  -0.36912  -0.36826
 Alpha  occ. eigenvalues --   -0.36687  -0.36098  -0.35916  -0.35612  -0.35141
 Alpha  occ. eigenvalues --   -0.34859  -0.34458  -0.33952  -0.33758  -0.33353
 Alpha  occ. eigenvalues --   -0.33104  -0.32950  -0.31864  -0.31525  -0.30176
 Alpha  occ. eigenvalues --   -0.29574  -0.28977  -0.28786  -0.26539  -0.23252
 Alpha  occ. eigenvalues --   -0.20842
 Alpha virt. eigenvalues --   -0.07470  -0.02589   0.02037   0.03807   0.04020
 Alpha virt. eigenvalues --    0.05308   0.05795   0.06412   0.07104   0.07415
 Alpha virt. eigenvalues --    0.08905   0.10231   0.10715   0.11478   0.12036

 Mulliken charges:
               1
     1  Mg   0.826256
     2  C    0.084555
     3  C   -0.189946
     4  C   -0.173230
     5  C   -0.179572
     6  N   -0.627186
     7  C    0.305399
     8  C   -0.160959
     9  C   -0.152645
    10  C    0.314521
    11  C   -0.305686
    12  C   -0.162215
    13  C   -0.257046
    14  C    0.593078
    15  O   -0.463845
    16  O   -0.454735
    17  N   -0.725317
    18  C    0.302196
    19  C   -0.000687
    20  C    0.029525
    21  C    0.321636
    22  C   -0.356445
    23  C   -0.103512
    24  C   -0.252741
    25  N   -0.683958
    26  C    0.274196
    27  C    0.107772
    28  C    0.009396
    29  C    0.315725
    30  C   -0.399740
    31  C   -0.277223
    32  C   -0.296618
    33  N   -0.703329
    34  C    0.218227
    35  C    0.076951
    36  C   -0.008374
    37  C    0.271670
    38  C   -0.388658
    39  C    0.359953
    40  O   -0.472446
    41  C   -0.320988
    42  C    0.654732
    43  O   -0.488024
    44  O   -0.422809
    45  C   -0.095275
    46  C    0.017513
    47  C   -0.127455
    48  C    0.148803
    49  C   -0.360866
    50  C   -0.226874
    51  C   -0.181704
    52  C   -0.176336
    53  C   -0.049685
    54  C   -0.305202
    55  C   -0.172415
    56  C   -0.186709
    57  C   -0.166129
    58  C   -0.060078
    59  C   -0.299388
    60  C   -0.155792
    61  C   -0.170626
    62  C   -0.147672
    63  C   -0.077255
    64  C   -0.310558
    65  C   -0.308079
    66  H    0.096331
    67  H    0.081773
    68  H    0.092684
    69  H    0.134052
    70  H    0.098307
    71  H    0.087385
    72  H    0.118925
    73  H    0.134789
    74  H    0.133001
    75  H    0.103501
    76  H    0.140130
    77  H    0.120911
    78  H    0.107499
    79  H    0.129010
    80  H    0.103051
    81  H    0.093717
    82  H    0.092619
    83  H    0.107000
    84  H    0.117481
    85  H    0.105435
    86  H    0.132962
    87  H    0.103410
    88  H    0.095783
    89  H    0.105222
    90  H    0.119745
    91  H    0.116241
    92  H    0.122050
    93  H    0.156016
    94  H    0.105011
    95  H    0.155116
    96  H    0.112411
    97  H    0.130835
    98  H    0.118567
    99  H    0.127599
   100  H    0.082113
   101  H    0.075977
   102  H    0.092663
   103  H    0.118627
   104  H    0.109063
   105  H    0.091576
   106  H    0.107103
   107  H    0.106156
   108  H    0.097224
   109  H    0.074229
   110  H    0.096880
   111  H    0.087634
   112  H    0.110966
   113  H    0.100168
   114  H    0.083451
   115  H    0.098192
   116  H    0.080826
   117  H    0.084088
   118  H    0.093922
   119  H    0.095716
   120  H    0.047454
   121  H    0.088790
   122  H    0.088483
   123  H    0.098841
   124  H    0.106429
   125  H    0.030936
   126  H    0.098668
   127  H    0.090886
   128  H    0.063398
   129  H    0.102662
   130  H    0.097166
   131  H    0.080024
   132  H    0.094732
   133  H    0.113634
   134  H    0.089339
   135  H    0.091591
   136  H    0.104509
   137  H    0.101245
 Sum of Mulliken charges =   0.00000

 Dipole moment (field-independent basis, Debye):
    X=              1.5170    Y=              3.6940    Z=             -0.6155  Tot=              4.0405
 Quadrupole moment (field-independent basis, Debye-Ang):
   XX=           -305.8755   YY=           -397.7053   ZZ=           -397.8834
   XY=            -19.1596   XZ=             14.9257   YZ=              0.5991

 Normal termination of Gaussian 09 at Tue Jul  2 17:37:39 2019.
