 Gaussian 16, Revision A.03,
 Gaussian 16:  ES64L-G16RevA.03 25-Dec-2016

 ----------------------------------------------------------------------
 # td=(NStates=1) iop(3/107=0140000000,3/108=0140000000) CAM-B3LYP/6-31
 G(d,p)
 ----------------------------------------------------------------------

 --
 TD
 --
 Symbolic Z-matrix:
 Charge =  0 Multiplicity = 1

                         Standard orientation:
 ---------------------------------------------------------------------
 Center     Atomic      Atomic             Coordinates (Angstroms)
 Number     Number       Type             X           Y           Z
 ---------------------------------------------------------------------
      1         12           0       -7.197620    0.667033    0.023902
      2          6           0       -4.976161   -1.947726    0.584170
      3          6           0       -4.935600    2.833715    1.247723
      4          6           0       -9.425814    3.161573   -0.414723
      5          6           0       -9.585339   -1.634303   -0.902434
      6          7           0       -5.149029    0.412730    0.878237
      7          6           0       -4.420406   -0.699565    0.879352
      8          6           0       -2.975990   -0.361094    1.275339
      9          6           0       -3.065026    1.162668    1.812992
     10          6           0       -4.429486    1.518760    1.174760
     11          6           0       -2.919590    1.283658    3.280130
     12          6           0       -1.973998   -0.523396    0.149869
     13          6           0       -0.473256   -0.447586    0.555118
     14          6           0        0.398516   -0.777339   -0.493443
     15          8           0        0.103379   -1.054533   -1.658552
     16          8           0        1.662159   -0.632063   -0.199413
     17          7           0       -7.035871    2.603664    0.261760
     18          6           0       -6.046732    3.370096    0.697786
     19          6           0       -6.356491    4.770116    0.711473
     20          6           0       -7.657365    4.909373    0.273748
     21          6           0       -8.116151    3.523786   -0.051519
     22          6           0       -5.392425    5.835511    1.209861
     23          6           0       -8.362101    6.189911   -0.039161
     24          6           0       -8.177769    7.325365    0.607380
     25          7           0       -9.114142    0.699946   -0.519582
     26          6           0       -9.857123    1.877532   -0.727091
     27          6           0      -11.154345    1.538418   -1.128491
     28          6           0      -11.265064    0.088533   -1.232003
     29          6           0       -9.955708   -0.333489   -0.901442
     30          6           0      -12.241616    2.505543   -1.424796
     31          6           0      -12.402179   -0.717446   -1.725468
     32          6           0      -12.286163   -1.136792   -3.254371
     33          7           0       -7.292497   -1.404377   -0.148073
     34          6           0       -8.307004   -2.146655   -0.582844
     35          6           0       -7.878604   -3.619578   -0.559003
     36          6           0       -6.555838   -3.512432   -0.138853
     37          6           0       -6.360537   -2.074717    0.167598
     38          6           0       -8.754585   -4.778929   -0.938839
     39          6           0       -5.403592   -4.382625    0.181557
     40          8           0       -5.215677   -5.522906   -0.014446
     41          6           0       -4.205857   -3.220593    0.633188
     42          6           0       -3.530701   -3.659965    1.869355
     43          8           0       -3.705151   -3.110466    2.900179
     44          8           0       -2.789827   -4.754227    1.800736
     45          6           0       -2.174604   -5.265580    2.979418
     46          6           0        2.712230   -0.863512   -1.106319
     47          6           0        4.021543   -0.714038   -0.453209
     48          6           0        5.101695    0.098165   -0.899394
     49          6           0        5.092008    1.048505   -2.027172
     50          6           0        6.431962    0.074632   -0.056572
     51          6           0        7.680294   -0.465895   -0.787848
     52          6           0        8.965339   -0.310105   -0.027224
     53          6           0       10.221296   -0.753219   -0.883496
     54          6           0       10.286239   -2.209959   -1.170646
     55          6           0       11.494086   -0.214199   -0.055524
     56          6           0       12.818556   -0.375511   -0.805894
     57          6           0       14.051856   -0.125451    0.160234
     58          6           0       15.426809   -0.251147   -0.475197
     59          6           0       15.762309   -1.567982   -0.776032
     60          6           0       16.443563    0.555488    0.384595
     61          6           0       17.779723    0.608142   -0.292849
     62          6           0       18.838779    1.429240    0.581696
     63          6           0       20.234056    1.491774    0.162727
     64          6           0       20.465386    2.256409   -1.229412
     65          6           0       21.195643    2.101767    1.198975
     66          1           0       -4.233917    3.629036    1.455496
     67          1           0      -10.045021    4.049564   -0.484146
     68          1           0      -10.309832   -2.381628   -1.078235
     69          1           0       -2.757161   -0.997928    1.994077
     70          1           0       -2.431302    1.847003    1.261296
     71          1           0       -1.825544    1.197502    3.596573
     72          1           0       -3.108283    2.292044    3.587359
     73          1           0       -3.659554    0.668625    3.938115
     74          1           0       -2.216849   -1.353175   -0.523379
     75          1           0       -2.185479    0.364284   -0.570385
     76          1           0       -0.123754    0.642445    1.016743
     77          1           0       -0.266430   -1.053639    1.404137
     78          1           0       -5.216104    6.669815    0.534951
     79          1           0       -5.864540    6.348159    2.219067
     80          1           0       -4.342062    5.487339    1.314987
     81          1           0       -9.140384    6.236381   -0.685500
     82          1           0       -8.919308    8.223301    0.455965
     83          1           0       -7.427491    7.404810    1.293374
     84          1           0      -12.209247    3.234141   -2.205670
     85          1           0      -13.278386    1.987771   -1.589106
     86          1           0      -12.492903    3.227917   -0.533573
     87          1           0      -12.619357   -1.816553   -1.324566
     88          1           0      -13.406270   -0.168710   -1.634494
     89          1           0      -12.911764   -2.008630   -3.337995
     90          1           0      -12.527645   -0.526391   -3.965903
     91          1           0      -11.281211   -1.490880   -3.785422
     92          1           0       -8.903864   -4.740168   -2.037957
     93          1           0       -8.140267   -5.653477   -0.719612
     94          1           0       -9.765451   -4.855085   -0.487196
     95          1           0       -3.468104   -3.300608   -0.153925
     96          1           0       -1.706484   -4.438681    3.569503
     97          1           0       -2.920683   -5.702757    3.750208
     98          1           0       -1.762312   -6.220871    2.573821
     99          1           0        2.371325   -1.796884   -1.524415
    100          1           0        2.537047   -0.381667   -1.964990
    101          1           0        4.168198   -1.268761    0.576108
    102          1           0        4.216262    1.077882   -2.797391
    103          1           0        5.459363    2.053040   -1.572537
    104          1           0        5.889674    0.543839   -2.700028
    105          1           0        6.522520    1.178786    0.128295
    106          1           0        6.255270   -0.410560    0.963075
    107          1           0        7.465865   -1.523468   -1.043366
    108          1           0        7.669963    0.068266   -1.703216
    109          1           0        9.024742    0.678518    0.168917
    110          1           0        8.925421   -1.016593    0.775830
    111          1           0       10.124816   -0.045482   -1.683155
    112          1           0        9.535623   -2.520417   -1.870739
    113          1           0       11.347981   -2.318695   -1.575474
    114          1           0       10.361910   -2.845844   -0.364720
    115          1           0       11.343522    0.857285    0.197508
    116          1           0       11.591841   -0.811643    0.919735
    117          1           0       13.106972   -1.411930   -1.247382
    118          1           0       12.809634    0.394896   -1.730584
    119          1           0       13.914984    0.882110    0.768286
    120          1           0       14.102394   -0.891259    1.042661
    121          1           0       15.370292    0.213791   -1.544419
    122          1           0       16.191953   -2.088994    0.210759
    123          1           0       14.891260   -1.951498   -1.187597
    124          1           0       16.677494   -1.632925   -1.571465
    125          1           0       16.125300    1.552422    0.701448
    126          1           0       16.522995    0.029654    1.382405
    127          1           0       18.311335   -0.443098   -0.540635
    128          1           0       17.772091    1.027711   -1.335630
    129          1           0       18.400002    2.378903    0.632931
    130          1           0       18.838018    0.937833    1.665127
    131          1           0       20.640718    0.381227   -0.182502
    132          1           0       20.058075    3.159739   -1.225370
    133          1           0       21.640548    2.224358   -1.252606
    134          1           0       20.158757    1.729459   -2.162767
    135          1           0       21.217822    1.504454    2.047716
    136          1           0       22.310793    2.069761    0.914784
    137          1           0       20.875314    3.213092    1.308885
 ---------------------------------------------------------------------

 SCF Done:  E(RCAM-B3LYP) =  -2933.55640834     A.U. after   15 cycles

 Excitation energies and oscillator strengths:

 Excited State   1:      Singlet-A      2.1961 eV  564.56 nm  f=0.1540  <S**2>=0.000
     240 -> 243       -0.30334
     241 -> 242        0.63309
 This state for optimization and/or second-order correction.
 Total Energy, E(TD-HF/TD-DFT) =  -2933.47570293
 Copying the excited state density for this state as the 1-particle RhoCI density.

 The electronic state is 1-A.
 Alpha  occ. eigenvalues --  -46.79790 -19.21063 -19.20376 -19.17496 -19.14678
 Alpha  occ. eigenvalues --  -19.14565 -14.36875 -14.35259 -14.34946 -14.34339
 Alpha  occ. eigenvalues --  -10.32909 -10.32717 -10.31149 -10.27477 -10.25988
 Alpha  occ. eigenvalues --  -10.25448 -10.25446 -10.25291 -10.24649 -10.24466
 Alpha  occ. eigenvalues --  -10.24394 -10.24312 -10.24241 -10.24084 -10.23920
 Alpha  occ. eigenvalues --  -10.23848 -10.23625 -10.23440 -10.23347 -10.23329
 Alpha  occ. eigenvalues --  -10.23160 -10.23020 -10.22947 -10.22767 -10.22697
 Alpha  occ. eigenvalues --  -10.22571 -10.22519 -10.22512 -10.22453 -10.22338
 Alpha  occ. eigenvalues --  -10.22207 -10.22205 -10.22121 -10.22087 -10.22013
 Alpha  occ. eigenvalues --  -10.21955 -10.21906 -10.21896 -10.21882 -10.21725
 Alpha  occ. eigenvalues --  -10.21696 -10.21568 -10.21292 -10.21119 -10.21110
 Alpha  occ. eigenvalues --  -10.21061 -10.20876 -10.20834 -10.20802 -10.20765
 Alpha  occ. eigenvalues --  -10.20206 -10.20130 -10.19874 -10.19793 -10.19593
 Alpha  occ. eigenvalues --   -3.08498  -1.83422  -1.82987  -1.82899  -1.13882
 Alpha  occ. eigenvalues --   -1.13816  -1.09196  -1.04286  -1.03577  -1.02184
 Alpha  occ. eigenvalues --   -0.98992  -0.97604  -0.96406  -0.86379  -0.86230
 Alpha  occ. eigenvalues --   -0.85720  -0.84951  -0.84322  -0.83968  -0.83829
 Alpha  occ. eigenvalues --   -0.83359  -0.82532  -0.82421  -0.82113  -0.81703
 Alpha  occ. eigenvalues --   -0.79985  -0.79301  -0.78756  -0.78259  -0.77734
 Alpha  occ. eigenvalues --   -0.77220  -0.76527  -0.76006  -0.75622  -0.73980
 Alpha  occ. eigenvalues --   -0.73339  -0.72479  -0.71605  -0.71523  -0.70706
 Alpha  occ. eigenvalues --   -0.70606  -0.70571  -0.69735  -0.68602  -0.67727
 Alpha  occ. eigenvalues --   -0.67212  -0.65792  -0.65667  -0.64353  -0.63979
 Alpha  occ. eigenvalues --   -0.63012  -0.62114  -0.61545  -0.60342  -0.60122
 Alpha  occ. eigenvalues --   -0.60078  -0.59982  -0.58928  -0.58130  -0.57708
 Alpha  occ. eigenvalues --   -0.57104  -0.56699  -0.56527  -0.55856  -0.55669
 Alpha  occ. eigenvalues --   -0.54554  -0.54008  -0.53500  -0.53271  -0.52653
 Alpha  occ. eigenvalues --   -0.52143  -0.52009  -0.51583  -0.51347  -0.50553
 Alpha  occ. eigenvalues --   -0.50338  -0.50020  -0.49781  -0.49529  -0.49109
 Alpha  occ. eigenvalues --   -0.48845  -0.48718  -0.48346  -0.47929  -0.47745
 Alpha  occ. eigenvalues --   -0.47365  -0.47277  -0.47219  -0.46793  -0.46756
 Alpha  occ. eigenvalues --   -0.46554  -0.46365  -0.46089  -0.46044  -0.45921
 Alpha  occ. eigenvalues --   -0.45798  -0.45702  -0.45383  -0.45204  -0.45086
 Alpha  occ. eigenvalues --   -0.44583  -0.44276  -0.44049  -0.43762  -0.43639
 Alpha  occ. eigenvalues --   -0.43576  -0.43220  -0.43027  -0.42788  -0.42566
 Alpha  occ. eigenvalues --   -0.42506  -0.42204  -0.42128  -0.41898  -0.41717
 Alpha  occ. eigenvalues --   -0.41621  -0.41470  -0.41292  -0.41199  -0.40516
 Alpha  occ. eigenvalues --   -0.40416  -0.40135  -0.40059  -0.39901  -0.39857
 Alpha  occ. eigenvalues --   -0.39693  -0.39418  -0.39264  -0.39049  -0.38974
 Alpha  occ. eigenvalues --   -0.38902  -0.38679  -0.38476  -0.38116  -0.38007
 Alpha  occ. eigenvalues --   -0.37875  -0.37839  -0.37571  -0.37500  -0.37112
 Alpha  occ. eigenvalues --   -0.37001  -0.36557  -0.36402  -0.36312  -0.35999
 Alpha  occ. eigenvalues --   -0.35927  -0.35844  -0.35647  -0.35509  -0.34763
 Alpha  occ. eigenvalues --   -0.34374  -0.33846  -0.33740  -0.33542  -0.33507
 Alpha  occ. eigenvalues --   -0.32937  -0.32883  -0.32399  -0.32116  -0.31887
 Alpha  occ. eigenvalues --   -0.31774  -0.31714  -0.31046  -0.30121  -0.29790
 Alpha  occ. eigenvalues --   -0.29441  -0.29087  -0.28935  -0.28221  -0.27858
 Alpha  occ. eigenvalues --   -0.26245  -0.25643  -0.25550  -0.24469  -0.21058
 Alpha  occ. eigenvalues --   -0.20020
 Alpha virt. eigenvalues --   -0.06062  -0.03945   0.00656   0.02681   0.03082
 Alpha virt. eigenvalues --    0.04137   0.04320   0.04974   0.05699   0.05774
 Alpha virt. eigenvalues --    0.07209   0.09183   0.09664   0.09919   0.09944

 Mulliken charges:
               1
     1  Mg   0.831223
     2  C    0.069234
     3  C   -0.171279
     4  C   -0.162992
     5  C   -0.159045
     6  N   -0.601835
     7  C    0.310833
     8  C   -0.146145
     9  C   -0.115852
    10  C    0.276343
    11  C   -0.308224
    12  C   -0.174010
    13  C   -0.270152
    14  C    0.618338
    15  O   -0.515203
    16  O   -0.456199
    17  N   -0.721307
    18  C    0.343830
    19  C    0.044593
    20  C    0.000777
    21  C    0.238356
    22  C   -0.386099
    23  C   -0.048140
    24  C   -0.230510
    25  N   -0.735961
    26  C    0.327823
    27  C    0.014569
    28  C    0.091390
    29  C    0.310661
    30  C   -0.401537
    31  C   -0.269307
    32  C   -0.311571
    33  N   -0.661201
    34  C    0.213580
    35  C    0.024129
    36  C   -0.049549
    37  C    0.371099
    38  C   -0.389905
    39  C    0.366639
    40  O   -0.404101
    41  C   -0.359544
    42  C    0.603856
    43  O   -0.468507
    44  O   -0.438319
    45  C   -0.090111
    46  C    0.036789
    47  C   -0.137362
    48  C    0.101823
    49  C   -0.353812
    50  C   -0.220811
    51  C   -0.182487
    52  C   -0.152166
    53  C   -0.060704
    54  C   -0.315347
    55  C   -0.174634
    56  C   -0.173067
    57  C   -0.175335
    58  C   -0.035742
    59  C   -0.270852
    60  C   -0.162462
    61  C   -0.181700
    62  C   -0.145108
    63  C   -0.054356
    64  C   -0.310196
    65  C   -0.297744
    66  H    0.050145
    67  H    0.086300
    68  H    0.077432
    69  H    0.114106
    70  H    0.101068
    71  H    0.101164
    72  H    0.113917
    73  H    0.122532
    74  H    0.128664
    75  H    0.097375
    76  H    0.123201
    77  H    0.145587
    78  H    0.131333
    79  H    0.109826
    80  H    0.114743
    81  H    0.084288
    82  H    0.094797
    83  H    0.090092
    84  H    0.130042
    85  H    0.095590
    86  H    0.099628
    87  H    0.100371
    88  H    0.107400
    89  H    0.099535
    90  H    0.126211
    91  H    0.086565
    92  H    0.133558
    93  H    0.144837
    94  H    0.128450
    95  H    0.151740
    96  H    0.135043
    97  H    0.110279
    98  H    0.133343
    99  H    0.114248
   100  H    0.112055
   101  H    0.078296
   102  H    0.119298
   103  H    0.117502
   104  H    0.119691
   105  H    0.085880
   106  H    0.095007
   107  H    0.096055
   108  H    0.090789
   109  H    0.091067
   110  H    0.093593
   111  H    0.084849
   112  H    0.112189
   113  H    0.092910
   114  H    0.116056
   115  H    0.094104
   116  H    0.083001
   117  H    0.089820
   118  H    0.076978
   119  H    0.071203
   120  H    0.074219
   121  H    0.067748
   122  H    0.076701
   123  H    0.104307
   124  H    0.082413
   125  H    0.094738
   126  H    0.084170
   127  H    0.073175
   128  H    0.091192
   129  H    0.094217
   130  H    0.066082
   131  H    0.052051
   132  H    0.110250
   133  H    0.085211
   134  H    0.096859
   135  H    0.112873
   136  H    0.091495
   137  H    0.093148
 Sum of Mulliken charges =  -0.00000

 Dipole moment (field-independent basis, Debye):
    X=              1.6206    Y=              4.1202    Z=              0.1508  Tot=              4.4300
 Quadrupole moment (field-independent basis, Debye-Ang):
   XX=           -351.2976   YY=           -385.6617   ZZ=           -397.2997
   XY=            -11.9989   XZ=             15.6914   YZ=             -2.5171

 Normal termination of Gaussian 16 at Sun Sep 22 21:18:04 2019.
