 Gaussian 16, Revision A.03,
 Gaussian 16:  ES64L-G16RevA.03 25-Dec-2016

 ----------------------------------------------------------------------
 # td=(NStates=1) iop(3/107=0140000000,3/108=0140000000) CAM-B3LYP/6-31
 G(d,p)
 ----------------------------------------------------------------------

 --
 TD
 --
 Symbolic Z-matrix:
 Charge =  0 Multiplicity = 1

                         Standard orientation:
 ---------------------------------------------------------------------
 Center     Atomic      Atomic             Coordinates (Angstroms)
 Number     Number       Type             X           Y           Z
 ---------------------------------------------------------------------
      1         12           0       -7.069637    0.588483    0.126479
      2          6           0       -4.786155   -1.872001    0.628539
      3          6           0       -4.849781    2.810836    1.319014
      4          6           0       -9.465705    3.148375   -0.480369
      5          6           0       -9.565698   -1.734139   -0.849703
      6          7           0       -5.097764    0.443644    0.757400
      7          6           0       -4.359151   -0.670547    0.821052
      8          6           0       -2.884904   -0.413568    1.218001
      9          6           0       -3.042477    1.084211    1.772081
     10          6           0       -4.412825    1.544433    1.339991
     11          6           0       -2.990100    1.087474    3.291397
     12          6           0       -1.900146   -0.465543    0.092598
     13          6           0       -0.485081   -0.471566    0.510633
     14          6           0        0.506993   -0.632316   -0.561036
     15          8           0        0.284531   -0.903601   -1.721074
     16          8           0        1.895323   -0.597778   -0.084481
     17          7           0       -7.117055    2.699656    0.242800
     18          6           0       -6.044596    3.405023    0.706712
     19          6           0       -6.405925    4.772032    0.640210
     20          6           0       -7.687950    4.828092    0.257819
     21          6           0       -8.190446    3.544220   -0.031868
     22          6           0       -5.535787    5.921881    1.085264
     23          6           0       -8.594310    6.050989    0.084788
     24          6           0       -8.351032    7.238060    0.742791
     25          7           0       -9.012311    0.677035   -0.570586
     26          6           0       -9.886961    1.832440   -0.609690
     27          6           0      -11.195615    1.489398   -1.128892
     28          6           0      -11.246660    0.087497   -1.295672
     29          6           0       -9.899715   -0.363633   -0.822977
     30          6           0      -12.216176    2.449504   -1.351223
     31          6           0      -12.378638   -0.629035   -1.667110
     32          6           0      -12.303687   -1.336036   -3.068358
     33          7           0       -7.257809   -1.430892   -0.076237
     34          6           0       -8.273223   -2.297590   -0.455005
     35          6           0       -7.763166   -3.570804   -0.489408
     36          6           0       -6.449901   -3.534915   -0.034056
     37          6           0       -6.170916   -2.186803    0.156782
     38          6           0       -8.546721   -4.775262   -1.130910
     39          6           0       -5.322401   -4.335959    0.185273
     40          8           0       -5.064377   -5.527578    0.239702
     41          6           0       -4.163468   -3.259354    0.608258
     42          6           0       -3.624123   -3.734500    1.815545
     43          8           0       -3.866215   -3.242983    3.016528
     44          8           0       -2.698122   -4.783171    1.735424
     45          6           0       -2.166877   -5.319557    3.007884
     46          6           0        2.767985   -0.699822   -1.227399
     47          6           0        4.122274   -0.429282   -0.683982
     48          6           0        5.162937    0.329939   -1.169454
     49          6           0        5.102129    1.114441   -2.389509
     50          6           0        6.431975    0.355902   -0.337798
     51          6           0        7.602668   -0.314769   -1.068461
     52          6           0        8.970768   -0.113202   -0.285347
     53          6           0       10.293340   -0.552144   -0.982184
     54          6           0       10.110658   -1.996470   -1.486933
     55          6           0       11.392249   -0.331939   -0.000469
     56          6           0       12.666626   -0.387695   -0.731073
     57          6           0       13.873515   -0.084708    0.041756
     58          6           0       15.336112   -0.107168   -0.567935
     59          6           0       15.605828   -1.614984   -0.952239
     60          6           0       16.328754    0.330969    0.467229
     61          6           0       17.811695    0.552223   -0.076954
     62          6           0       18.754719    1.239724    0.849331
     63          6           0       20.156148    1.415921    0.435196
     64          6           0       20.409222    2.199177   -0.962944
     65          6           0       21.094564    1.915462    1.518654
     66          1           0       -4.147183    3.508125    1.879483
     67          1           0      -10.146823    3.937170   -0.931422
     68          1           0      -10.332286   -2.419304   -0.897946
     69          1           0       -2.742203   -1.286544    1.983518
     70          1           0       -2.196009    1.473979    1.378400
     71          1           0       -1.915374    1.025822    3.667568
     72          1           0       -3.449326    2.126947    3.715617
     73          1           0       -3.673819    0.251453    3.577363
     74          1           0       -2.012767   -1.538818   -0.481404
     75          1           0       -2.113384    0.311632   -0.679775
     76          1           0       -0.372882    0.478657    0.951370
     77          1           0       -0.112507   -1.199053    1.331522
     78          1           0       -5.531114    6.858027    0.474570
     79          1           0       -6.022630    6.307075    2.062756
     80          1           0       -4.408406    5.792410    1.367313
     81          1           0       -9.525506    6.094834   -0.543205
     82          1           0       -8.964523    8.278907    0.511447
     83          1           0       -7.554800    7.346925    1.621245
     84          1           0      -11.931703    3.330918   -1.937455
     85          1           0      -13.179534    2.117754   -1.640394
     86          1           0      -12.299413    3.018559   -0.421005
     87          1           0      -12.539948   -1.440938   -0.878754
     88          1           0      -13.246801    0.043816   -1.693882
     89          1           0      -13.108867   -1.918713   -3.285463
     90          1           0      -12.174589   -0.706869   -3.948679
     91          1           0      -11.465298   -2.033162   -3.101706
     92          1           0       -8.749977   -4.965153   -2.185071
     93          1           0       -8.108848   -5.720200   -0.966147
     94          1           0       -9.688795   -4.979784   -0.572679
     95          1           0       -3.357247   -3.391736   -0.312882
     96          1           0       -1.737583   -4.443069    3.644586
     97          1           0       -3.128841   -5.658784    3.538392
     98          1           0       -1.395986   -6.051630    2.683417
     99          1           0        2.910096   -1.738876   -1.919434
    100          1           0        2.554222    0.205563   -1.919544
    101          1           0        4.427753   -0.883603    0.232699
    102          1           0        3.957363    1.269757   -2.669660
    103          1           0        5.510469    2.299390   -2.228888
    104          1           0        5.520641    0.710633   -3.446277
    105          1           0        6.703141    1.300730   -0.093686
    106          1           0        6.458184   -0.474822    0.675228
    107          1           0        7.421925   -1.386506   -1.046520
    108          1           0        7.873903   -0.058329   -2.074681
    109          1           0        9.254032    1.022684   -0.188571
    110          1           0        8.839710   -0.429767    0.840050
    111          1           0       10.255110    0.103134   -1.936799
    112          1           0        9.276351   -2.056124   -1.910960
    113          1           0       11.100972   -2.489423   -1.907396
    114          1           0        9.646851   -2.734052   -0.636645
    115          1           0       11.248350    0.557441    0.543629
    116          1           0       11.337214   -1.047604    0.747619
    117          1           0       12.936765   -1.326517   -1.023524
    118          1           0       12.678113    0.199400   -1.679904
    119          1           0       13.754012    1.214575    0.401566
    120          1           0       13.809212   -0.775367    1.037277
    121          1           0       15.320217    0.579620   -1.666089
    122          1           0       15.701102   -2.062269   -0.029982
    123          1           0       15.030855   -2.038006   -1.646794
    124          1           0       16.517078   -1.612362   -1.509056
    125          1           0       16.093740    1.323725    0.847563
    126          1           0       16.251238   -0.195033    1.361601
    127          1           0       18.272001   -0.374085   -0.443990
    128          1           0       17.699546    0.977616   -1.039949
    129          1           0       18.466774    2.335603    1.076167
    130          1           0       18.744918    0.766735    1.848529
    131          1           0       20.386755    0.289080    0.168320
    132          1           0       20.022824    3.257899   -0.600433
    133          1           0       21.416132    2.307258   -1.092101
    134          1           0       19.911903    1.806751   -1.821219
    135          1           0       20.775212    1.332395    2.394008
    136          1           0       22.144026    1.733912    1.153447
    137          1           0       20.882292    3.115111    1.626494
 ---------------------------------------------------------------------

 SCF Done:  E(RCAM-B3LYP) =  -2933.43245820     A.U. after   16 cycles

 Excitation energies and oscillator strengths:

 Excited State   1:      Singlet-A      1.9766 eV  627.26 nm  f=0.3096  <S**2>=0.000
     240 -> 243        0.20127
     241 -> 242        0.66859
 This state for optimization and/or second-order correction.
 Total Energy, E(TD-HF/TD-DFT) =  -2933.35981895
 Copying the excited state density for this state as the 1-particle RhoCI density.

 The electronic state is 1-A.
 Alpha  occ. eigenvalues --  -46.80392 -19.21682 -19.20565 -19.18244 -19.16267
 Alpha  occ. eigenvalues --  -19.14871 -14.37496 -14.36662 -14.35601 -14.35296
 Alpha  occ. eigenvalues --  -10.35240 -10.33860 -10.30659 -10.28540 -10.27255
 Alpha  occ. eigenvalues --  -10.26965 -10.26632 -10.26206 -10.25888 -10.25559
 Alpha  occ. eigenvalues --  -10.25062 -10.24989 -10.24860 -10.24709 -10.24540
 Alpha  occ. eigenvalues --  -10.24437 -10.24366 -10.24277 -10.24228 -10.24098
 Alpha  occ. eigenvalues --  -10.24066 -10.23819 -10.23756 -10.23511 -10.23485
 Alpha  occ. eigenvalues --  -10.23272 -10.23153 -10.23131 -10.23063 -10.22930
 Alpha  occ. eigenvalues --  -10.22909 -10.22881 -10.22856 -10.22806 -10.22775
 Alpha  occ. eigenvalues --  -10.22479 -10.22409 -10.22375 -10.21819 -10.21813
 Alpha  occ. eigenvalues --  -10.21793 -10.21741 -10.21659 -10.20977 -10.20756
 Alpha  occ. eigenvalues --  -10.20642 -10.20637 -10.20558 -10.20304 -10.20175
 Alpha  occ. eigenvalues --  -10.20161 -10.20071 -10.19040 -10.18985 -10.18278
 Alpha  occ. eigenvalues --   -3.08888  -1.83845  -1.83348  -1.83295  -1.11450
 Alpha  occ. eigenvalues --   -1.08333  -1.05839  -1.04011  -0.99933  -0.99225
 Alpha  occ. eigenvalues --   -0.98328  -0.98086  -0.96525  -0.87677  -0.86504
 Alpha  occ. eigenvalues --   -0.86246  -0.85604  -0.85048  -0.84644  -0.84589
 Alpha  occ. eigenvalues --   -0.84086  -0.83338  -0.82953  -0.81878  -0.81681
 Alpha  occ. eigenvalues --   -0.80334  -0.80070  -0.79548  -0.77854  -0.77653
 Alpha  occ. eigenvalues --   -0.76616  -0.76329  -0.76172  -0.74954  -0.73889
 Alpha  occ. eigenvalues --   -0.73305  -0.73004  -0.71623  -0.71328  -0.71064
 Alpha  occ. eigenvalues --   -0.70738  -0.70558  -0.69936  -0.69546  -0.68145
 Alpha  occ. eigenvalues --   -0.67236  -0.66188  -0.65670  -0.65002  -0.64478
 Alpha  occ. eigenvalues --   -0.62504  -0.62129  -0.61497  -0.60777  -0.60674
 Alpha  occ. eigenvalues --   -0.60177  -0.58492  -0.57907  -0.57249  -0.56984
 Alpha  occ. eigenvalues --   -0.56929  -0.56397  -0.55721  -0.55649  -0.55469
 Alpha  occ. eigenvalues --   -0.55041  -0.54732  -0.54171  -0.52860  -0.52406
 Alpha  occ. eigenvalues --   -0.52321  -0.51966  -0.51657  -0.51252  -0.50744
 Alpha  occ. eigenvalues --   -0.50451  -0.50359  -0.50144  -0.49591  -0.49562
 Alpha  occ. eigenvalues --   -0.48932  -0.48851  -0.48313  -0.48111  -0.47820
 Alpha  occ. eigenvalues --   -0.47636  -0.47401  -0.46914  -0.46727  -0.46528
 Alpha  occ. eigenvalues --   -0.46443  -0.46200  -0.46080  -0.45902  -0.45689
 Alpha  occ. eigenvalues --   -0.45629  -0.45358  -0.45066  -0.44995  -0.44749
 Alpha  occ. eigenvalues --   -0.44515  -0.44406  -0.44326  -0.44200  -0.43690
 Alpha  occ. eigenvalues --   -0.43523  -0.43254  -0.42633  -0.42473  -0.42445
 Alpha  occ. eigenvalues --   -0.42378  -0.42145  -0.42031  -0.41800  -0.41617
 Alpha  occ. eigenvalues --   -0.41487  -0.41277  -0.41180  -0.40967  -0.40892
 Alpha  occ. eigenvalues --   -0.40571  -0.40431  -0.40355  -0.40129  -0.40060
 Alpha  occ. eigenvalues --   -0.39942  -0.39646  -0.39363  -0.39302  -0.39186
 Alpha  occ. eigenvalues --   -0.38975  -0.38716  -0.38570  -0.38373  -0.37989
 Alpha  occ. eigenvalues --   -0.37687  -0.37588  -0.37486  -0.37355  -0.37082
 Alpha  occ. eigenvalues --   -0.36720  -0.36580  -0.36473  -0.36375  -0.35965
 Alpha  occ. eigenvalues --   -0.35843  -0.35394  -0.34661  -0.34574  -0.34488
 Alpha  occ. eigenvalues --   -0.34212  -0.34168  -0.33616  -0.33330  -0.33316
 Alpha  occ. eigenvalues --   -0.33030  -0.32660  -0.32437  -0.32214  -0.32021
 Alpha  occ. eigenvalues --   -0.31505  -0.31137  -0.30625  -0.30440  -0.30298
 Alpha  occ. eigenvalues --   -0.30104  -0.29662  -0.29622  -0.27966  -0.27441
 Alpha  occ. eigenvalues --   -0.26844  -0.25907  -0.25655  -0.25250  -0.22190
 Alpha  occ. eigenvalues --   -0.21636
 Alpha virt. eigenvalues --   -0.09195  -0.04183  -0.00171   0.01629   0.02458
 Alpha virt. eigenvalues --    0.02630   0.04213   0.04225   0.04676   0.05054
 Alpha virt. eigenvalues --    0.06031   0.08413   0.08672   0.08755   0.09096

 Mulliken charges:
               1
     1  Mg   0.804511
     2  C    0.155369
     3  C   -0.195410
     4  C   -0.173896
     5  C   -0.146262
     6  N   -0.669765
     7  C    0.316907
     8  C   -0.163091
     9  C   -0.143577
    10  C    0.349922
    11  C   -0.294291
    12  C   -0.178002
    13  C   -0.255926
    14  C    0.609956
    15  O   -0.438737
    16  O   -0.505518
    17  N   -0.720804
    18  C    0.313965
    19  C    0.049069
    20  C   -0.000293
    21  C    0.311007
    22  C   -0.399166
    23  C   -0.072609
    24  C   -0.241522
    25  N   -0.646114
    26  C    0.277380
    27  C    0.056743
    28  C    0.103997
    29  C    0.288889
    30  C   -0.412221
    31  C   -0.289433
    32  C   -0.326213
    33  N   -0.733637
    34  C    0.263301
    35  C    0.012755
    36  C    0.100351
    37  C    0.261477
    38  C   -0.385056
    39  C    0.317020
    40  O   -0.457127
    41  C   -0.366218
    42  C    0.653416
    43  O   -0.540196
    44  O   -0.473477
    45  C   -0.070684
    46  C    0.045512
    47  C   -0.120816
    48  C    0.152798
    49  C   -0.368131
    50  C   -0.204411
    51  C   -0.187724
    52  C   -0.188432
    53  C   -0.053805
    54  C   -0.283547
    55  C   -0.146938
    56  C   -0.160607
    57  C   -0.137936
    58  C   -0.062514
    59  C   -0.304885
    60  C   -0.165086
    61  C   -0.185632
    62  C   -0.143154
    63  C   -0.064461
    64  C   -0.305304
    65  C   -0.291129
    66  H    0.086957
    67  H    0.097443
    68  H    0.091455
    69  H    0.124443
    70  H    0.099301
    71  H    0.103547
    72  H    0.081671
    73  H    0.139713
    74  H    0.096155
    75  H    0.122462
    76  H    0.141862
    77  H    0.150740
    78  H    0.131702
    79  H    0.116836
    80  H    0.104815
    81  H    0.095582
    82  H    0.087629
    83  H    0.092204
    84  H    0.124468
    85  H    0.120377
    86  H    0.132053
    87  H    0.110046
    88  H    0.105394
    89  H    0.115831
    90  H    0.113580
    91  H    0.110643
    92  H    0.135378
    93  H    0.145919
    94  H    0.072438
    95  H    0.148016
    96  H    0.121652
    97  H    0.139352
    98  H    0.128687
    99  H    0.108296
   100  H    0.105911
   101  H    0.085995
   102  H    0.097377
   103  H    0.082424
   104  H    0.112977
   105  H    0.109577
   106  H    0.061597
   107  H    0.103305
   108  H    0.097720
   109  H    0.069298
   110  H    0.069806
   111  H    0.079127
   112  H    0.114468
   113  H    0.092186
   114  H    0.055514
   115  H    0.095230
   116  H    0.102565
   117  H    0.103932
   118  H    0.086548
   119  H    0.007063
   120  H    0.057109
   121  H    0.042863
   122  H    0.109806
   123  H    0.109314
   124  H    0.098275
   125  H    0.099605
   126  H    0.098135
   127  H    0.086824
   128  H    0.100241
   129  H    0.064981
   130  H    0.085827
   131  H    0.054243
   132  H    0.077304
   133  H    0.113234
   134  H    0.109651
   135  H    0.106300
   136  H    0.108203
   137  H    0.078235
 Sum of Mulliken charges =  -0.00000

 Dipole moment (field-independent basis, Debye):
    X=             -2.7422    Y=              4.7279    Z=             -1.3191  Tot=              5.6225
 Quadrupole moment (field-independent basis, Debye-Ang):
   XX=           -318.8129   YY=           -397.4718   ZZ=           -399.9369
   XY=            -35.3370   XZ=             17.0213   YZ=              3.9654

 Normal termination of Gaussian 16 at Fri Sep 13 01:55:18 2019.
