 Gaussian 16, Revision A.03,
 Gaussian 16:  ES64L-G16RevA.03 25-Dec-2016

 ----------------------------------------------------------------------
 # td=(NStates=1) iop(3/107=0140000000,3/108=0140000000) CAM-B3LYP/6-31
 G(d,p)
 ----------------------------------------------------------------------

 --
 TD
 --
 Symbolic Z-matrix:
 Charge =  0 Multiplicity = 1

                         Standard orientation:
 ---------------------------------------------------------------------
 Center     Atomic      Atomic             Coordinates (Angstroms)
 Number     Number       Type             X           Y           Z
 ---------------------------------------------------------------------
      1         12           0       -7.170843    0.575271    0.224659
      2          6           0       -4.842921   -1.949902    0.439221
      3          6           0       -4.780066    2.850039    1.206610
      4          6           0       -9.433670    3.133154   -0.306084
      5          6           0       -9.664271   -1.708720   -0.897677
      6          7           0       -5.177388    0.437852    0.817938
      7          6           0       -4.395375   -0.673264    0.753371
      8          6           0       -2.968192   -0.352487    1.213079
      9          6           0       -3.042251    1.062146    1.801868
     10          6           0       -4.407366    1.515879    1.254893
     11          6           0       -3.016211    1.149347    3.287647
     12          6           0       -1.875890   -0.621121    0.048964
     13          6           0       -0.406107   -0.597102    0.570929
     14          6           0        0.544402   -0.844758   -0.601007
     15          8           0        0.284914   -1.129294   -1.707960
     16          8           0        1.753011   -0.557659   -0.247591
     17          7           0       -7.112570    2.632830    0.316896
     18          6           0       -5.963971    3.394906    0.654817
     19          6           0       -6.352249    4.856086    0.708660
     20          6           0       -7.669530    4.847860    0.308590
     21          6           0       -8.111273    3.475789    0.009173
     22          6           0       -5.379168    5.874128    0.993472
     23          6           0       -8.493612    6.054998   -0.006341
     24          6           0       -8.383288    7.273189    0.520957
     25          7           0       -9.140850    0.690640   -0.452164
     26          6           0       -9.913732    1.781826   -0.560451
     27          6           0      -11.336032    1.551977   -0.939123
     28          6           0      -11.219304    0.220789   -1.187634
     29          6           0       -9.968185   -0.367843   -0.883099
     30          6           0      -12.368493    2.625405   -1.267989
     31          6           0      -12.357505   -0.739202   -1.771841
     32          6           0      -12.280715   -1.071806   -3.258227
     33          7           0       -7.223822   -1.340294   -0.242041
     34          6           0       -8.317855   -2.141997   -0.550738
     35          6           0       -7.888016   -3.549428   -0.571577
     36          6           0       -6.605938   -3.464663   -0.194417
     37          6           0       -6.219292   -2.126879    0.055810
     38          6           0       -8.764096   -4.679495   -0.816282
     39          6           0       -5.395835   -4.279072    0.110406
     40          8           0       -5.200022   -5.505051    0.051021
     41          6           0       -4.260215   -3.252982    0.617595
     42          6           0       -3.644063   -3.680111    1.898905
     43          8           0       -4.012109   -3.116598    2.931413
     44          8           0       -2.912895   -4.736578    1.718525
     45          6           0       -2.346737   -5.347941    2.925317
     46          6           0        2.882110   -0.863191   -1.180083
     47          6           0        4.217958   -0.661557   -0.531441
     48          6           0        5.222508    0.227989   -0.948659
     49          6           0        5.092726    1.176836   -2.095949
     50          6           0        6.515043    0.282339   -0.180694
     51          6           0        7.655177   -0.379879   -1.007481
     52          6           0        9.004339   -0.272027   -0.125034
     53          6           0       10.264761   -0.623563   -0.784746
     54          6           0       10.118013   -2.117836   -1.264986
     55          6           0       11.581255   -0.410402   -0.047933
     56          6           0       12.900900   -0.538936   -0.664199
     57          6           0       14.084034   -0.153300    0.153895
     58          6           0       15.394375   -0.210533   -0.475679
     59          6           0       15.856740   -1.624995   -0.931169
     60          6           0       16.513906    0.367534    0.334768
     61          6           0       17.906472    0.645948   -0.259058
     62          6           0       18.770525    1.321262    0.746155
     63          6           0       20.322816    1.509167    0.335026
     64          6           0       20.479198    2.200548   -1.067664
     65          6           0       21.065901    2.328874    1.371382
     66          1           0       -4.047058    3.537022    1.555734
     67          1           0      -10.143665    3.998678   -0.182627
     68          1           0      -10.408386   -2.348865   -0.927780
     69          1           0       -2.801046   -1.038038    1.964453
     70          1           0       -2.027235    1.581090    1.404312
     71          1           0       -2.112295    0.767956    3.812425
     72          1           0       -2.933193    2.184013    3.518803
     73          1           0       -3.863146    0.695441    3.653991
     74          1           0       -2.050807   -1.682998   -0.470215
     75          1           0       -2.028746    0.215868   -0.560315
     76          1           0       -0.373170    0.463479    0.928343
     77          1           0       -0.057548   -1.239235    1.391157
     78          1           0       -5.784694    6.935552    0.543255
     79          1           0       -5.225993    6.124676    1.991883
     80          1           0       -4.473714    5.675644    0.604135
     81          1           0       -9.316457    5.780563   -0.740811
     82          1           0       -9.250614    8.085221    0.272099
     83          1           0       -7.563293    7.532634    1.171540
     84          1           0      -12.326863    3.316204   -1.928469
     85          1           0      -13.252553    1.820842   -1.562059
     86          1           0      -12.706921    3.132723   -0.326604
     87          1           0      -12.658271   -1.641822   -1.137425
     88          1           0      -13.506291   -0.139869   -1.827133
     89          1           0      -12.906396   -1.776256   -3.576614
     90          1           0      -12.518719   -0.209609   -3.705902
     91          1           0      -11.209501   -1.398152   -3.574263
     92          1           0       -9.408528   -4.677242   -1.778207
     93          1           0       -8.183222   -5.649908   -0.843891
     94          1           0       -9.591061   -4.646714   -0.121373
     95          1           0       -3.460229   -3.274906    0.046616
     96          1           0       -1.948326   -4.542070    3.622010
     97          1           0       -3.204462   -5.894806    3.463887
     98          1           0       -1.650953   -6.002216    2.463464
     99          1           0        2.798218   -1.713456   -1.847611
    100          1           0        2.693394    0.113826   -1.869758
    101          1           0        4.600507   -1.278611    0.319006
    102          1           0        4.010489    1.330725   -2.660318
    103          1           0        5.108917    2.335995   -1.784958
    104          1           0        5.761163    0.949558   -3.002796
    105          1           0        6.759714    1.255489    0.263617
    106          1           0        6.376900   -0.367617    0.762571
    107          1           0        7.522004   -1.402641   -1.422464
    108          1           0        7.889668    0.190601   -1.982071
    109          1           0        9.172029    0.678405    0.069623
    110          1           0        8.629401   -0.601484    0.872753
    111          1           0       10.340800   -0.016629   -1.701002
    112          1           0        9.317292   -2.354437   -1.983524
    113          1           0       10.922875   -2.447289   -1.936003
    114          1           0       10.081011   -2.727927   -0.284239
    115          1           0       11.409411    0.587223    0.399808
    116          1           0       11.561019   -1.079651    0.923652
    117          1           0       13.194967   -1.644982   -1.042222
    118          1           0       13.122609    0.056689   -1.529182
    119          1           0       13.863678    0.897018    0.323682
    120          1           0       14.176748   -0.970642    0.981639
    121          1           0       15.331456    0.466517   -1.383604
    122          1           0       15.926294   -2.235733   -0.008914
    123          1           0       15.038588   -2.210796   -1.402124
    124          1           0       16.796399   -1.661549   -1.435379
    125          1           0       16.162021    1.250264    0.849932
    126          1           0       16.654844   -0.084925    1.351771
    127          1           0       18.379050   -0.127260   -0.578010
    128          1           0       18.011812    1.149871   -1.334206
    129          1           0       18.376558    2.331404    0.967616
    130          1           0       18.720640    0.560384    1.551152
    131          1           0       20.688255    0.497411    0.111498
    132          1           0       19.872695    3.189105   -1.046046
    133          1           0       21.458331    2.243673   -1.365066
    134          1           0       19.715189    1.734364   -1.977215
    135          1           0       21.222973    1.691600    2.443398
    136          1           0       22.105817    2.501230    1.066456
    137          1           0       20.618555    3.202229    1.765070
 ---------------------------------------------------------------------

 SCF Done:  E(RCAM-B3LYP) =  -2933.49751617     A.U. after   16 cycles

 Excitation energies and oscillator strengths:

 Excited State   1:      Singlet-A      2.0273 eV  611.56 nm  f=0.2370  <S**2>=0.000
     240 -> 243        0.24227
     241 -> 242        0.65752
 This state for optimization and/or second-order correction.
 Total Energy, E(TD-HF/TD-DFT) =  -2933.42301316
 Copying the excited state density for this state as the 1-particle RhoCI density.

 The electronic state is 1-A.
 Alpha  occ. eigenvalues --  -46.79333 -19.23291 -19.21096 -19.15616 -19.15481
 Alpha  occ. eigenvalues --  -19.15230 -14.37686 -14.35369 -14.35043 -14.35007
 Alpha  occ. eigenvalues --  -10.33728 -10.32946 -10.30326 -10.28757 -10.28372
 Alpha  occ. eigenvalues --  -10.26576 -10.25910 -10.25647 -10.24937 -10.24815
 Alpha  occ. eigenvalues --  -10.24740 -10.24589 -10.24317 -10.24044 -10.24005
 Alpha  occ. eigenvalues --  -10.23755 -10.23647 -10.23218 -10.23164 -10.23100
 Alpha  occ. eigenvalues --  -10.23091 -10.22929 -10.22835 -10.22743 -10.22662
 Alpha  occ. eigenvalues --  -10.22649 -10.22572 -10.22482 -10.22416 -10.22407
 Alpha  occ. eigenvalues --  -10.22288 -10.22244 -10.22214 -10.22004 -10.21930
 Alpha  occ. eigenvalues --  -10.21911 -10.21862 -10.21771 -10.21720 -10.21677
 Alpha  occ. eigenvalues --  -10.21527 -10.21470 -10.21416 -10.21394 -10.21192
 Alpha  occ. eigenvalues --  -10.20895 -10.20821 -10.20517 -10.20362 -10.20244
 Alpha  occ. eigenvalues --  -10.20145 -10.20092 -10.20039 -10.19870 -10.18984
 Alpha  occ. eigenvalues --   -3.08051  -1.82983  -1.82518  -1.82467  -1.14433
 Alpha  occ. eigenvalues --   -1.14267  -1.04457  -1.03908  -1.03567  -0.99589
 Alpha  occ. eigenvalues --   -0.98054  -0.97896  -0.96790  -0.87470  -0.87097
 Alpha  occ. eigenvalues --   -0.85968  -0.84802  -0.84332  -0.83892  -0.83540
 Alpha  occ. eigenvalues --   -0.83449  -0.82642  -0.82497  -0.82199  -0.81198
 Alpha  occ. eigenvalues --   -0.80500  -0.79594  -0.78898  -0.78503  -0.77954
 Alpha  occ. eigenvalues --   -0.77319  -0.76844  -0.75809  -0.75033  -0.73591
 Alpha  occ. eigenvalues --   -0.73486  -0.73003  -0.72282  -0.71326  -0.70886
 Alpha  occ. eigenvalues --   -0.70664  -0.70421  -0.70002  -0.68928  -0.67808
 Alpha  occ. eigenvalues --   -0.66921  -0.65924  -0.64736  -0.63997  -0.63499
 Alpha  occ. eigenvalues --   -0.63270  -0.61788  -0.61699  -0.60861  -0.60463
 Alpha  occ. eigenvalues --   -0.59505  -0.59154  -0.58817  -0.58426  -0.58347
 Alpha  occ. eigenvalues --   -0.57676  -0.56481  -0.55822  -0.55371  -0.55313
 Alpha  occ. eigenvalues --   -0.54889  -0.54339  -0.53644  -0.53346  -0.52577
 Alpha  occ. eigenvalues --   -0.52394  -0.52246  -0.52041  -0.51216  -0.51011
 Alpha  occ. eigenvalues --   -0.50489  -0.50326  -0.50211  -0.50011  -0.49467
 Alpha  occ. eigenvalues --   -0.49170  -0.49023  -0.48767  -0.48383  -0.48004
 Alpha  occ. eigenvalues --   -0.47732  -0.47381  -0.47326  -0.47125  -0.46990
 Alpha  occ. eigenvalues --   -0.46734  -0.46519  -0.46116  -0.46037  -0.45750
 Alpha  occ. eigenvalues --   -0.45636  -0.45450  -0.45248  -0.44914  -0.44748
 Alpha  occ. eigenvalues --   -0.44592  -0.44392  -0.44173  -0.43949  -0.43729
 Alpha  occ. eigenvalues --   -0.43576  -0.43449  -0.43382  -0.43026  -0.42812
 Alpha  occ. eigenvalues --   -0.42702  -0.42437  -0.42336  -0.42275  -0.42062
 Alpha  occ. eigenvalues --   -0.41820  -0.41517  -0.41271  -0.41138  -0.40923
 Alpha  occ. eigenvalues --   -0.40752  -0.40389  -0.40254  -0.40209  -0.40071
 Alpha  occ. eigenvalues --   -0.39903  -0.39545  -0.39476  -0.39241  -0.38998
 Alpha  occ. eigenvalues --   -0.38767  -0.38655  -0.38479  -0.37955  -0.37673
 Alpha  occ. eigenvalues --   -0.37560  -0.37455  -0.37330  -0.37019  -0.36781
 Alpha  occ. eigenvalues --   -0.36555  -0.36142  -0.35796  -0.35656  -0.35538
 Alpha  occ. eigenvalues --   -0.35244  -0.34921  -0.34863  -0.34757  -0.34195
 Alpha  occ. eigenvalues --   -0.33853  -0.33552  -0.33322  -0.33199  -0.33004
 Alpha  occ. eigenvalues --   -0.32841  -0.32747  -0.32634  -0.32618  -0.32388
 Alpha  occ. eigenvalues --   -0.32252  -0.31748  -0.31602  -0.31383  -0.30207
 Alpha  occ. eigenvalues --   -0.29685  -0.29577  -0.29176  -0.27750  -0.27261
 Alpha  occ. eigenvalues --   -0.26964  -0.26311  -0.26011  -0.24949  -0.21419
 Alpha  occ. eigenvalues --   -0.19606
 Alpha virt. eigenvalues --   -0.06680  -0.03840   0.00566   0.02130   0.02476
 Alpha virt. eigenvalues --    0.04341   0.04741   0.05243   0.05811   0.06344
 Alpha virt. eigenvalues --    0.06861   0.08656   0.09277   0.09523   0.09723

 Mulliken charges:
               1
     1  Mg   0.818982
     2  C    0.094646
     3  C   -0.179974
     4  C   -0.187940
     5  C   -0.117492
     6  N   -0.645588
     7  C    0.315722
     8  C   -0.155793
     9  C   -0.149665
    10  C    0.317722
    11  C   -0.297879
    12  C   -0.173323
    13  C   -0.273567
    14  C    0.587335
    15  O   -0.459940
    16  O   -0.454264
    17  N   -0.689924
    18  C    0.256531
    19  C    0.064850
    20  C   -0.025662
    21  C    0.345763
    22  C   -0.392337
    23  C   -0.051148
    24  C   -0.256380
    25  N   -0.676337
    26  C    0.272654
    27  C    0.051001
    28  C   -0.000043
    29  C    0.318998
    30  C   -0.356341
    31  C   -0.260885
    32  C   -0.291007
    33  N   -0.752542
    34  C    0.219112
    35  C    0.057168
    36  C    0.024811
    37  C    0.316098
    38  C   -0.407537
    39  C    0.351692
    40  O   -0.479191
    41  C   -0.285803
    42  C    0.600217
    43  O   -0.499392
    44  O   -0.416897
    45  C   -0.096700
    46  C    0.003753
    47  C   -0.128851
    48  C    0.146268
    49  C   -0.369554
    50  C   -0.236200
    51  C   -0.184337
    52  C   -0.157314
    53  C   -0.069744
    54  C   -0.308472
    55  C   -0.154456
    56  C   -0.162744
    57  C   -0.158215
    58  C   -0.049762
    59  C   -0.323296
    60  C   -0.171729
    61  C   -0.157115
    62  C   -0.175461
    63  C   -0.056787
    64  C   -0.296826
    65  C   -0.297515
    66  H    0.075689
    67  H    0.092239
    68  H    0.078824
    69  H    0.118074
    70  H    0.073693
    71  H    0.104276
    72  H    0.110838
    73  H    0.135917
    74  H    0.110568
    75  H    0.124822
    76  H    0.125234
    77  H    0.130524
    78  H    0.092426
    79  H    0.136312
    80  H    0.132635
    81  H    0.085737
    82  H    0.090761
    83  H    0.101216
    84  H    0.140999
    85  H    0.091156
    86  H    0.117433
    87  H    0.101337
    88  H    0.047035
    89  H    0.115391
    90  H    0.124194
    91  H    0.090445
    92  H    0.112668
    93  H    0.141866
    94  H    0.134360
    95  H    0.142965
    96  H    0.138488
    97  H    0.140867
    98  H    0.141783
    99  H    0.152170
   100  H    0.109027
   101  H    0.084528
   102  H    0.092746
   103  H    0.106310
   104  H    0.126123
   105  H    0.115721
   106  H    0.093304
   107  H    0.111241
   108  H    0.083705
   109  H    0.098967
   110  H    0.084001
   111  H    0.083987
   112  H    0.094217
   113  H    0.093070
   114  H    0.091443
   115  H    0.080955
   116  H    0.072964
   117  H    0.071118
   118  H    0.088597
   119  H    0.092949
   120  H    0.073750
   121  H    0.071202
   122  H    0.095484
   123  H    0.094930
   124  H    0.113942
   125  H    0.082482
   126  H    0.076686
   127  H    0.106726
   128  H    0.056869
   129  H    0.089907
   130  H    0.095094
   131  H    0.092231
   132  H    0.093627
   133  H    0.114714
   134  H    0.058848
   135  H    0.060388
   136  H    0.103768
   137  H    0.120042
 Sum of Mulliken charges =  -0.00000

 Dipole moment (field-independent basis, Debye):
    X=              3.7075    Y=              3.6982    Z=              1.6087  Tot=              5.4782
 Quadrupole moment (field-independent basis, Debye-Ang):
   XX=           -346.9115   YY=           -390.2700   ZZ=           -398.1098
   XY=            -13.3769   XZ=              5.7464   YZ=             -3.6865

 Normal termination of Gaussian 16 at Thu Sep  5 10:18:02 2019.
