 Gaussian 16, Revision A.03,
 Gaussian 16:  ES64L-G16RevA.03 25-Dec-2016

 ----------------------------------------------------------------------
 # td=(NStates=1) iop(3/107=0140000000,3/108=0140000000) CAM-B3LYP/6-31
 G(d,p)
 ----------------------------------------------------------------------

 --
 TD
 --
 Symbolic Z-matrix:
 Charge =  0 Multiplicity = 1

                         Standard orientation:
 ---------------------------------------------------------------------
 Center     Atomic      Atomic             Coordinates (Angstroms)
 Number     Number       Type             X           Y           Z
 ---------------------------------------------------------------------
      1         12           0       -7.131404    0.586356    0.093508
      2          6           0       -4.956802   -1.899499    0.534550
      3          6           0       -4.753925    2.871648    0.984927
      4          6           0       -9.348491    3.064500   -0.421199
      5          6           0       -9.634653   -1.667508   -0.778281
      6          7           0       -5.007927    0.503801    0.557838
      7          6           0       -4.307500   -0.751684    0.776089
      8          6           0       -2.884652   -0.414533    1.152510
      9          6           0       -2.965777    1.053818    1.662943
     10          6           0       -4.304689    1.501821    1.047276
     11          6           0       -2.910414    1.319651    3.206717
     12          6           0       -1.926400   -0.637726   -0.013214
     13          6           0       -0.482994   -0.563204    0.386340
     14          6           0        0.502573   -0.795579   -0.805499
     15          8           0        0.224442   -1.179542   -1.901566
     16          8           0        1.738749   -0.423992   -0.434566
     17          7           0       -7.101520    2.605779    0.253687
     18          6           0       -6.025049    3.367906    0.694247
     19          6           0       -6.354926    4.828735    0.728476
     20          6           0       -7.714604    4.856419    0.311871
     21          6           0       -8.150514    3.444001   -0.030971
     22          6           0       -5.471169    5.817575    1.143667
     23          6           0       -8.532485    6.044258    0.253873
     24          6           0       -8.375149    7.234915    1.006244
     25          7           0       -9.148822    0.744909   -0.555220
     26          6           0       -9.933248    1.860048   -0.623161
     27          6           0      -11.332598    1.492501   -0.959593
     28          6           0      -11.325164    0.177316   -1.139535
     29          6           0      -10.005863   -0.330151   -0.832623
     30          6           0      -12.337114    2.552497   -1.272821
     31          6           0      -12.420229   -0.716707   -1.642824
     32          6           0      -12.215482   -1.137343   -3.179505
     33          7           0       -7.329460   -1.399247   -0.150487
     34          6           0       -8.354832   -2.250870   -0.440224
     35          6           0       -7.900628   -3.577358   -0.351069
     36          6           0       -6.581999   -3.541188    0.003293
     37          6           0       -6.197860   -2.170912    0.059010
     38          6           0       -8.776867   -4.762450   -0.722811
     39          6           0       -5.430620   -4.366565    0.187018
     40          8           0       -5.213711   -5.493770    0.200318
     41          6           0       -4.229871   -3.291755    0.614311
     42          6           0       -3.697350   -3.789563    1.988990
     43          8           0       -3.901133   -3.167829    3.032866
     44          8           0       -2.779820   -4.669235    1.819998
     45          6           0       -2.222281   -5.224613    2.991451
     46          6           0        2.779259   -0.669798   -1.386478
     47          6           0        4.091313   -0.465190   -0.745539
     48          6           0        5.148744    0.226079   -1.145634
     49          6           0        5.142559    1.099449   -2.418094
     50          6           0        6.422995    0.353517   -0.373430
     51          6           0        7.740955   -0.237769   -1.038464
     52          6           0        8.938591   -0.179908   -0.228357
     53          6           0       10.318437   -0.695415   -0.890604
     54          6           0       10.153375   -2.114650   -1.156816
     55          6           0       11.507494   -0.352507   -0.028712
     56          6           0       12.817465   -0.501473   -0.767618
     57          6           0       13.976361   -0.102774    0.162891
     58          6           0       15.401812   -0.119575   -0.443538
     59          6           0       15.822331   -1.597818   -0.828075
     60          6           0       16.358656    0.444545    0.518520
     61          6           0       17.859938    0.603454    0.026395
     62          6           0       18.781304    1.218734    0.922287
     63          6           0       20.295396    1.459874    0.259857
     64          6           0       20.317506    2.250856   -0.968228
     65          6           0       21.287568    1.940210    1.469595
     66          1           0       -3.945215    3.718380    1.118408
     67          1           0      -10.194006    3.898564   -0.485257
     68          1           0      -10.391618   -2.382858   -0.991066
     69          1           0       -2.470825   -1.207032    2.049448
     70          1           0       -2.229288    1.619022    1.002369
     71          1           0       -2.005019    1.309874    3.657028
     72          1           0       -3.078484    2.377702    3.462183
     73          1           0       -3.590270    0.749770    3.652490
     74          1           0       -2.049697   -1.598848   -0.584252
     75          1           0       -2.224479    0.009052   -0.917383
     76          1           0       -0.369706    0.548145    0.853525
     77          1           0       -0.076924   -1.256501    1.046979
     78          1           0       -5.637147    6.816675    0.733379
     79          1           0       -5.353032    5.956486    2.347937
     80          1           0       -4.447724    5.627662    0.927787
     81          1           0       -9.427189    6.053221   -0.397625
     82          1           0       -9.041348    8.115357    1.025412
     83          1           0       -7.549018    7.476555    1.728685
     84          1           0      -11.968347    3.201161   -2.418771
     85          1           0      -13.460528    2.198129   -1.464981
     86          1           0      -12.200463    3.582021   -0.705488
     87          1           0      -12.674390   -1.575178   -0.895246
     88          1           0      -13.328137   -0.057359   -1.532163
     89          1           0      -12.983079   -1.700567   -3.410149
     90          1           0      -11.973362   -0.144263   -3.764801
     91          1           0      -11.430498   -1.817336   -3.249206
     92          1           0       -9.187174   -4.557187   -1.717790
     93          1           0       -8.288996   -5.783644   -0.731106
     94          1           0       -9.497746   -5.270373    0.102475
     95          1           0       -3.344265   -3.544746    0.113354
     96          1           0       -1.659562   -4.567258    3.579210
     97          1           0       -2.924019   -5.612318    3.620776
     98          1           0       -1.335583   -5.850593    2.628870
     99          1           0        2.826910   -1.700952   -1.722280
    100          1           0        2.546271    0.003123   -2.248482
    101          1           0        4.327842   -0.996260    0.300588
    102          1           0        4.176626    1.183080   -2.994514
    103          1           0        5.768023    2.035823   -2.199042
    104          1           0        5.912227    0.845547   -3.214793
    105          1           0        6.625932    1.431889   -0.283447
    106          1           0        6.307121   -0.258856    0.677052
    107          1           0        7.636261   -1.370839   -1.302509
    108          1           0        7.855941    0.350684   -2.027431
    109          1           0        9.278121    0.840202   -0.084783
    110          1           0        9.039044   -0.908069    0.664473
    111          1           0       10.274975   -0.126227   -1.896107
    112          1           0        9.394789   -2.625356   -1.773818
    113          1           0       10.948177   -2.708223   -1.519808
    114          1           0        9.996470   -2.877544   -0.227393
    115          1           0       11.199867    0.639810    0.348803
    116          1           0       11.422456   -0.816574    0.961739
    117          1           0       12.971368   -1.507149   -1.066704
    118          1           0       13.016630    0.034760   -1.789863
    119          1           0       13.751472    0.941578    0.573289
    120          1           0       14.037283   -0.702704    0.929565
    121          1           0       15.403661    0.571491   -1.298240
    122          1           0       16.070403   -2.340138   -0.052779
    123          1           0       14.839534   -2.085316   -1.378833
    124          1           0       16.702800   -1.541434   -1.478715
    125          1           0       16.067823    1.291885    1.052384
    126          1           0       16.431429   -0.323482    1.345974
    127          1           0       18.127339   -0.130895   -0.571880
    128          1           0       17.871735    1.361498   -0.867471
    129          1           0       18.421460    2.226267    1.188798
    130          1           0       18.872274    0.624103    1.993075
    131          1           0       20.550277    0.539840   -0.083166
    132          1           0       19.839792    3.289919   -0.664581
    133          1           0       21.365774    2.633769   -1.278932
    134          1           0       19.781244    1.854554   -1.792865
    135          1           0       20.965353    1.438566    2.364144
    136          1           0       22.336614    2.006578    1.167205
    137          1           0       20.903935    2.845888    1.504520
 ---------------------------------------------------------------------

 SCF Done:  E(RCAM-B3LYP) =  -2933.48408749     A.U. after   15 cycles

 Excitation energies and oscillator strengths:

 Excited State   1:      Singlet-A      2.1383 eV  579.84 nm  f=0.2365  <S**2>=0.000
     240 -> 243        0.23713
     241 -> 242        0.65987
 This state for optimization and/or second-order correction.
 Total Energy, E(TD-HF/TD-DFT) =  -2933.40550773
 Copying the excited state density for this state as the 1-particle RhoCI density.

 The electronic state is 1-A.
 Alpha  occ. eigenvalues --  -46.80224 -19.22883 -19.21933 -19.16879 -19.15665
 Alpha  occ. eigenvalues --  -19.14613 -14.37701 -14.35300 -14.34805 -14.34787
 Alpha  occ. eigenvalues --  -10.34370 -10.33210 -10.29168 -10.27739 -10.27028
 Alpha  occ. eigenvalues --  -10.26230 -10.25991 -10.25919 -10.25449 -10.25312
 Alpha  occ. eigenvalues --  -10.24706 -10.24596 -10.24584 -10.24028 -10.24008
 Alpha  occ. eigenvalues --  -10.23911 -10.23722 -10.23674 -10.23481 -10.23289
 Alpha  occ. eigenvalues --  -10.23233 -10.23147 -10.23106 -10.23072 -10.22761
 Alpha  occ. eigenvalues --  -10.22697 -10.22695 -10.22602 -10.22551 -10.22449
 Alpha  occ. eigenvalues --  -10.22397 -10.22375 -10.22317 -10.22277 -10.22245
 Alpha  occ. eigenvalues --  -10.22131 -10.21906 -10.21881 -10.21862 -10.21668
 Alpha  occ. eigenvalues --  -10.21564 -10.21504 -10.21475 -10.21341 -10.21127
 Alpha  occ. eigenvalues --  -10.21078 -10.21004 -10.20664 -10.20277 -10.20266
 Alpha  occ. eigenvalues --  -10.20087 -10.19883 -10.19829 -10.19663 -10.19159
 Alpha  occ. eigenvalues --   -3.08698  -1.83644  -1.83181  -1.83087  -1.15463
 Alpha  occ. eigenvalues --   -1.13871  -1.09462  -1.05262  -1.02591  -0.98785
 Alpha  occ. eigenvalues --   -0.97923  -0.97763  -0.96577  -0.86715  -0.86520
 Alpha  occ. eigenvalues --   -0.85669  -0.85047  -0.84723  -0.84597  -0.83742
 Alpha  occ. eigenvalues --   -0.83230  -0.82871  -0.82054  -0.81199  -0.81119
 Alpha  occ. eigenvalues --   -0.80322  -0.79575  -0.79076  -0.78473  -0.77897
 Alpha  occ. eigenvalues --   -0.77248  -0.76679  -0.75781  -0.75393  -0.73807
 Alpha  occ. eigenvalues --   -0.72746  -0.72186  -0.71773  -0.71414  -0.71387
 Alpha  occ. eigenvalues --   -0.70910  -0.70226  -0.70116  -0.69384  -0.67853
 Alpha  occ. eigenvalues --   -0.67471  -0.66389  -0.65873  -0.64982  -0.64042
 Alpha  occ. eigenvalues --   -0.63280  -0.62500  -0.61212  -0.61160  -0.60839
 Alpha  occ. eigenvalues --   -0.60231  -0.59767  -0.59050  -0.58875  -0.58231
 Alpha  occ. eigenvalues --   -0.58017  -0.56582  -0.55890  -0.55364  -0.55025
 Alpha  occ. eigenvalues --   -0.54342  -0.54080  -0.53368  -0.52999  -0.52643
 Alpha  occ. eigenvalues --   -0.52062  -0.51790  -0.51728  -0.51217  -0.50736
 Alpha  occ. eigenvalues --   -0.50464  -0.50334  -0.49983  -0.49655  -0.49495
 Alpha  occ. eigenvalues --   -0.48955  -0.48877  -0.48772  -0.48204  -0.47902
 Alpha  occ. eigenvalues --   -0.47760  -0.47387  -0.47172  -0.47094  -0.46966
 Alpha  occ. eigenvalues --   -0.46719  -0.46569  -0.46215  -0.46137  -0.45872
 Alpha  occ. eigenvalues --   -0.45734  -0.45471  -0.45285  -0.45152  -0.44465
 Alpha  occ. eigenvalues --   -0.44332  -0.44132  -0.43991  -0.43694  -0.43354
 Alpha  occ. eigenvalues --   -0.43081  -0.43039  -0.42959  -0.42774  -0.42321
 Alpha  occ. eigenvalues --   -0.42219  -0.42082  -0.41954  -0.41744  -0.41587
 Alpha  occ. eigenvalues --   -0.41555  -0.41324  -0.41137  -0.41103  -0.40876
 Alpha  occ. eigenvalues --   -0.40693  -0.40382  -0.40276  -0.40249  -0.39747
 Alpha  occ. eigenvalues --   -0.39556  -0.39326  -0.39138  -0.38804  -0.38640
 Alpha  occ. eigenvalues --   -0.38485  -0.38275  -0.38236  -0.38194  -0.37895
 Alpha  occ. eigenvalues --   -0.37687  -0.37658  -0.37555  -0.37433  -0.37380
 Alpha  occ. eigenvalues --   -0.37256  -0.36659  -0.36534  -0.36210  -0.36066
 Alpha  occ. eigenvalues --   -0.35802  -0.35581  -0.35275  -0.34938  -0.34727
 Alpha  occ. eigenvalues --   -0.34338  -0.34133  -0.33898  -0.33795  -0.33492
 Alpha  occ. eigenvalues --   -0.33269  -0.33174  -0.33010  -0.32756  -0.32368
 Alpha  occ. eigenvalues --   -0.32159  -0.31551  -0.30778  -0.30604  -0.30328
 Alpha  occ. eigenvalues --   -0.30248  -0.29966  -0.28488  -0.28002  -0.26881
 Alpha  occ. eigenvalues --   -0.26736  -0.25868  -0.25414  -0.24348  -0.21524
 Alpha  occ. eigenvalues --   -0.19970
 Alpha virt. eigenvalues --   -0.06553  -0.03545  -0.00110   0.02011   0.04298
 Alpha virt. eigenvalues --    0.04692   0.04745   0.04891   0.05142   0.05898
 Alpha virt. eigenvalues --    0.06648   0.08068   0.09133   0.09561   0.09838

 Mulliken charges:
               1
     1  Mg   0.812257
     2  C    0.112276
     3  C   -0.213291
     4  C   -0.209824
     5  C   -0.185521
     6  N   -0.601924
     7  C    0.264834
     8  C   -0.135722
     9  C   -0.148824
    10  C    0.337127
    11  C   -0.307553
    12  C   -0.181545
    13  C   -0.239289
    14  C    0.581764
    15  O   -0.458737
    16  O   -0.457034
    17  N   -0.740061
    18  C    0.321784
    19  C    0.108895
    20  C    0.005085
    21  C    0.377083
    22  C   -0.417979
    23  C   -0.108988
    24  C   -0.252588
    25  N   -0.688242
    26  C    0.309029
    27  C    0.101205
    28  C    0.042186
    29  C    0.320900
    30  C   -0.374239
    31  C   -0.265661
    32  C   -0.301207
    33  N   -0.730182
    34  C    0.292878
    35  C    0.017055
    36  C    0.041435
    37  C    0.240090
    38  C   -0.391295
    39  C    0.338311
    40  O   -0.409341
    41  C   -0.358304
    42  C    0.590484
    43  O   -0.496716
    44  O   -0.393072
    45  C   -0.093785
    46  C    0.017150
    47  C   -0.158978
    48  C    0.199201
    49  C   -0.382642
    50  C   -0.235798
    51  C   -0.165392
    52  C   -0.156492
    53  C   -0.072562
    54  C   -0.312628
    55  C   -0.166637
    56  C   -0.176369
    57  C   -0.165583
    58  C   -0.062882
    59  C   -0.317777
    60  C   -0.158482
    61  C   -0.165614
    62  C   -0.167017
    63  C   -0.069876
    64  C   -0.308670
    65  C   -0.322407
    66  H    0.070841
    67  H    0.057266
    68  H    0.080132
    69  H    0.097390
    70  H    0.103277
    71  H    0.122138
    72  H    0.105459
    73  H    0.142676
    74  H    0.125216
    75  H    0.109536
    76  H    0.110048
    77  H    0.141662
    78  H    0.128451
    79  H    0.106421
    80  H    0.124156
    81  H    0.094032
    82  H    0.107359
    83  H    0.101176
    84  H    0.059478
    85  H    0.116133
    86  H    0.123168
    87  H    0.100264
    88  H    0.090863
    89  H    0.120726
    90  H    0.110245
    91  H    0.119554
    92  H    0.124314
    93  H    0.130763
    94  H    0.103220
    95  H    0.140400
    96  H    0.129286
    97  H    0.143715
    98  H    0.113084
    99  H    0.136394
   100  H    0.117083
   101  H    0.072659
   102  H    0.113484
   103  H    0.102314
   104  H    0.113093
   105  H    0.106357
   106  H    0.077231
   107  H    0.090729
   108  H    0.077351
   109  H    0.084310
   110  H    0.086109
   111  H    0.077853
   112  H    0.106286
   113  H    0.104230
   114  H    0.060581
   115  H    0.087773
   116  H    0.098373
   117  H    0.108532
   118  H    0.083274
   119  H    0.075479
   120  H    0.102447
   121  H    0.082627
   122  H    0.111665
   123  H    0.072930
   124  H    0.109408
   125  H    0.089097
   126  H    0.075479
   127  H    0.096230
   128  H    0.062165
   129  H    0.091720
   130  H    0.054641
   131  H    0.097783
   132  H    0.073153
   133  H    0.095893
   134  H    0.115637
   135  H    0.109086
   136  H    0.102252
   137  H    0.121546
 Sum of Mulliken charges =  -0.00000

 Dipole moment (field-independent basis, Debye):
    X=              2.5648    Y=              3.7993    Z=              0.5216  Tot=              4.6136
 Quadrupole moment (field-independent basis, Debye-Ang):
   XX=           -347.4007   YY=           -387.1572   ZZ=           -398.0193
   XY=            -20.6673   XZ=              3.4100   YZ=             -1.0884

 Normal termination of Gaussian 16 at Fri Sep  6 07:08:30 2019.
