 Gaussian 16, Revision A.03,
 Gaussian 16:  ES64L-G16RevA.03 25-Dec-2016

 ----------------------------------------------------------------------
 # td=(NStates=1) iop(3/107=0140000000,3/108=0140000000) CAM-B3LYP/6-31
 G(d,p)
 ----------------------------------------------------------------------

 --
 TD
 --
 Symbolic Z-matrix:
 Charge =  0 Multiplicity = 1

                         Standard orientation:
 ---------------------------------------------------------------------
 Center     Atomic      Atomic             Coordinates (Angstroms)
 Number     Number       Type             X           Y           Z
 ---------------------------------------------------------------------
      1         12           0       -7.173313    0.581739    0.113770
      2          6           0       -4.903487   -1.984710    0.526337
      3          6           0       -4.770718    2.735511    1.088590
      4          6           0       -9.462393    3.131102   -0.445746
      5          6           0       -9.663969   -1.722948   -0.735007
      6          7           0       -5.172426    0.404584    0.599283
      7          6           0       -4.335291   -0.668589    0.715143
      8          6           0       -2.967320   -0.456749    1.230857
      9          6           0       -3.041551    1.092014    1.648966
     10          6           0       -4.408855    1.462892    1.141545
     11          6           0       -2.996165    1.233615    3.191449
     12          6           0       -1.873247   -0.691938    0.146337
     13          6           0       -0.389284   -0.409024    0.648676
     14          6           0        0.555388   -0.686598   -0.532681
     15          8           0        0.179724   -0.948326   -1.675042
     16          8           0        1.835875   -0.352904   -0.140398
     17          7           0       -7.111549    2.689117    0.088745
     18          6           0       -6.086172    3.297821    0.698225
     19          6           0       -6.381711    4.715920    0.752171
     20          6           0       -7.636661    4.849074    0.284627
     21          6           0       -8.179631    3.564496   -0.083068
     22          6           0       -5.509638    5.861711    1.233114
     23          6           0       -8.503422    6.048925    0.397595
     24          6           0       -8.406436    7.278321    0.837466
     25          7           0       -9.108247    0.664473   -0.522673
     26          6           0       -9.843848    1.821232   -0.700365
     27          6           0      -11.209641    1.471166   -1.125501
     28          6           0      -11.297462    0.079557   -1.306350
     29          6           0       -9.980289   -0.380540   -0.863095
     30          6           0      -12.383581    2.493245   -1.419220
     31          6           0      -12.335757   -0.706650   -1.797489
     32          6           0      -12.030270   -1.266478   -3.226879
     33          7           0       -7.290724   -1.363068   -0.116725
     34          6           0       -8.277137   -2.199601   -0.430228
     35          6           0       -7.891087   -3.576668   -0.424353
     36          6           0       -6.534630   -3.586080   -0.039445
     37          6           0       -6.288834   -2.192950    0.136315
     38          6           0       -8.653177   -4.711312   -0.878256
     39          6           0       -5.361080   -4.351784    0.192887
     40          8           0       -5.265896   -5.654287    0.275912
     41          6           0       -4.347300   -3.281702    0.470136
     42          6           0       -3.502502   -3.684751    1.760641
     43          8           0       -3.703810   -3.120423    2.834869
     44          8           0       -2.766409   -4.764674    1.648464
     45          6           0       -2.207982   -5.263200    2.908637
     46          6           0        2.796810   -0.593348   -1.139041
     47          6           0        4.140062   -0.366982   -0.509071
     48          6           0        5.149723    0.352488   -1.014532
     49          6           0        5.149175    1.272071   -2.198847
     50          6           0        6.467156    0.471881   -0.240263
     51          6           0        7.539128   -0.122020   -0.888400
     52          6           0        8.880198   -0.117793   -0.048696
     53          6           0       10.185547   -0.574240   -0.859847
     54          6           0       10.056008   -1.977728   -1.295048
     55          6           0       11.425385   -0.352149    0.062831
     56          6           0       12.756212   -0.413650   -0.689264
     57          6           0       13.991577   -0.190750    0.256272
     58          6           0       15.400349   -0.293430   -0.554177
     59          6           0       15.748600   -1.731647   -0.958656
     60          6           0       16.533867    0.313986    0.400283
     61          6           0       17.928780    0.572332   -0.167328
     62          6           0       18.781503    1.274675    0.845382
     63          6           0       20.210293    1.381432    0.110762
     64          6           0       20.399803    2.183430   -1.144477
     65          6           0       21.151597    1.888302    1.211710
     66          1           0       -3.974908    3.652384    1.144774
     67          1           0      -10.122278    3.890631   -0.698193
     68          1           0      -10.268931   -2.578300   -0.924223
     69          1           0       -2.824437   -1.132649    1.934359
     70          1           0       -2.205243    1.741302    1.211118
     71          1           0       -1.990858    1.067122    3.582593
     72          1           0       -2.995354    2.241401    3.397499
     73          1           0       -3.730544    0.749848    3.795799
     74          1           0       -2.037394   -1.760460   -0.081474
     75          1           0       -2.223630   -0.139299   -0.899865
     76          1           0       -0.397544    0.635084    1.009785
     77          1           0       -0.194920   -1.163115    1.466951
     78          1           0       -5.658585    6.738320    0.683577
     79          1           0       -5.518969    5.951359    2.291871
     80          1           0       -4.564310    5.522204    1.180039
     81          1           0       -9.505708    5.934326   -0.360136
     82          1           0       -9.091814    8.231632    0.619585
     83          1           0       -7.565544    7.635156    1.487463
     84          1           0      -12.138998    3.078213   -2.215773
     85          1           0      -13.309186    1.875426   -1.840624
     86          1           0      -12.778310    2.976280   -0.454627
     87          1           0      -12.616495   -1.602422   -1.151983
     88          1           0      -13.295727   -0.188618   -1.723179
     89          1           0      -12.751437   -1.803415   -3.735057
     90          1           0      -11.769404   -0.447884   -4.011740
     91          1           0      -10.900495   -1.781553   -3.157963
     92          1           0       -9.029497   -4.733977   -1.884470
     93          1           0       -8.148669   -5.532616   -0.487860
     94          1           0       -9.598204   -4.699510   -0.229009
     95          1           0       -3.566452   -3.556701   -0.287267
     96          1           0       -1.504644   -4.768292    3.199687
     97          1           0       -2.974401   -5.419362    3.797304
     98          1           0       -1.559153   -6.103705    2.456262
     99          1           0        2.810514   -1.671175   -1.513584
    100          1           0        2.599834   -0.062797   -2.131391
    101          1           0        4.322100   -0.687160    0.502934
    102          1           0        4.291346    1.297551   -2.790989
    103          1           0        5.269208    2.216823   -1.706545
    104          1           0        6.027996    1.057078   -2.807790
    105          1           0        6.644131    1.576124   -0.022725
    106          1           0        6.367387    0.048805    0.716111
    107          1           0        7.280542   -1.150765   -1.081770
    108          1           0        8.094215    0.319119   -1.824963
    109          1           0        9.255157    0.826380    0.462870
    110          1           0        8.943369   -0.900326    0.567358
    111          1           0       10.314531    0.068273   -1.612286
    112          1           0        8.941422   -2.098825   -1.697383
    113          1           0       10.890705   -2.454823   -1.744819
    114          1           0        9.718503   -2.489211   -0.370751
    115          1           0       11.567476    0.567232    0.536258
    116          1           0       11.356855   -1.198112    0.756694
    117          1           0       12.841367   -1.405359   -1.047830
    118          1           0       12.849475    0.339216   -1.408857
    119          1           0       14.010330    0.842530    1.028437
    120          1           0       14.138789   -1.052758    0.830175
    121          1           0       15.402289    0.442875   -1.440839
    122          1           0       16.151387   -2.313608    0.030841
    123          1           0       14.959720   -2.302902   -1.423375
    124          1           0       16.592424   -1.798378   -1.440752
    125          1           0       15.964185    1.165983    0.679438
    126          1           0       16.536607   -0.281811    1.093492
    127          1           0       18.420021   -0.276915   -0.601122
    128          1           0       17.821177    1.251851   -1.012754
    129          1           0       18.491255    2.360736    1.161793
    130          1           0       18.984889    0.563517    1.797378
    131          1           0       20.461774    0.327703   -0.276851
    132          1           0       19.766249    3.284161   -1.034358
    133          1           0       21.355188    2.401941   -1.293274
    134          1           0       19.925935    1.568811   -2.084557
    135          1           0       21.183200    1.404511    2.143317
    136          1           0       22.260943    1.908910    0.893363
    137          1           0       21.104268    3.027145    1.708035
 ---------------------------------------------------------------------

 SCF Done:  E(RCAM-B3LYP) =  -2933.41806426     A.U. after   16 cycles

 Excitation energies and oscillator strengths:

 Excited State   1:      Singlet-A      1.8889 eV  656.38 nm  f=0.3270  <S**2>=0.000
     240 -> 243        0.18929
     241 -> 242        0.67867
 This state for optimization and/or second-order correction.
 Total Energy, E(TD-HF/TD-DFT) =  -2933.34864819
 Copying the excited state density for this state as the 1-particle RhoCI density.

 The electronic state is 1-A.
 Alpha  occ. eigenvalues --  -46.79866 -19.23180 -19.22940 -19.18097 -19.15856
 Alpha  occ. eigenvalues --  -19.14883 -14.38095 -14.35677 -14.35292 -14.35231
 Alpha  occ. eigenvalues --  -10.35704 -10.34227 -10.29810 -10.28021 -10.26832
 Alpha  occ. eigenvalues --  -10.26704 -10.25756 -10.25604 -10.25099 -10.25049
 Alpha  occ. eigenvalues --  -10.24841 -10.24816 -10.24688 -10.24321 -10.24309
 Alpha  occ. eigenvalues --  -10.24005 -10.23696 -10.23647 -10.23214 -10.23176
 Alpha  occ. eigenvalues --  -10.22945 -10.22773 -10.22692 -10.22675 -10.22625
 Alpha  occ. eigenvalues --  -10.22574 -10.22491 -10.22468 -10.22326 -10.22275
 Alpha  occ. eigenvalues --  -10.22114 -10.22074 -10.22058 -10.21966 -10.21939
 Alpha  occ. eigenvalues --  -10.21827 -10.21808 -10.21730 -10.21457 -10.21132
 Alpha  occ. eigenvalues --  -10.20960 -10.20805 -10.20711 -10.20656 -10.20398
 Alpha  occ. eigenvalues --  -10.20392 -10.20324 -10.20219 -10.20193 -10.20112
 Alpha  occ. eigenvalues --  -10.20111 -10.20024 -10.20021 -10.19652 -10.17874
 Alpha  occ. eigenvalues --   -3.08591  -1.83517  -1.83054  -1.83024  -1.13775
 Alpha  occ. eigenvalues --   -1.13312  -1.05132  -1.03268  -1.01322  -0.99991
 Alpha  occ. eigenvalues --   -0.98857  -0.98117  -0.96786  -0.88785  -0.87182
 Alpha  occ. eigenvalues --   -0.85243  -0.84798  -0.84632  -0.84476  -0.83836
 Alpha  occ. eigenvalues --   -0.83441  -0.83034  -0.82624  -0.82341  -0.81362
 Alpha  occ. eigenvalues --   -0.80147  -0.79423  -0.78610  -0.78473  -0.77589
 Alpha  occ. eigenvalues --   -0.77098  -0.76773  -0.76235  -0.75585  -0.74227
 Alpha  occ. eigenvalues --   -0.73851  -0.72809  -0.71890  -0.71505  -0.71211
 Alpha  occ. eigenvalues --   -0.70856  -0.70491  -0.69929  -0.69173  -0.68511
 Alpha  occ. eigenvalues --   -0.67403  -0.66327  -0.65315  -0.64493  -0.64049
 Alpha  occ. eigenvalues --   -0.62400  -0.61970  -0.61233  -0.61040  -0.60520
 Alpha  occ. eigenvalues --   -0.60172  -0.59937  -0.59649  -0.58721  -0.58352
 Alpha  occ. eigenvalues --   -0.57396  -0.56696  -0.56349  -0.55752  -0.55365
 Alpha  occ. eigenvalues --   -0.54551  -0.54356  -0.53478  -0.52757  -0.52560
 Alpha  occ. eigenvalues --   -0.52318  -0.52089  -0.51935  -0.51688  -0.51370
 Alpha  occ. eigenvalues --   -0.51033  -0.50652  -0.50518  -0.50221  -0.49751
 Alpha  occ. eigenvalues --   -0.49115  -0.48957  -0.48534  -0.48442  -0.47759
 Alpha  occ. eigenvalues --   -0.47506  -0.47482  -0.47438  -0.47236  -0.46963
 Alpha  occ. eigenvalues --   -0.46926  -0.46731  -0.46505  -0.46486  -0.46034
 Alpha  occ. eigenvalues --   -0.45715  -0.45372  -0.44992  -0.44912  -0.44778
 Alpha  occ. eigenvalues --   -0.44474  -0.44201  -0.43994  -0.43887  -0.43508
 Alpha  occ. eigenvalues --   -0.43495  -0.43458  -0.43324  -0.42946  -0.42641
 Alpha  occ. eigenvalues --   -0.42609  -0.42483  -0.42074  -0.41930  -0.41653
 Alpha  occ. eigenvalues --   -0.41612  -0.41264  -0.41080  -0.40947  -0.40718
 Alpha  occ. eigenvalues --   -0.40374  -0.40267  -0.40196  -0.40106  -0.39926
 Alpha  occ. eigenvalues --   -0.39917  -0.39837  -0.39404  -0.39207  -0.39079
 Alpha  occ. eigenvalues --   -0.38779  -0.38627  -0.38499  -0.38309  -0.38037
 Alpha  occ. eigenvalues --   -0.37869  -0.37737  -0.37470  -0.37125  -0.36946
 Alpha  occ. eigenvalues --   -0.36916  -0.36502  -0.36294  -0.36057  -0.35896
 Alpha  occ. eigenvalues --   -0.35661  -0.35366  -0.35323  -0.35002  -0.34572
 Alpha  occ. eigenvalues --   -0.34520  -0.34174  -0.33862  -0.33531  -0.33374
 Alpha  occ. eigenvalues --   -0.33257  -0.33102  -0.33023  -0.32781  -0.32547
 Alpha  occ. eigenvalues --   -0.32261  -0.32128  -0.31368  -0.31131  -0.30630
 Alpha  occ. eigenvalues --   -0.29625  -0.29266  -0.28665  -0.28064  -0.26985
 Alpha  occ. eigenvalues --   -0.26900  -0.26160  -0.25925  -0.25034  -0.21778
 Alpha  occ. eigenvalues --   -0.19759
 Alpha virt. eigenvalues --   -0.07834  -0.03481  -0.00681   0.02106   0.02797
 Alpha virt. eigenvalues --    0.03689   0.04488   0.05017   0.05229   0.05422
 Alpha virt. eigenvalues --    0.06399   0.08869   0.09043   0.09799   0.10095

 Mulliken charges:
               1
     1  Mg   0.820128
     2  C    0.130926
     3  C   -0.198849
     4  C   -0.143491
     5  C   -0.164824
     6  N   -0.628575
     7  C    0.310848
     8  C   -0.120584
     9  C   -0.163062
    10  C    0.347400
    11  C   -0.310703
    12  C   -0.179240
    13  C   -0.271853
    14  C    0.621788
    15  O   -0.454114
    16  O   -0.454013
    17  N   -0.687487
    18  C    0.301904
    19  C   -0.010048
    20  C    0.013599
    21  C    0.280493
    22  C   -0.357616
    23  C   -0.026307
    24  C   -0.285022
    25  N   -0.692732
    26  C    0.326680
    27  C   -0.020680
    28  C    0.121190
    29  C    0.283427
    30  C   -0.374213
    31  C   -0.275706
    32  C   -0.305776
    33  N   -0.712948
    34  C    0.261724
    35  C   -0.010602
    36  C    0.101210
    37  C    0.229084
    38  C   -0.388713
    39  C    0.341516
    40  O   -0.520820
    41  C   -0.364323
    42  C    0.598599
    43  O   -0.487608
    44  O   -0.424704
    45  C   -0.076070
    46  C    0.005273
    47  C   -0.147732
    48  C    0.110331
    49  C   -0.354648
    50  C   -0.220310
    51  C   -0.155700
    52  C   -0.194108
    53  C   -0.074083
    54  C   -0.314715
    55  C   -0.171417
    56  C   -0.183832
    57  C   -0.179857
    58  C   -0.086156
    59  C   -0.306200
    60  C   -0.151398
    61  C   -0.184476
    62  C   -0.148080
    63  C   -0.044462
    64  C   -0.271067
    65  C   -0.316505
    66  H    0.080309
    67  H    0.084862
    68  H    0.086274
    69  H    0.127930
    70  H    0.100034
    71  H    0.100694
    72  H    0.112338
    73  H    0.133902
    74  H    0.106656
    75  H    0.102905
    76  H    0.140803
    77  H    0.135861
    78  H    0.132385
    79  H    0.127928
    80  H    0.107201
    81  H    0.046879
    82  H    0.100442
    83  H    0.093324
    84  H    0.140534
    85  H    0.093836
    86  H    0.123290
    87  H    0.104959
    88  H    0.104411
    89  H    0.118197
    90  H    0.098339
    91  H    0.087864
    92  H    0.139639
    93  H    0.153806
    94  H    0.106559
    95  H    0.159855
    96  H    0.136980
    97  H    0.141652
    98  H    0.112811
    99  H    0.116606
   100  H    0.118479
   101  H    0.083937
   102  H    0.111376
   103  H    0.125768
   104  H    0.120593
   105  H    0.087488
   106  H    0.103446
   107  H    0.100816
   108  H    0.092260
   109  H    0.086476
   110  H    0.098559
   111  H    0.086860
   112  H    0.088328
   113  H    0.114436
   114  H    0.095718
   115  H    0.092618
   116  H    0.082785
   117  H    0.095734
   118  H    0.103210
   119  H    0.049597
   120  H    0.106011
   121  H    0.064938
   122  H    0.064197
   123  H    0.105325
   124  H    0.120101
   125  H    0.087401
   126  H    0.093887
   127  H    0.093199
   128  H    0.099981
   129  H    0.092664
   130  H    0.077687
   131  H    0.084174
   132  H    0.060248
   133  H    0.124963
   134  H    0.075972
   135  H    0.112332
   136  H    0.078560
   137  H    0.069116
 Sum of Mulliken charges =  -0.00000

 Dipole moment (field-independent basis, Debye):
    X=              2.1500    Y=              3.6506    Z=              0.7969  Tot=              4.3109
 Quadrupole moment (field-independent basis, Debye-Ang):
   XX=           -338.0307   YY=           -403.8980   ZZ=           -395.6576
   XY=            -24.2160   XZ=             10.9177   YZ=             -0.5041

 Normal termination of Gaussian 16 at Sun Sep 22 02:15:00 2019.
