 Gaussian 09, Revision D.01,
 Gaussian 09:  ES64L-G09RevD.01 24-Apr-2013

 -------------------------------------
 # td=(NStates=1) CAM-B3LYP/6-31G(d,p)
 -------------------------------------

 --
 TD
 --
 Symbolic Z-matrix:
 Charge =  0 Multiplicity = 1

                         Standard orientation:
 ---------------------------------------------------------------------
 Center     Atomic      Atomic             Coordinates (Angstroms)
 Number     Number       Type             X           Y           Z
 ---------------------------------------------------------------------
      1         12           0       -7.161728    0.625937    0.097944
      2          6           0       -4.831436   -1.974659    0.629189
      3          6           0       -4.870138    2.819357    1.132691
      4          6           0       -9.513975    3.021355   -0.484765
      5          6           0       -9.427828   -1.900836   -0.846535
      6          7           0       -5.207992    0.382748    0.745727
      7          6           0       -4.357202   -0.699115    0.825554
      8          6           0       -2.929126   -0.302991    1.297712
      9          6           0       -3.068016    1.184014    1.599125
     10          6           0       -4.470994    1.514647    1.131657
     11          6           0       -3.032926    1.322474    3.089115
     12          6           0       -1.926748   -0.610986    0.089866
     13          6           0       -0.466992   -0.446685    0.625841
     14          6           0        0.580340   -0.585717   -0.501653
     15          8           0        0.356009   -0.785834   -1.663421
     16          8           0        1.866940   -0.412005    0.057832
     17          7           0       -7.145686    2.568353    0.294639
     18          6           0       -6.190218    3.395368    0.758595
     19          6           0       -6.523208    4.659166    0.827107
     20          6           0       -7.794052    4.805841    0.260912
     21          6           0       -8.267741    3.448090    0.013506
     22          6           0       -5.674297    5.844554    1.329441
     23          6           0       -8.720236    5.971578    0.214862
     24          6           0       -8.696720    7.085931    0.970576
     25          7           0       -9.174891    0.616738   -0.468252
     26          6           0      -10.002030    1.727267   -0.651137
     27          6           0      -11.269993    1.339015   -1.230305
     28          6           0      -11.240273   -0.084250   -1.387406
     29          6           0       -9.879719   -0.509064   -0.862931
     30          6           0      -12.239885    2.327133   -1.654646
     31          6           0      -12.231346   -0.999080   -2.008630
     32          6           0      -12.119971   -1.124213   -3.516507
     33          7           0       -7.194147   -1.378047   -0.176688
     34          6           0       -8.149256   -2.309967   -0.572181
     35          6           0       -7.739549   -3.685373   -0.489024
     36          6           0       -6.451884   -3.569253   -0.053746
     37          6           0       -6.052285   -2.162633    0.127257
     38          6           0       -8.472782   -4.901239   -0.818544
     39          6           0       -5.278274   -4.353828    0.246569
     40          8           0       -5.128116   -5.612606    0.151788
     41          6           0       -4.147317   -3.277961    0.639584
     42          6           0       -3.418739   -3.568867    1.962275
     43          8           0       -3.643437   -3.069270    3.045700
     44          8           0       -2.646291   -4.631163    1.831264
     45          6           0       -2.090079   -5.119269    3.051386
     46          6           0        2.871429   -0.498574   -1.032460
     47          6           0        4.215496   -0.349011   -0.475972
     48          6           0        5.210907    0.556635   -0.853546
     49          6           0        5.022376    1.330619   -2.147643
     50          6           0        6.532920    0.628923   -0.216696
     51          6           0        7.581127    0.156269   -1.061733
     52          6           0        8.835466    0.141465   -0.213358
     53          6           0       10.192790   -0.535758   -0.881859
     54          6           0       10.027935   -2.032736   -1.196156
     55          6           0       11.360221   -0.267588   -0.048452
     56          6           0       12.691633   -0.582532   -0.672072
     57          6           0       14.011351   -0.126263    0.113514
     58          6           0       15.370422   -0.306155   -0.511236
     59          6           0       15.676805   -1.666734   -0.898793
     60          6           0       16.427158    0.323165    0.436473
     61          6           0       17.786085    0.561069   -0.241951
     62          6           0       18.774487    1.306023    0.604251
     63          6           0       20.219669    1.269139    0.228821
     64          6           0       20.421579    1.835807   -1.209395
     65          6           0       21.073347    1.987492    1.274349
     66          1           0       -4.298559    3.531173    1.652729
     67          1           0      -10.279789    3.848907   -0.754246
     68          1           0      -10.029574   -2.575477   -1.143750
     69          1           0       -2.470405   -0.901281    2.131887
     70          1           0       -2.342076    1.810542    1.171207
     71          1           0       -2.036888    0.985730    3.386619
     72          1           0       -3.189764    2.298770    3.267342
     73          1           0       -3.872198    0.835162    3.691916
     74          1           0       -2.007843   -1.576664   -0.489896
     75          1           0       -2.053869    0.172298   -0.681499
     76          1           0       -0.150856    0.563375    1.059290
     77          1           0       -0.262772   -1.072538    1.476342
     78          1           0       -6.052215    6.568663    0.677513
     79          1           0       -5.842399    6.145130    2.299187
     80          1           0       -4.572173    5.729871    1.195006
     81          1           0       -9.743581    5.963603   -0.390624
     82          1           0       -9.610984    7.761158    0.750640
     83          1           0       -7.859226    7.227712    1.489641
     84          1           0      -11.852921    2.810127   -2.778825
     85          1           0      -13.196058    1.995555   -1.866076
     86          1           0      -12.518856    3.139049   -0.958231
     87          1           0      -12.212356   -2.017844   -1.344989
     88          1           0      -13.238961   -0.577981   -1.891897
     89          1           0      -13.001792   -1.636361   -4.175442
     90          1           0      -12.041457   -0.204142   -4.146152
     91          1           0      -11.135650   -1.776635   -3.572661
     92          1           0       -8.953833   -4.949881   -1.828318
     93          1           0       -7.973608   -5.833269   -0.437344
     94          1           0       -9.249587   -5.091597    0.014583
     95          1           0       -3.498418   -3.480156   -0.172383
     96          1           0       -1.772404   -4.173207    3.728873
     97          1           0       -2.768794   -5.898826    3.613138
     98          1           0       -1.552788   -5.841646    2.901216
     99          1           0        2.894340   -1.532000   -1.236625
    100          1           0        2.963129    0.192914   -1.851475
    101          1           0        4.239690   -0.836781    0.326995
    102          1           0        4.118478    1.382305   -2.712621
    103          1           0        5.293376    2.353957   -2.078645
    104          1           0        5.608764    0.949273   -3.065434
    105          1           0        6.808576    1.728539    0.076740
    106          1           0        6.482935    0.246623    0.850995
    107          1           0        7.473902   -0.914518   -1.274990
    108          1           0        7.609399    0.917892   -1.934090
    109          1           0        9.306180    1.239277   -0.041613
    110          1           0        8.798923   -0.336353    0.687866
    111          1           0       10.449753   -0.075112   -1.810900
    112          1           0        9.271302   -2.248366   -2.027734
    113          1           0       10.935878   -2.527439   -1.554115
    114          1           0        9.580256   -2.747127   -0.423036
    115          1           0       11.347529    0.756404    0.264363
    116          1           0       11.511604   -0.818574    0.948231
    117          1           0       12.766358   -1.632998   -0.633110
    118          1           0       12.597011   -0.134592   -1.730271
    119          1           0       13.897100    0.872338    0.274460
    120          1           0       14.122149   -0.643700    1.123577
    121          1           0       15.187856    0.233052   -1.466160
    122          1           0       15.566374   -2.252092   -0.194074
    123          1           0       15.082096   -2.183176   -1.785584
    124          1           0       16.466478   -1.927859   -1.526317
    125          1           0       16.120607    1.223732    0.998502
    126          1           0       16.609637   -0.440409    1.300036
    127          1           0       18.319266   -0.380773   -0.508280
    128          1           0       17.748395    1.192657   -1.080671
    129          1           0       18.543876    2.392591    0.944633
    130          1           0       19.061314    0.603330    1.529836
    131          1           0       20.471718    0.087326    0.154750
    132          1           0       20.034205    2.933436   -1.272493
    133          1           0       21.530100    1.649613   -1.692762
    134          1           0       19.506856    1.538003   -1.775946
    135          1           0       20.680347    1.598034    2.287380
    136          1           0       22.275270    1.912355    1.156293
    137          1           0       20.890694    3.029769    1.103506
 ---------------------------------------------------------------------

 SCF Done:  E(RCAM-B3LYP) =  -2932.59486558     A.U. after   16 cycles

 Excitation energies and oscillator strengths:

 Excited State   1:      Singlet-A      2.0406 eV  607.59 nm  f=0.3004  <S**2>=0.000
     240 -> 243       -0.23570
     241 -> 242        0.65627
 This state for optimization and/or second-order correction.
 Total Energy, E(TD-HF/TD-KS) =  -2932.51987537
 Copying the excited state density for this state as the 1-particle RhoCI density.

 The electronic state is 1-A.
 Alpha  occ. eigenvalues --  -46.82978 -19.26997 -19.25962 -19.22024 -19.20833
 Alpha  occ. eigenvalues --  -19.20822 -14.41812 -14.39622 -14.39497 -14.38725
 Alpha  occ. eigenvalues --  -10.39657 -10.39356 -10.35909 -10.31949 -10.30979
 Alpha  occ. eigenvalues --  -10.30199 -10.30026 -10.29970 -10.29587 -10.29408
 Alpha  occ. eigenvalues --  -10.29209 -10.29129 -10.28819 -10.28786 -10.28374
 Alpha  occ. eigenvalues --  -10.28370 -10.28353 -10.28030 -10.28014 -10.27966
 Alpha  occ. eigenvalues --  -10.27810 -10.27674 -10.27662 -10.27409 -10.27309
 Alpha  occ. eigenvalues --  -10.26970 -10.26955 -10.26885 -10.26824 -10.26611
 Alpha  occ. eigenvalues --  -10.26348 -10.26272 -10.26221 -10.26064 -10.26014
 Alpha  occ. eigenvalues --  -10.25986 -10.25967 -10.25902 -10.25899 -10.25796
 Alpha  occ. eigenvalues --  -10.25794 -10.25772 -10.25590 -10.25487 -10.25221
 Alpha  occ. eigenvalues --  -10.25155 -10.25036 -10.25030 -10.24961 -10.24920
 Alpha  occ. eigenvalues --  -10.24602 -10.24485 -10.24097 -10.24090 -10.22432
 Alpha  occ. eigenvalues --   -3.12237  -1.86922  -1.86479  -1.86444  -1.19694
 Alpha  occ. eigenvalues --   -1.16725  -1.09276  -1.09152  -1.08390  -1.03777
 Alpha  occ. eigenvalues --   -1.02659  -1.02221  -1.00848  -0.94016  -0.92334
 Alpha  occ. eigenvalues --   -0.91373  -0.90307  -0.90088  -0.89097  -0.88765
 Alpha  occ. eigenvalues --   -0.88393  -0.88151  -0.87842  -0.87615  -0.86917
 Alpha  occ. eigenvalues --   -0.85612  -0.84428  -0.84012  -0.83192  -0.82876
 Alpha  occ. eigenvalues --   -0.82373  -0.81866  -0.80632  -0.80501  -0.78761
 Alpha  occ. eigenvalues --   -0.77863  -0.77699  -0.77037  -0.76348  -0.76174
 Alpha  occ. eigenvalues --   -0.75528  -0.74931  -0.74266  -0.73667  -0.72648
 Alpha  occ. eigenvalues --   -0.71836  -0.70849  -0.69232  -0.68841  -0.68310
 Alpha  occ. eigenvalues --   -0.66721  -0.66596  -0.65696  -0.65072  -0.64814
 Alpha  occ. eigenvalues --   -0.64545  -0.63364  -0.63107  -0.63016  -0.62433
 Alpha  occ. eigenvalues --   -0.61714  -0.60419  -0.60338  -0.60050  -0.59684
 Alpha  occ. eigenvalues --   -0.58858  -0.58276  -0.57975  -0.57523  -0.57240
 Alpha  occ. eigenvalues --   -0.56589  -0.56407  -0.55940  -0.55636  -0.55166
 Alpha  occ. eigenvalues --   -0.54999  -0.54553  -0.54099  -0.53819  -0.53521
 Alpha  occ. eigenvalues --   -0.53040  -0.52947  -0.52658  -0.52178  -0.51857
 Alpha  occ. eigenvalues --   -0.51666  -0.51449  -0.51415  -0.51150  -0.50668
 Alpha  occ. eigenvalues --   -0.50354  -0.50077  -0.50061  -0.49866  -0.49501
 Alpha  occ. eigenvalues --   -0.49431  -0.49234  -0.48876  -0.48802  -0.48267
 Alpha  occ. eigenvalues --   -0.48100  -0.47886  -0.47667  -0.47508  -0.47364
 Alpha  occ. eigenvalues --   -0.47132  -0.46715  -0.46626  -0.46287  -0.46085
 Alpha  occ. eigenvalues --   -0.45999  -0.45892  -0.45608  -0.45501  -0.45145
 Alpha  occ. eigenvalues --   -0.44881  -0.44636  -0.44459  -0.44296  -0.43907
 Alpha  occ. eigenvalues --   -0.43840  -0.43617  -0.43342  -0.43212  -0.42951
 Alpha  occ. eigenvalues --   -0.42840  -0.42772  -0.42724  -0.42538  -0.42508
 Alpha  occ. eigenvalues --   -0.42043  -0.41881  -0.41327  -0.41299  -0.41269
 Alpha  occ. eigenvalues --   -0.41133  -0.40917  -0.40368  -0.40254  -0.39937
 Alpha  occ. eigenvalues --   -0.39907  -0.39545  -0.39363  -0.39223  -0.39045
 Alpha  occ. eigenvalues --   -0.38873  -0.38628  -0.38564  -0.38118  -0.38048
 Alpha  occ. eigenvalues --   -0.37195  -0.37113  -0.36898  -0.36855  -0.36652
 Alpha  occ. eigenvalues --   -0.36522  -0.36073  -0.36004  -0.35744  -0.35727
 Alpha  occ. eigenvalues --   -0.35430  -0.34888  -0.34247  -0.34093  -0.33858
 Alpha  occ. eigenvalues --   -0.33764  -0.33519  -0.32399  -0.30954  -0.30348
 Alpha  occ. eigenvalues --   -0.29722  -0.28676  -0.27645  -0.27035  -0.23477
 Alpha  occ. eigenvalues --   -0.21536
 Alpha virt. eigenvalues --   -0.06920  -0.03445   0.00719   0.04746   0.04939
 Alpha virt. eigenvalues --    0.05571   0.06302   0.06862   0.07082   0.07172
 Alpha virt. eigenvalues --    0.08267   0.10515   0.11202   0.11348   0.11528

 Mulliken charges:
               1
     1  Mg   0.808099
     2  C    0.100729
     3  C   -0.196343
     4  C   -0.162966
     5  C   -0.123518
     6  N   -0.647404
     7  C    0.314609
     8  C   -0.151653
     9  C   -0.138219
    10  C    0.337702
    11  C   -0.297275
    12  C   -0.188868
    13  C   -0.277979
    14  C    0.615939
    15  O   -0.449392
    16  O   -0.519222
    17  N   -0.725865
    18  C    0.337739
    19  C   -0.008556
    20  C    0.013761
    21  C    0.245557
    22  C   -0.368894
    23  C   -0.094157
    24  C   -0.216074
    25  N   -0.671161
    26  C    0.283572
    27  C    0.063393
    28  C    0.008725
    29  C    0.282708
    30  C   -0.381617
    31  C   -0.249590
    32  C   -0.286847
    33  N   -0.721924
    34  C    0.271326
    35  C    0.108077
    36  C    0.007229
    37  C    0.272092
    38  C   -0.409992
    39  C    0.343165
    40  O   -0.486246
    41  C   -0.333807
    42  C    0.626886
    43  O   -0.481245
    44  O   -0.434140
    45  C   -0.051391
    46  C    0.054786
    47  C   -0.136363
    48  C    0.130927
    49  C   -0.405811
    50  C   -0.234480
    51  C   -0.151477
    52  C   -0.181615
    53  C   -0.058433
    54  C   -0.330880
    55  C   -0.161836
    56  C   -0.186501
    57  C   -0.183077
    58  C   -0.052946
    59  C   -0.296166
    60  C   -0.177472
    61  C   -0.164463
    62  C   -0.171858
    63  C   -0.043387
    64  C   -0.308569
    65  C   -0.287329
    66  H    0.070780
    67  H    0.100900
    68  H    0.051357
    69  H    0.126918
    70  H    0.117136
    71  H    0.099873
    72  H    0.110663
    73  H    0.123586
    74  H    0.124092
    75  H    0.122464
    76  H    0.132501
    77  H    0.139316
    78  H    0.129538
    79  H    0.132165
    80  H    0.109061
    81  H    0.080312
    82  H    0.102482
    83  H    0.088331
    84  H    0.089056
    85  H    0.121910
    86  H    0.121183
    87  H    0.094022
    88  H    0.108227
    89  H    0.083737
    90  H    0.117707
    91  H    0.092112
    92  H    0.139861
    93  H    0.157495
    94  H    0.124811
    95  H    0.167776
    96  H    0.133670
    97  H    0.093859
    98  H    0.115522
    99  H    0.124667
   100  H    0.111965
   101  H    0.073876
   102  H    0.125917
   103  H    0.120270
   104  H    0.110950
   105  H    0.089143
   106  H    0.101250
   107  H    0.110942
   108  H    0.105704
   109  H    0.066593
   110  H    0.114244
   111  H    0.090266
   112  H    0.088290
   113  H    0.109719
   114  H    0.091608
   115  H    0.084586
   116  H    0.073191
   117  H    0.110573
   118  H    0.069106
   119  H    0.099167
   120  H    0.069855
   121  H    0.079449
   122  H    0.107798
   123  H    0.071340
   124  H    0.109444
   125  H    0.098000
   126  H    0.080828
   127  H    0.100491
   128  H    0.103310
   129  H    0.080180
   130  H    0.070694
   131  H    0.059543
   132  H    0.076362
   133  H    0.092570
   134  H    0.097557
   135  H    0.092162
   136  H    0.084648
   137  H    0.111305
 Sum of Mulliken charges =   0.00000

 Dipole moment (field-independent basis, Debye):
    X=              0.8438    Y=              2.7679    Z=             -0.2294  Tot=              2.9027
 Quadrupole moment (field-independent basis, Debye-Ang):
   XX=           -353.4666   YY=           -389.8518   ZZ=           -398.0955
   XY=            -14.1223   XZ=             11.6205   YZ=             -3.3427

 Normal termination of Gaussian 09 at Thu Jul  4 02:12:21 2019.
