 Gaussian 16, Revision A.03,
 Gaussian 16:  ES64L-G16RevA.03 25-Dec-2016

 ----------------------------------------------------------------------
 # td=(NStates=1) iop(3/107=0140000000,3/108=0140000000) CAM-B3LYP/6-31
 G(d,p)
 ----------------------------------------------------------------------

 --
 TD
 --
 Symbolic Z-matrix:
 Charge =  0 Multiplicity = 1

                         Standard orientation:
 ---------------------------------------------------------------------
 Center     Atomic      Atomic             Coordinates (Angstroms)
 Number     Number       Type             X           Y           Z
 ---------------------------------------------------------------------
      1         12           0       -7.190834    0.679382    0.058656
      2          6           0       -4.792519   -1.979097    0.521527
      3          6           0       -4.591563    2.882141    0.972668
      4          6           0       -9.352208    3.141799   -0.416415
      5          6           0       -9.505062   -1.681608   -0.967089
      6          7           0       -5.100448    0.534711    0.562293
      7          6           0       -4.392259   -0.712178    0.733913
      8          6           0       -2.999522   -0.408995    1.164214
      9          6           0       -3.014385    1.062504    1.640836
     10          6           0       -4.306916    1.473738    1.017565
     11          6           0       -3.027729    1.246808    3.154714
     12          6           0       -1.993345   -0.632677    0.011192
     13          6           0       -0.541431   -0.527238    0.534711
     14          6           0        0.478612   -0.757961   -0.681680
     15          8           0        0.309371   -1.104999   -1.785454
     16          8           0        1.716614   -0.558360   -0.220776
     17          7           0       -7.029215    2.643612    0.283661
     18          6           0       -5.948675    3.466189    0.752778
     19          6           0       -6.378418    4.809497    0.755936
     20          6           0       -7.688427    4.901088    0.357728
     21          6           0       -8.096948    3.484288    0.038833
     22          6           0       -5.584994    5.963340    1.192828
     23          6           0       -8.494128    5.985834    0.123185
     24          6           0       -8.442406    7.348778    0.688431
     25          7           0       -9.127533    0.666841   -0.496505
     26          6           0       -9.913493    1.776701   -0.568477
     27          6           0      -11.258444    1.457933   -1.030992
     28          6           0      -11.292116    0.019975   -1.268415
     29          6           0       -9.902466   -0.405063   -0.899932
     30          6           0      -12.309413    2.515569   -1.298480
     31          6           0      -12.309507   -0.811427   -1.619183
     32          6           0      -12.320138   -1.308187   -3.038247
     33          7           0       -7.175406   -1.324891   -0.233392
     34          6           0       -8.254413   -2.244616   -0.648335
     35          6           0       -7.883434   -3.633054   -0.547428
     36          6           0       -6.484428   -3.511421   -0.155534
     37          6           0       -6.191021   -2.128867    0.051760
     38          6           0       -8.655614   -4.836887   -0.933841
     39          6           0       -5.359973   -4.320814    0.167303
     40          8           0       -5.285993   -5.532736    0.165681
     41          6           0       -4.172306   -3.346515    0.607498
     42          6           0       -3.623995   -3.765325    1.951925
     43          8           0       -3.894430   -3.201878    3.017555
     44          8           0       -2.851986   -4.879419    1.879683
     45          6           0       -2.197732   -5.135008    3.250928
     46          6           0        2.853359   -0.653848   -1.281227
     47          6           0        4.087969   -0.473395   -0.519810
     48          6           0        5.108378    0.304714   -0.976947
     49          6           0        4.996059    1.176887   -2.097365
     50          6           0        6.345093    0.332102   -0.132976
     51          6           0        7.532182   -0.165263   -0.863642
     52          6           0        8.927760   -0.067137   -0.178597
     53          6           0       10.276026   -0.464448   -0.792947
     54          6           0       10.140109   -1.800697   -1.409771
     55          6           0       11.430369   -0.254229    0.035581
     56          6           0       12.754103   -0.459790   -0.635046
     57          6           0       13.953104   -0.026530    0.245861
     58          6           0       15.364202   -0.102950   -0.437237
     59          6           0       15.707117   -1.547286   -0.974879
     60          6           0       16.504422    0.444425    0.512049
     61          6           0       17.844209    0.525398   -0.173331
     62          6           0       18.851789    1.258416    0.743267
     63          6           0       20.368364    1.186715    0.209876
     64          6           0       20.435454    1.891375   -1.112339
     65          6           0       21.227765    1.838965    1.220051
     66          1           0       -3.823601    3.591526    1.287493
     67          1           0      -10.148555    3.944853   -0.471942
     68          1           0      -10.304074   -2.565611   -1.345812
     69          1           0       -2.624329   -0.933802    2.055695
     70          1           0       -2.164099    1.615531    1.082732
     71          1           0       -2.024990    0.770631    3.532797
     72          1           0       -2.968682    2.314783    3.586523
     73          1           0       -3.790678    0.594329    3.649144
     74          1           0       -2.254527   -1.631613   -0.470793
     75          1           0       -2.093827    0.333336   -0.648556
     76          1           0       -0.200676    0.572262    0.890795
     77          1           0       -0.023270   -1.288959    1.262737
     78          1           0       -5.902416    6.853794    0.992710
     79          1           0       -5.536082    5.922441    2.422117
     80          1           0       -4.486089    5.860944    1.038189
     81          1           0       -9.298468    5.849189   -0.580221
     82          1           0       -9.136156    7.861450    0.404276
     83          1           0       -7.588955    7.658632    1.444573
     84          1           0      -12.028803    3.244733   -2.036883
     85          1           0      -13.256779    2.060111   -1.425068
     86          1           0      -12.494773    3.164798   -0.401611
     87          1           0      -12.374868   -1.622996   -0.919092
     88          1           0      -13.360231   -0.166991   -1.407829
     89          1           0      -13.351353   -2.119815   -3.195709
     90          1           0      -12.403378   -0.377956   -3.676133
     91          1           0      -11.432915   -1.876751   -3.365711
     92          1           0       -9.096744   -4.561066   -1.926420
     93          1           0       -8.119487   -5.726120   -1.112772
     94          1           0       -9.610793   -4.932911   -0.214367
     95          1           0       -3.337559   -3.503385   -0.167942
     96          1           0       -1.565162   -4.244043    3.459471
     97          1           0       -3.101324   -5.234493    3.850650
     98          1           0       -1.712180   -5.998626    2.648514
     99          1           0        2.866413   -1.784331   -1.701273
    100          1           0        2.649056    0.027682   -2.003537
    101          1           0        4.247485   -1.025825    0.296342
    102          1           0        4.061852    1.359684   -2.565162
    103          1           0        5.480958    2.244198   -1.911255
    104          1           0        5.651544    0.608896   -2.668472
    105          1           0        6.556133    1.503297    0.099575
    106          1           0        6.161356   -0.333063    0.703549
    107          1           0        7.215694   -1.165540   -1.146984
    108          1           0        7.555817    0.307285   -1.894286
    109          1           0        8.977902    0.971836    0.228811
    110          1           0        8.753673   -0.606394    0.835969
    111          1           0       10.522082    0.141946   -1.674700
    112          1           0        9.415903   -1.891718   -2.305239
    113          1           0       11.171559   -1.978042   -1.845683
    114          1           0       10.078437   -2.490134   -0.520434
    115          1           0       11.584998    0.901420    0.246112
    116          1           0       11.264279   -0.906456    1.134860
    117          1           0       12.982784   -1.483994   -0.923275
    118          1           0       12.780046    0.213693   -1.539029
    119          1           0       13.844612    1.031126    0.478857
    120          1           0       13.927932   -0.696910    1.177495
    121          1           0       15.134347    0.425795   -1.389996
    122          1           0       15.864239   -2.170711   -0.060142
    123          1           0       15.091055   -2.043237   -1.566183
    124          1           0       16.763532   -1.759145   -1.378014
    125          1           0       16.094711    1.481665    0.742132
    126          1           0       16.613532   -0.197271    1.306559
    127          1           0       18.313309   -0.565409   -0.410463
    128          1           0       17.678979    1.133150   -1.083317
    129          1           0       18.570940    2.232458    0.825258
    130          1           0       18.777692    0.642946    1.693066
    131          1           0       20.803192    0.173507    0.349899
    132          1           0       20.133833    2.912399   -1.190227
    133          1           0       21.498869    1.799413   -1.389563
    134          1           0       19.610861    1.443099   -1.824318
    135          1           0       21.161126    1.563917    2.440565
    136          1           0       22.465901    1.927408    0.901994
    137          1           0       21.216703    3.051790    1.337194
 ---------------------------------------------------------------------

 SCF Done:  E(RCAM-B3LYP) =  -2933.46932562     A.U. after   16 cycles

 Excitation energies and oscillator strengths:

 Excited State   1:      Singlet-A      2.0451 eV  606.25 nm  f=0.2146  <S**2>=0.000
     240 -> 243        0.20960
     241 -> 242        0.65818
 This state for optimization and/or second-order correction.
 Total Energy, E(TD-HF/TD-DFT) =  -2933.39416978
 Copying the excited state density for this state as the 1-particle RhoCI density.

 The electronic state is 1-A.
 Alpha  occ. eigenvalues --  -46.79356 -19.20890 -19.19906 -19.15823 -19.15527
 Alpha  occ. eigenvalues --  -19.14556 -14.37652 -14.35541 -14.35502 -14.35442
 Alpha  occ. eigenvalues --  -10.33662 -10.32802 -10.28964 -10.27497 -10.27397
 Alpha  occ. eigenvalues --  -10.26897 -10.26576 -10.25747 -10.25728 -10.25355
 Alpha  occ. eigenvalues --  -10.25088 -10.24742 -10.24375 -10.24334 -10.24276
 Alpha  occ. eigenvalues --  -10.24234 -10.24080 -10.23920 -10.23633 -10.23565
 Alpha  occ. eigenvalues --  -10.23565 -10.23481 -10.23341 -10.23116 -10.23082
 Alpha  occ. eigenvalues --  -10.22921 -10.22898 -10.22666 -10.22629 -10.22619
 Alpha  occ. eigenvalues --  -10.22615 -10.22614 -10.22602 -10.22586 -10.22503
 Alpha  occ. eigenvalues --  -10.22430 -10.22410 -10.22320 -10.22005 -10.21925
 Alpha  occ. eigenvalues --  -10.21883 -10.21650 -10.21633 -10.21604 -10.21440
 Alpha  occ. eigenvalues --  -10.21423 -10.21350 -10.21187 -10.21076 -10.20953
 Alpha  occ. eigenvalues --  -10.20900 -10.20555 -10.20119 -10.19988 -10.19565
 Alpha  occ. eigenvalues --   -3.08106  -1.83034  -1.82614  -1.82495  -1.12429
 Alpha  occ. eigenvalues --   -1.10775  -1.04839  -1.02984  -1.01963  -0.99115
 Alpha  occ. eigenvalues --   -0.97903  -0.97261  -0.96565  -0.87968  -0.86785
 Alpha  occ. eigenvalues --   -0.86661  -0.85429  -0.84980  -0.84730  -0.84490
 Alpha  occ. eigenvalues --   -0.83192  -0.83102  -0.82162  -0.81886  -0.81349
 Alpha  occ. eigenvalues --   -0.80207  -0.79496  -0.78597  -0.78382  -0.77351
 Alpha  occ. eigenvalues --   -0.77019  -0.75905  -0.75810  -0.75053  -0.73573
 Alpha  occ. eigenvalues --   -0.72958  -0.72443  -0.71985  -0.70952  -0.70810
 Alpha  occ. eigenvalues --   -0.70678  -0.70345  -0.69642  -0.68665  -0.68195
 Alpha  occ. eigenvalues --   -0.66865  -0.66180  -0.65028  -0.64779  -0.63997
 Alpha  occ. eigenvalues --   -0.62476  -0.61412  -0.60581  -0.59991  -0.59792
 Alpha  occ. eigenvalues --   -0.58625  -0.58616  -0.58338  -0.57791  -0.57181
 Alpha  occ. eigenvalues --   -0.57147  -0.56249  -0.56070  -0.55558  -0.55153
 Alpha  occ. eigenvalues --   -0.54552  -0.53880  -0.53433  -0.52610  -0.52417
 Alpha  occ. eigenvalues --   -0.52214  -0.51885  -0.51214  -0.51109  -0.50782
 Alpha  occ. eigenvalues --   -0.50559  -0.50252  -0.49927  -0.49503  -0.49030
 Alpha  occ. eigenvalues --   -0.48739  -0.48525  -0.48388  -0.48221  -0.47992
 Alpha  occ. eigenvalues --   -0.47854  -0.47710  -0.47534  -0.47141  -0.46831
 Alpha  occ. eigenvalues --   -0.46593  -0.46517  -0.46213  -0.45943  -0.45691
 Alpha  occ. eigenvalues --   -0.45511  -0.45344  -0.45082  -0.44898  -0.44644
 Alpha  occ. eigenvalues --   -0.44577  -0.44414  -0.44164  -0.43935  -0.43644
 Alpha  occ. eigenvalues --   -0.43576  -0.43139  -0.43092  -0.42706  -0.42403
 Alpha  occ. eigenvalues --   -0.42238  -0.42156  -0.41852  -0.41700  -0.41429
 Alpha  occ. eigenvalues --   -0.41255  -0.41095  -0.40859  -0.40746  -0.40598
 Alpha  occ. eigenvalues --   -0.40391  -0.40303  -0.40241  -0.40046  -0.39763
 Alpha  occ. eigenvalues --   -0.39488  -0.39412  -0.39379  -0.39227  -0.38893
 Alpha  occ. eigenvalues --   -0.38877  -0.38725  -0.38395  -0.38322  -0.38267
 Alpha  occ. eigenvalues --   -0.37811  -0.37697  -0.37474  -0.37293  -0.37208
 Alpha  occ. eigenvalues --   -0.36774  -0.36688  -0.36475  -0.36336  -0.36001
 Alpha  occ. eigenvalues --   -0.35934  -0.35576  -0.35537  -0.35046  -0.34505
 Alpha  occ. eigenvalues --   -0.34409  -0.34038  -0.33916  -0.33570  -0.33425
 Alpha  occ. eigenvalues --   -0.33305  -0.32902  -0.32639  -0.32614  -0.32366
 Alpha  occ. eigenvalues --   -0.32181  -0.32096  -0.32009  -0.30677  -0.30522
 Alpha  occ. eigenvalues --   -0.29626  -0.29316  -0.29019  -0.28156  -0.26315
 Alpha  occ. eigenvalues --   -0.26011  -0.25732  -0.25247  -0.24244  -0.21567
 Alpha  occ. eigenvalues --   -0.20387
 Alpha virt. eigenvalues --   -0.07355  -0.04344   0.00075   0.01611   0.03830
 Alpha virt. eigenvalues --    0.03909   0.04762   0.05129   0.05515   0.06218
 Alpha virt. eigenvalues --    0.07046   0.07828   0.08689   0.09209   0.09528

 Mulliken charges:
               1
     1  Mg   0.814636
     2  C    0.124080
     3  C   -0.202808
     4  C   -0.187464
     5  C   -0.188020
     6  N   -0.604808
     7  C    0.263801
     8  C   -0.164966
     9  C   -0.142764
    10  C    0.367750
    11  C   -0.310344
    12  C   -0.149628
    13  C   -0.264822
    14  C    0.574045
    15  O   -0.451385
    16  O   -0.494040
    17  N   -0.729031
    18  C    0.281768
    19  C    0.040617
    20  C    0.085128
    21  C    0.336859
    22  C   -0.366947
    23  C   -0.163835
    24  C   -0.198047
    25  N   -0.696242
    26  C    0.299205
    27  C   -0.000997
    28  C    0.111742
    29  C    0.314026
    30  C   -0.386278
    31  C   -0.291875
    32  C   -0.279553
    33  N   -0.730393
    34  C    0.210350
    35  C    0.083205
    36  C   -0.014601
    37  C    0.345016
    38  C   -0.380028
    39  C    0.336370
    40  O   -0.473600
    41  C   -0.338403
    42  C    0.634328
    43  O   -0.498807
    44  O   -0.476794
    45  C   -0.100924
    46  C    0.016194
    47  C   -0.111713
    48  C    0.121074
    49  C   -0.354871
    50  C   -0.206778
    51  C   -0.183492
    52  C   -0.157812
    53  C   -0.041760
    54  C   -0.298265
    55  C   -0.130869
    56  C   -0.194108
    57  C   -0.170869
    58  C   -0.064351
    59  C   -0.326676
    60  C   -0.161546
    61  C   -0.176420
    62  C   -0.157854
    63  C   -0.038352
    64  C   -0.307806
    65  C   -0.284287
    66  H    0.073214
    67  H    0.082824
    68  H    0.079288
    69  H    0.113812
    70  H    0.094666
    71  H    0.096087
    72  H    0.110306
    73  H    0.136759
    74  H    0.120009
    75  H    0.106328
    76  H    0.121698
    77  H    0.130424
    78  H    0.121344
    79  H    0.096223
    80  H    0.115940
    81  H    0.096348
    82  H    0.087951
    83  H    0.100581
    84  H    0.131593
    85  H    0.114832
    86  H    0.114521
    87  H    0.123012
    88  H    0.077865
    89  H    0.060772
    90  H    0.113039
    91  H    0.118736
    92  H    0.121831
    93  H    0.157003
    94  H    0.114924
    95  H    0.151216
    96  H    0.137856
    97  H    0.165565
    98  H    0.145147
    99  H    0.116424
   100  H    0.124208
   101  H    0.079299
   102  H    0.120039
   103  H    0.099280
   104  H    0.139567
   105  H    0.076152
   106  H    0.103062
   107  H    0.095733
   108  H    0.078962
   109  H    0.081973
   110  H    0.071100
   111  H    0.078866
   112  H    0.103980
   113  H    0.089608
   114  H    0.093091
   115  H    0.080342
   116  H    0.046224
   117  H    0.107690
   118  H    0.086226
   119  H    0.086371
   120  H    0.081218
   121  H    0.078471
   122  H    0.085793
   123  H    0.112067
   124  H    0.089265
   125  H    0.086487
   126  H    0.104759
   127  H    0.076865
   128  H    0.090351
   129  H    0.101866
   130  H    0.078471
   131  H    0.102635
   132  H    0.115940
   133  H    0.103531
   134  H    0.092597
   135  H    0.080868
   136  H    0.053022
   137  H    0.070922
 Sum of Mulliken charges =  -0.00000

 Dipole moment (field-independent basis, Debye):
    X=              1.7699    Y=              5.3676    Z=              0.0259  Tot=              5.6520
 Quadrupole moment (field-independent basis, Debye-Ang):
   XX=           -346.7761   YY=           -396.2227   ZZ=           -399.7034
   XY=            -23.2044   XZ=              4.3523   YZ=             -0.5117

 Normal termination of Gaussian 16 at Mon Sep 23 22:46:13 2019.
