 Gaussian 16, Revision A.03,
 Gaussian 16:  ES64L-G16RevA.03 25-Dec-2016

 ----------------------------------------------------------------------
 # td=(NStates=1) iop(3/107=0140000000,3/108=0140000000) CAM-B3LYP/6-31
 G(d,p)
 ----------------------------------------------------------------------

 --
 TD
 --
 Symbolic Z-matrix:
 Charge =  0 Multiplicity = 1

                         Standard orientation:
 ---------------------------------------------------------------------
 Center     Atomic      Atomic             Coordinates (Angstroms)
 Number     Number       Type             X           Y           Z
 ---------------------------------------------------------------------
      1         12           0       -7.140188    0.670502    0.094108
      2          6           0       -4.813621   -1.964317    0.654343
      3          6           0       -4.665348    2.802012    1.199918
      4          6           0       -9.372584    3.097459   -0.441132
      5          6           0       -9.505113   -1.752293   -0.839181
      6          7           0       -5.144812    0.391527    0.711678
      7          6           0       -4.365056   -0.716254    0.810941
      8          6           0       -2.962255   -0.496109    1.254915
      9          6           0       -3.054897    0.976108    1.671209
     10          6           0       -4.392762    1.469286    1.093116
     11          6           0       -2.913685    1.143428    3.234349
     12          6           0       -1.906744   -0.549920    0.012303
     13          6           0       -0.524645   -0.595113    0.533522
     14          6           0        0.540998   -0.750396   -0.639995
     15          8           0        0.284405   -1.177800   -1.745397
     16          8           0        1.807374   -0.400179   -0.265193
     17          7           0       -7.058313    2.603421    0.391742
     18          6           0       -6.011477    3.391809    0.932301
     19          6           0       -6.361312    4.718456    0.974792
     20          6           0       -7.631215    4.854562    0.395773
     21          6           0       -8.060259    3.471659    0.029515
     22          6           0       -5.493531    5.838562    1.368232
     23          6           0       -8.534995    5.956678    0.234460
     24          6           0       -8.274643    7.244303    0.746969
     25          7           0       -9.004446    0.688918   -0.616429
     26          6           0       -9.813005    1.847956   -0.739752
     27          6           0      -11.153297    1.523761   -1.172045
     28          6           0      -11.307207    0.147660   -1.256827
     29          6           0       -9.940281   -0.333120   -0.944542
     30          6           0      -12.241325    2.600164   -1.533084
     31          6           0      -12.351250   -0.692630   -1.687880
     32          6           0      -12.192480   -1.121174   -3.229592
     33          7           0       -7.276830   -1.355955   -0.022245
     34          6           0       -8.247632   -2.174017   -0.468050
     35          6           0       -7.862881   -3.627005   -0.389558
     36          6           0       -6.498053   -3.532356    0.041247
     37          6           0       -6.142664   -2.180752    0.198920
     38          6           0       -8.623982   -4.834694   -0.702967
     39          6           0       -5.328692   -4.353043    0.186927
     40          8           0       -5.239946   -5.562425    0.130350
     41          6           0       -4.213843   -3.307429    0.585930
     42          6           0       -3.596953   -3.719107    1.882591
     43          8           0       -3.799989   -3.152746    2.927310
     44          8           0       -2.778105   -4.812781    1.724962
     45          6           0       -2.127484   -5.317605    2.936059
     46          6           0        2.798165   -0.513945   -1.359918
     47          6           0        4.110845   -0.357352   -0.790318
     48          6           0        5.061911    0.526007   -1.180984
     49          6           0        5.155985    1.165550   -2.465312
     50          6           0        6.377919    0.425604   -0.321971
     51          6           0        7.637349   -0.241068   -1.035245
     52          6           0        8.852591   -0.055590   -0.192591
     53          6           0       10.133781   -0.495832   -0.899779
     54          6           0       10.035886   -2.029937   -1.502024
     55          6           0       11.369550   -0.267403   -0.060389
     56          6           0       12.749825   -0.406210   -0.718041
     57          6           0       13.889297   -0.078641    0.201822
     58          6           0       15.269042   -0.056981   -0.514380
     59          6           0       15.713744   -1.567975   -0.814714
     60          6           0       16.345522    0.554184    0.354142
     61          6           0       17.738567    0.528780   -0.146330
     62          6           0       18.715769    1.243626    0.859871
     63          6           0       20.162187    1.285671    0.383400
     64          6           0       20.453748    2.032635   -0.955247
     65          6           0       21.007809    1.690336    1.533909
     66          1           0       -4.023215    3.581504    1.737530
     67          1           0      -10.139421    4.030233   -0.595161
     68          1           0      -10.189255   -2.654514   -1.181320
     69          1           0       -2.449137   -1.275085    1.875916
     70          1           0       -2.319632    1.498910    1.262251
     71          1           0       -2.051643    0.708631    3.610911
     72          1           0       -2.870138    2.172480    3.537138
     73          1           0       -3.727622    0.770712    3.765589
     74          1           0       -2.113958   -1.567617   -0.342576
     75          1           0       -2.205071    0.160750   -0.792164
     76          1           0       -0.259209    0.430571    1.109636
     77          1           0       -0.334775   -1.319605    1.275759
     78          1           0       -5.807507    6.761976    0.566698
     79          1           0       -5.326148    6.125510    2.425865
     80          1           0       -4.426740    5.594583    1.063169
     81          1           0       -9.454315    5.841069   -0.560105
     82          1           0       -8.840515    8.104392    0.404537
     83          1           0       -7.542836    7.549110    1.308170
     84          1           0      -11.973292    3.295745   -2.231870
     85          1           0      -13.164569    2.143187   -1.797761
     86          1           0      -12.280563    3.082129   -0.570083
     87          1           0      -12.377462   -1.572736   -1.144507
     88          1           0      -13.321323   -0.161701   -1.707028
     89          1           0      -12.999857   -1.873545   -3.441621
     90          1           0      -12.214315   -0.180864   -3.761219
     91          1           0      -11.101755   -1.607699   -3.262957
     92          1           0       -8.670931   -5.142009   -1.971238
     93          1           0       -8.252446   -5.894962   -0.026427
     94          1           0       -9.756211   -4.587780   -0.301534
     95          1           0       -3.432828   -3.543352   -0.407928
     96          1           0       -1.732535   -4.478311    3.370058
     97          1           0       -2.982940   -5.784552    3.571889
     98          1           0       -1.276150   -5.996408    2.689649
     99          1           0        2.728743   -1.541932   -1.809543
    100          1           0        2.483131    0.260238   -2.181330
    101          1           0        3.983635   -0.693578    0.137255
    102          1           0        4.196782    1.355151   -2.879044
    103          1           0        5.745726    2.226187   -2.404349
    104          1           0        5.748009    0.586494   -3.420724
    105          1           0        6.674603    1.553720    0.094369
    106          1           0        6.239158   -0.100925    0.636488
    107          1           0        7.320841   -1.275579   -1.506057
    108          1           0        8.006012    0.502468   -1.891537
    109          1           0        8.971086    1.036502    0.046946
    110          1           0        9.004219   -0.624835    0.709118
    111          1           0       10.201374    0.175137   -1.867167
    112          1           0        9.214446   -2.290414   -2.185513
    113          1           0       10.916654   -2.219211   -2.061184
    114          1           0       10.141966   -2.650574   -0.773814
    115          1           0       11.297363    0.798418    0.192149
    116          1           0       11.316716   -0.972127    0.842774
    117          1           0       12.831168   -1.283965   -1.085034
    118          1           0       12.713953    0.331541   -1.581941
    119          1           0       13.808102    0.988204    0.435187
    120          1           0       13.992071   -0.720936    1.240377
    121          1           0       15.238836    0.389079   -1.506713
    122          1           0       15.674549   -1.994428    0.286937
    123          1           0       15.171565   -2.217507   -1.537580
    124          1           0       16.706020   -1.751712   -1.346451
    125          1           0       15.866716    1.529165    0.869764
    126          1           0       16.207835   -0.002334    1.286682
    127          1           0       18.025889   -0.400909   -0.450231
    128          1           0       17.824863    1.237136   -1.214528
    129          1           0       18.142738    2.269321    0.947079
    130          1           0       18.773272    0.695383    1.859415
    131          1           0       20.142880    0.186641    0.275636
    132          1           0       20.176677    3.130718   -0.829037
    133          1           0       21.536204    1.894116   -1.132799
    134          1           0       19.753478    1.629206   -1.730846
    135          1           0       21.041626    1.128369    2.315884
    136          1           0       22.055529    1.660722    1.311079
    137          1           0       20.815096    2.784436    2.012487
 ---------------------------------------------------------------------

 SCF Done:  E(RCAM-B3LYP) =  -2933.47412884     A.U. after   16 cycles

 Excitation energies and oscillator strengths:

 Excited State   1:      Singlet-A      1.8721 eV  662.28 nm  f=0.3143  <S**2>=0.000
     240 -> 243       -0.19741
     241 -> 242        0.67614
 This state for optimization and/or second-order correction.
 Total Energy, E(TD-HF/TD-DFT) =  -2933.40533102
 Copying the excited state density for this state as the 1-particle RhoCI density.

 The electronic state is 1-A.
 Alpha  occ. eigenvalues --  -46.78636 -19.22055 -19.21202 -19.16801 -19.16767
 Alpha  occ. eigenvalues --  -19.16231 -14.37553 -14.35965 -14.35266 -14.35171
 Alpha  occ. eigenvalues --  -10.34808 -10.34350 -10.30301 -10.27608 -10.26990
 Alpha  occ. eigenvalues --  -10.26712 -10.26478 -10.25864 -10.25716 -10.25385
 Alpha  occ. eigenvalues --  -10.25378 -10.25200 -10.25022 -10.24980 -10.24859
 Alpha  occ. eigenvalues --  -10.24623 -10.24499 -10.24440 -10.24289 -10.24275
 Alpha  occ. eigenvalues --  -10.23515 -10.23470 -10.23131 -10.23071 -10.23068
 Alpha  occ. eigenvalues --  -10.23042 -10.22743 -10.22546 -10.22489 -10.22488
 Alpha  occ. eigenvalues --  -10.22355 -10.22349 -10.22274 -10.21950 -10.21937
 Alpha  occ. eigenvalues --  -10.21746 -10.21639 -10.21635 -10.21616 -10.21554
 Alpha  occ. eigenvalues --  -10.21517 -10.21374 -10.21354 -10.21260 -10.21094
 Alpha  occ. eigenvalues --  -10.21067 -10.21023 -10.21008 -10.20850 -10.20730
 Alpha  occ. eigenvalues --  -10.20480 -10.19655 -10.19385 -10.19065 -10.18747
 Alpha  occ. eigenvalues --   -3.07546  -1.82458  -1.82049  -1.81960  -1.12243
 Alpha  occ. eigenvalues --   -1.11879  -1.06221  -1.04146  -1.03892  -0.99387
 Alpha  occ. eigenvalues --   -0.97763  -0.97122  -0.95843  -0.88618  -0.86054
 Alpha  occ. eigenvalues --   -0.85639  -0.84878  -0.84642  -0.84609  -0.83424
 Alpha  occ. eigenvalues --   -0.83265  -0.83036  -0.82256  -0.81337  -0.80749
 Alpha  occ. eigenvalues --   -0.80191  -0.79202  -0.78710  -0.78068  -0.77325
 Alpha  occ. eigenvalues --   -0.76610  -0.75940  -0.75391  -0.74749  -0.73091
 Alpha  occ. eigenvalues --   -0.73032  -0.72177  -0.71731  -0.71565  -0.71467
 Alpha  occ. eigenvalues --   -0.70261  -0.70138  -0.69503  -0.68271  -0.67222
 Alpha  occ. eigenvalues --   -0.67023  -0.66218  -0.65487  -0.64566  -0.64057
 Alpha  occ. eigenvalues --   -0.62915  -0.61960  -0.61321  -0.60559  -0.59968
 Alpha  occ. eigenvalues --   -0.59518  -0.58977  -0.58695  -0.57785  -0.57314
 Alpha  occ. eigenvalues --   -0.57073  -0.56791  -0.56417  -0.55763  -0.55072
 Alpha  occ. eigenvalues --   -0.54273  -0.54017  -0.53745  -0.52499  -0.52249
 Alpha  occ. eigenvalues --   -0.51917  -0.51637  -0.51256  -0.50937  -0.50688
 Alpha  occ. eigenvalues --   -0.50447  -0.49897  -0.49589  -0.49480  -0.49244
 Alpha  occ. eigenvalues --   -0.48718  -0.48576  -0.48333  -0.48210  -0.47906
 Alpha  occ. eigenvalues --   -0.47486  -0.47254  -0.47019  -0.46977  -0.46678
 Alpha  occ. eigenvalues --   -0.46574  -0.46240  -0.45890  -0.45730  -0.45471
 Alpha  occ. eigenvalues --   -0.45436  -0.45212  -0.45025  -0.44656  -0.44549
 Alpha  occ. eigenvalues --   -0.44401  -0.44261  -0.44063  -0.43932  -0.43818
 Alpha  occ. eigenvalues --   -0.43675  -0.42852  -0.42552  -0.42408  -0.42321
 Alpha  occ. eigenvalues --   -0.42047  -0.41706  -0.41639  -0.41510  -0.41413
 Alpha  occ. eigenvalues --   -0.41247  -0.40872  -0.40794  -0.40661  -0.40458
 Alpha  occ. eigenvalues --   -0.40310  -0.40123  -0.40091  -0.39850  -0.39537
 Alpha  occ. eigenvalues --   -0.39381  -0.39280  -0.39157  -0.38997  -0.38959
 Alpha  occ. eigenvalues --   -0.38700  -0.38648  -0.38599  -0.38436  -0.38363
 Alpha  occ. eigenvalues --   -0.38214  -0.37745  -0.37625  -0.37532  -0.37180
 Alpha  occ. eigenvalues --   -0.36603  -0.36521  -0.36332  -0.36274  -0.36033
 Alpha  occ. eigenvalues --   -0.35915  -0.35805  -0.35481  -0.34689  -0.34579
 Alpha  occ. eigenvalues --   -0.34131  -0.33985  -0.33782  -0.33328  -0.33186
 Alpha  occ. eigenvalues --   -0.33096  -0.32968  -0.32827  -0.32812  -0.32343
 Alpha  occ. eigenvalues --   -0.32304  -0.32232  -0.31530  -0.31226  -0.30964
 Alpha  occ. eigenvalues --   -0.30430  -0.30153  -0.29658  -0.28264  -0.26907
 Alpha  occ. eigenvalues --   -0.26718  -0.26503  -0.25917  -0.24317  -0.21816
 Alpha  occ. eigenvalues --   -0.19893
 Alpha virt. eigenvalues --   -0.07932  -0.04207  -0.00478   0.01708   0.02115
 Alpha virt. eigenvalues --    0.03360   0.04083   0.05215   0.05368   0.05798
 Alpha virt. eigenvalues --    0.06413   0.07915   0.08425   0.09184   0.09605

 Mulliken charges:
               1
     1  Mg   0.814462
     2  C    0.128478
     3  C   -0.192547
     4  C   -0.179661
     5  C   -0.194965
     6  N   -0.644472
     7  C    0.343052
     8  C   -0.160662
     9  C   -0.127086
    10  C    0.343337
    11  C   -0.317734
    12  C   -0.181035
    13  C   -0.260885
    14  C    0.600089
    15  O   -0.458133
    16  O   -0.486626
    17  N   -0.727069
    18  C    0.276940
    19  C    0.049160
    20  C    0.046979
    21  C    0.281452
    22  C   -0.395106
    23  C   -0.107101
    24  C   -0.246652
    25  N   -0.677414
    26  C    0.341454
    27  C   -0.019367
    28  C    0.097332
    29  C    0.237580
    30  C   -0.363872
    31  C   -0.277112
    32  C   -0.303325
    33  N   -0.704364
    34  C    0.322464
    35  C    0.074694
    36  C    0.030593
    37  C    0.236931
    38  C   -0.372312
    39  C    0.355452
    40  O   -0.455477
    41  C   -0.369347
    42  C    0.646991
    43  O   -0.466003
    44  O   -0.471905
    45  C   -0.081623
    46  C    0.012818
    47  C   -0.106742
    48  C    0.126565
    49  C   -0.352686
    50  C   -0.216764
    51  C   -0.150789
    52  C   -0.150538
    53  C   -0.071947
    54  C   -0.334531
    55  C   -0.172955
    56  C   -0.162003
    57  C   -0.160642
    58  C   -0.066239
    59  C   -0.309656
    60  C   -0.152942
    61  C   -0.162051
    62  C   -0.160100
    63  C   -0.043734
    64  C   -0.307038
    65  C   -0.302219
    66  H    0.087003
    67  H    0.081380
    68  H    0.083841
    69  H    0.108459
    70  H    0.103283
    71  H    0.110677
    72  H    0.097981
    73  H    0.129174
    74  H    0.114944
    75  H    0.118717
    76  H    0.107054
    77  H    0.142156
    78  H    0.098919
    79  H    0.126268
    80  H    0.105756
    81  H    0.084106
    82  H    0.094091
    83  H    0.108402
    84  H    0.134673
    85  H    0.113259
    86  H    0.132334
    87  H    0.117435
    88  H    0.102855
    89  H    0.107674
    90  H    0.119844
    91  H    0.097670
    92  H    0.109311
    93  H    0.126182
    94  H    0.101367
    95  H    0.142181
    96  H    0.134657
    97  H    0.128678
    98  H    0.126875
    99  H    0.131644
   100  H    0.108283
   101  H    0.102939
   102  H    0.119019
   103  H    0.097029
   104  H    0.100893
   105  H    0.057901
   106  H    0.102066
   107  H    0.097241
   108  H    0.080296
   109  H    0.092157
   110  H    0.089092
   111  H    0.052761
   112  H    0.100851
   113  H    0.103226
   114  H    0.113803
   115  H    0.090140
   116  H    0.077227
   117  H    0.107207
   118  H    0.084472
   119  H    0.092778
   120  H    0.068648
   121  H    0.086259
   122  H    0.081201
   123  H    0.094614
   124  H    0.089451
   125  H    0.066616
   126  H    0.087628
   127  H    0.108594
   128  H    0.045295
   129  H    0.073279
   130  H    0.082414
   131  H    0.087552
   132  H    0.100376
   133  H    0.106804
   134  H    0.102446
   135  H    0.113966
   136  H    0.090387
   137  H    0.074852
 Sum of Mulliken charges =  -0.00000

 Dipole moment (field-independent basis, Debye):
    X=              0.9464    Y=              2.5244    Z=             -0.1320  Tot=              2.6992
 Quadrupole moment (field-independent basis, Debye-Ang):
   XX=           -333.3249   YY=           -397.1082   ZZ=           -396.9090
   XY=            -22.6537   XZ=             18.2590   YZ=             -4.5496

 Normal termination of Gaussian 16 at Fri Sep 13 12:07:59 2019.
