 Gaussian 09, Revision D.01,
 Gaussian 09:  ES64L-G09RevD.01 24-Apr-2013

 -------------------------------------
 # td=(NStates=1) CAM-B3LYP/6-31G(d,p)
 -------------------------------------

 --
 TD
 --
 Symbolic Z-matrix:
 Charge =  0 Multiplicity = 1

                         Standard orientation:
 ---------------------------------------------------------------------
 Center     Atomic      Atomic             Coordinates (Angstroms)
 Number     Number       Type             X           Y           Z
 ---------------------------------------------------------------------
      1         12           0       -7.104986    0.588956    0.119197
      2          6           0       -4.808914   -1.946128    0.498231
      3          6           0       -4.765317    2.779432    1.209899
      4          6           0       -9.351864    3.023694   -0.237845
      5          6           0       -9.514250   -1.695316   -0.702788
      6          7           0       -5.135814    0.361935    0.746760
      7          6           0       -4.360545   -0.725251    0.775146
      8          6           0       -2.894838   -0.413440    1.187032
      9          6           0       -3.048660    1.040808    1.672411
     10          6           0       -4.396185    1.469206    1.215082
     11          6           0       -2.946018    1.182481    3.205972
     12          6           0       -1.874249   -0.611002    0.073457
     13          6           0       -0.457081   -0.257741    0.438952
     14          6           0        0.492322   -0.500803   -0.584482
     15          8           0        0.152963   -0.928547   -1.685839
     16          8           0        1.818377   -0.359409   -0.288874
     17          7           0       -7.085921    2.532795    0.429512
     18          6           0       -6.135565    3.310095    0.872712
     19          6           0       -6.366103    4.766835    0.816565
     20          6           0       -7.709744    4.793994    0.324148
     21          6           0       -8.083548    3.425898    0.027319
     22          6           0       -5.480887    5.815141    1.210400
     23          6           0       -8.548950    5.978747   -0.013663
     24          6           0       -8.526531    7.079538    0.717642
     25          7           0       -9.262095    0.638705   -0.431819
     26          6           0       -9.899016    1.805526   -0.608254
     27          6           0      -11.196314    1.434921   -1.131405
     28          6           0      -11.288292   -0.038195   -1.212165
     29          6           0       -9.907728   -0.435556   -0.828741
     30          6           0      -12.365056    2.350704   -1.407361
     31          6           0      -12.323224   -0.889652   -1.761442
     32          6           0      -12.209216   -1.154209   -3.241832
     33          7           0       -7.229000   -1.437655   -0.083448
     34          6           0       -8.249997   -2.248897   -0.421245
     35          6           0       -7.786347   -3.632028   -0.417336
     36          6           0       -6.497164   -3.606023   -0.057612
     37          6           0       -6.104436   -2.218587    0.191403
     38          6           0       -8.581360   -4.861657   -0.869296
     39          6           0       -5.245980   -4.414088    0.153643
     40          8           0       -5.052525   -5.617128    0.062051
     41          6           0       -4.129178   -3.394647    0.587001
     42          6           0       -3.544451   -3.615955    1.931723
     43          8           0       -3.872107   -3.038300    2.850983
     44          8           0       -2.641437   -4.677530    1.828889
     45          6           0       -2.173415   -5.220879    3.109710
     46          6           0        2.760176   -0.380650   -1.302293
     47          6           0        4.106082   -0.114391   -0.708414
     48          6           0        5.142209    0.661909   -1.155522
     49          6           0        5.045852    1.364325   -2.456165
     50          6           0        6.457363    0.624340   -0.307128
     51          6           0        7.691474    0.095516   -1.107562
     52          6           0        8.911618    0.099171   -0.271374
     53          6           0       10.188813   -0.472733   -1.006110
     54          6           0        9.962721   -1.959057   -1.452255
     55          6           0       11.434735   -0.220801   -0.114088
     56          6           0       12.704301   -0.489085   -0.793758
     57          6           0       13.846885   -0.129892    0.140689
     58          6           0       15.264747   -0.176666   -0.579552
     59          6           0       15.674515   -1.504140   -1.084779
     60          6           0       16.417499    0.217107    0.431966
     61          6           0       17.760890    0.418380   -0.072286
     62          6           0       18.863602    1.088578    0.954570
     63          6           0       20.297199    1.151212    0.425614
     64          6           0       20.454912    1.888718   -0.839896
     65          6           0       21.156478    1.744503    1.609892
     66          1           0       -3.982876    3.635596    1.502330
     67          1           0      -10.131529    3.882030   -0.550402
     68          1           0      -10.333098   -2.485352   -0.828341
     69          1           0       -2.553694   -1.061762    1.999943
     70          1           0       -2.359282    1.765549    1.228979
     71          1           0       -1.935695    0.769790    3.552069
     72          1           0       -2.758078    2.331532    3.381478
     73          1           0       -3.788151    0.504189    3.932550
     74          1           0       -1.970501   -1.623666   -0.422569
     75          1           0       -2.146705    0.000613   -0.948075
     76          1           0       -0.586697    0.651257    0.904644
     77          1           0       -0.149363   -1.102744    1.161282
     78          1           0       -5.754087    6.702301    0.798389
     79          1           0       -5.658414    6.116585    2.302467
     80          1           0       -4.426135    5.404801    1.187975
     81          1           0       -9.328577    5.694848   -0.621062
     82          1           0       -9.239595    7.867902    0.466672
     83          1           0       -7.966119    7.275897    1.460074
     84          1           0      -12.146846    2.921630   -2.217246
     85          1           0      -13.180192    1.769528   -1.729186
     86          1           0      -12.433875    3.261589   -0.625034
     87          1           0      -12.489175   -1.711057   -1.224629
     88          1           0      -13.247748   -0.357936   -1.482802
     89          1           0      -13.014467   -1.706347   -3.520762
     90          1           0      -12.126988   -0.256331   -3.832451
     91          1           0      -11.204445   -1.670938   -3.456938
     92          1           0       -8.925212   -4.424162   -1.803439
     93          1           0       -7.847109   -5.649257   -0.910372
     94          1           0       -9.307063   -4.976253   -0.279785
     95          1           0       -3.406731   -3.305575   -0.195923
     96          1           0       -1.700813   -4.661061    3.542713
     97          1           0       -2.963877   -5.489843    3.975789
     98          1           0       -1.640593   -6.072075    2.766236
     99          1           0        2.732616   -1.313567   -1.860182
    100          1           0        2.323676    0.476104   -1.947649
    101          1           0        4.084456   -0.710593    0.213199
    102          1           0        3.977259    1.333821   -2.794673
    103          1           0        5.209909    2.391871   -2.096637
    104          1           0        5.658295    0.939368   -3.238945
    105          1           0        6.868421    1.691283   -0.038190
    106          1           0        6.498008    0.044023    0.566444
    107          1           0        7.497552   -1.037037   -1.688740
    108          1           0        7.620132    0.628671   -2.070708
    109          1           0        8.964136    1.226067    0.094396
    110          1           0        8.602510   -0.373502    0.673140
    111          1           0       10.392160    0.149882   -1.792156
    112          1           0        9.065685   -1.877271   -2.235768
    113          1           0       10.804012   -2.141138   -2.067013
    114          1           0        9.640453   -2.690627   -0.789692
    115          1           0       11.359802    0.618985    0.415409
    116          1           0       11.352477   -0.849748    0.715660
    117          1           0       12.630225   -1.634048   -1.180121
    118          1           0       12.853389    0.063776   -1.719301
    119          1           0       13.570747    0.827143    0.541044
    120          1           0       14.176147   -0.966516    1.010317
    121          1           0       15.430425    0.646588   -1.490211
    122          1           0       15.683866   -2.142446   -0.131540
    123          1           0       14.844403   -2.043672   -1.696315
    124          1           0       16.550664   -1.661968   -1.662614
    125          1           0       16.140268    1.197848    1.029401
    126          1           0       16.661550   -0.754954    1.225875
    127          1           0       18.191996   -0.522726   -0.396057
    128          1           0       17.876894    1.116079   -0.987745
    129          1           0       18.478585    2.095012    1.096910
    130          1           0       18.611124    0.441412    1.850889
    131          1           0       20.673584    0.162148    0.297725
    132          1           0       19.978603    2.889171   -0.756338
    133          1           0       21.504096    2.114602   -1.128241
    134          1           0       19.965548    1.467217   -1.677326
    135          1           0       21.111391    1.091128    2.567801
    136          1           0       22.254496    1.810179    1.237807
    137          1           0       20.687819    2.825682    1.993312
 ---------------------------------------------------------------------

 SCF Done:  E(RCAM-B3LYP) =  -2932.58890893     A.U. after   15 cycles

 Excitation energies and oscillator strengths:

 Excited State   1:      Singlet-A      2.0688 eV  599.30 nm  f=0.3071  <S**2>=0.000
     240 -> 243        0.22152
     241 -> 242        0.66202
 This state for optimization and/or second-order correction.
 Total Energy, E(TD-HF/TD-KS) =  -2932.51288109
 Copying the excited state density for this state as the 1-particle RhoCI density.

 The electronic state is 1-A.
 Alpha  occ. eigenvalues --  -46.84332 -19.25658 -19.25651 -19.22452 -19.20893
 Alpha  occ. eigenvalues --  -19.20430 -14.41137 -14.40187 -14.38712 -14.37993
 Alpha  occ. eigenvalues --  -10.39300 -10.38980 -10.35920 -10.31611 -10.30650
 Alpha  occ. eigenvalues --  -10.30267 -10.30195 -10.29557 -10.29139 -10.28822
 Alpha  occ. eigenvalues --  -10.28598 -10.28524 -10.28192 -10.28021 -10.27991
 Alpha  occ. eigenvalues --  -10.27983 -10.27746 -10.27729 -10.27721 -10.27694
 Alpha  occ. eigenvalues --  -10.27613 -10.27537 -10.27445 -10.27224 -10.27106
 Alpha  occ. eigenvalues --  -10.27060 -10.26996 -10.26957 -10.26949 -10.26934
 Alpha  occ. eigenvalues --  -10.26835 -10.26693 -10.26410 -10.26380 -10.26339
 Alpha  occ. eigenvalues --  -10.26195 -10.26069 -10.25996 -10.25858 -10.25759
 Alpha  occ. eigenvalues --  -10.25711 -10.25683 -10.25434 -10.25416 -10.25262
 Alpha  occ. eigenvalues --  -10.25140 -10.25074 -10.24892 -10.24886 -10.24730
 Alpha  occ. eigenvalues --  -10.24704 -10.24420 -10.24216 -10.24150 -10.22711
 Alpha  occ. eigenvalues --   -3.13360  -1.88067  -1.87589  -1.87549  -1.19911
 Alpha  occ. eigenvalues --   -1.18517  -1.11138  -1.10745  -1.08962  -1.04988
 Alpha  occ. eigenvalues --   -1.03893  -1.03394  -1.02304  -0.92317  -0.91338
 Alpha  occ. eigenvalues --   -0.91154  -0.90200  -0.89978  -0.89440  -0.89316
 Alpha  occ. eigenvalues --   -0.88402  -0.88199  -0.88062  -0.87082  -0.86677
 Alpha  occ. eigenvalues --   -0.85994  -0.85140  -0.84196  -0.83355  -0.83018
 Alpha  occ. eigenvalues --   -0.82239  -0.81616  -0.80598  -0.80472  -0.78981
 Alpha  occ. eigenvalues --   -0.78258  -0.77896  -0.76349  -0.76013  -0.75621
 Alpha  occ. eigenvalues --   -0.75455  -0.75287  -0.73377  -0.73095  -0.72575
 Alpha  occ. eigenvalues --   -0.71442  -0.70644  -0.69983  -0.69294  -0.68537
 Alpha  occ. eigenvalues --   -0.68123  -0.65905  -0.65268  -0.65116  -0.64762
 Alpha  occ. eigenvalues --   -0.64405  -0.63979  -0.62906  -0.62706  -0.62312
 Alpha  occ. eigenvalues --   -0.61922  -0.61112  -0.60651  -0.60568  -0.59704
 Alpha  occ. eigenvalues --   -0.59346  -0.58661  -0.58129  -0.57742  -0.57304
 Alpha  occ. eigenvalues --   -0.56367  -0.56194  -0.55613  -0.55196  -0.54756
 Alpha  occ. eigenvalues --   -0.54627  -0.54414  -0.53750  -0.53495  -0.53324
 Alpha  occ. eigenvalues --   -0.53037  -0.52774  -0.52419  -0.52168  -0.52008
 Alpha  occ. eigenvalues --   -0.51830  -0.51587  -0.51495  -0.51436  -0.51133
 Alpha  occ. eigenvalues --   -0.50763  -0.50656  -0.50423  -0.50187  -0.49767
 Alpha  occ. eigenvalues --   -0.49584  -0.49347  -0.49278  -0.49033  -0.48633
 Alpha  occ. eigenvalues --   -0.48523  -0.48419  -0.48284  -0.48094  -0.47518
 Alpha  occ. eigenvalues --   -0.47058  -0.46602  -0.46390  -0.46288  -0.45878
 Alpha  occ. eigenvalues --   -0.45802  -0.45759  -0.45704  -0.45557  -0.45309
 Alpha  occ. eigenvalues --   -0.45124  -0.45053  -0.44781  -0.44590  -0.44398
 Alpha  occ. eigenvalues --   -0.44343  -0.43850  -0.43564  -0.43185  -0.43147
 Alpha  occ. eigenvalues --   -0.43107  -0.42943  -0.42314  -0.42170  -0.42062
 Alpha  occ. eigenvalues --   -0.41919  -0.41713  -0.41629  -0.41545  -0.41302
 Alpha  occ. eigenvalues --   -0.41167  -0.41023  -0.41014  -0.40660  -0.40128
 Alpha  occ. eigenvalues --   -0.39922  -0.39815  -0.39705  -0.39465  -0.39183
 Alpha  occ. eigenvalues --   -0.38618  -0.38400  -0.38297  -0.38088  -0.37599
 Alpha  occ. eigenvalues --   -0.37539  -0.37482  -0.37400  -0.36796  -0.36481
 Alpha  occ. eigenvalues --   -0.36451  -0.36124  -0.35963  -0.35682  -0.35308
 Alpha  occ. eigenvalues --   -0.35240  -0.35036  -0.34860  -0.33624  -0.33395
 Alpha  occ. eigenvalues --   -0.32455  -0.32098  -0.32038  -0.31540  -0.30387
 Alpha  occ. eigenvalues --   -0.29568  -0.28998  -0.27664  -0.26109  -0.23473
 Alpha  occ. eigenvalues --   -0.20792
 Alpha virt. eigenvalues --   -0.06115  -0.02576   0.01853   0.04265   0.05420
 Alpha virt. eigenvalues --    0.05635   0.06496   0.06681   0.07342   0.07506
 Alpha virt. eigenvalues --    0.08700   0.10482   0.11252   0.11459   0.11857

 Mulliken charges:
               1
     1  Mg   0.823384
     2  C    0.010409
     3  C   -0.222773
     4  C   -0.147196
     5  C   -0.182275
     6  N   -0.678777
     7  C    0.330423
     8  C   -0.138499
     9  C   -0.169967
    10  C    0.372602
    11  C   -0.286027
    12  C   -0.189977
    13  C   -0.251793
    14  C    0.617429
    15  O   -0.477962
    16  O   -0.489445
    17  N   -0.679593
    18  C    0.303887
    19  C    0.041814
    20  C   -0.011862
    21  C    0.254691
    22  C   -0.377396
    23  C   -0.052647
    24  C   -0.218957
    25  N   -0.668212
    26  C    0.303394
    27  C   -0.039007
    28  C    0.005194
    29  C    0.320312
    30  C   -0.369583
    31  C   -0.240763
    32  C   -0.295119
    33  N   -0.728837
    34  C    0.295121
    35  C   -0.068979
    36  C    0.031050
    37  C    0.275806
    38  C   -0.326811
    39  C    0.378309
    40  O   -0.450540
    41  C   -0.296717
    42  C    0.627326
    43  O   -0.398421
    44  O   -0.494227
    45  C   -0.056238
    46  C    0.033069
    47  C   -0.137505
    48  C    0.101319
    49  C   -0.362933
    50  C   -0.217252
    51  C   -0.163490
    52  C   -0.178174
    53  C   -0.062033
    54  C   -0.310469
    55  C   -0.178818
    56  C   -0.171742
    57  C   -0.151960
    58  C   -0.063387
    59  C   -0.295482
    60  C   -0.143098
    61  C   -0.190256
    62  C   -0.172868
    63  C   -0.045872
    64  C   -0.312046
    65  C   -0.291308
    66  H    0.069636
    67  H    0.072300
    68  H    0.085843
    69  H    0.117908
    70  H    0.111491
    71  H    0.097067
    72  H    0.098496
    73  H    0.110225
    74  H    0.119844
    75  H    0.097229
    76  H    0.141932
    77  H    0.138113
    78  H    0.132090
    79  H    0.117566
    80  H    0.112879
    81  H    0.087883
    82  H    0.098448
    83  H    0.098165
    84  H    0.129915
    85  H    0.114368
    86  H    0.098177
    87  H    0.112305
    88  H    0.097242
    89  H    0.112190
    90  H    0.112771
    91  H    0.097967
    92  H    0.125418
    93  H    0.145786
    94  H    0.135097
    95  H    0.167102
    96  H    0.124727
    97  H    0.098771
    98  H    0.132068
    99  H    0.132187
   100  H    0.095701
   101  H    0.095624
   102  H    0.110729
   103  H    0.121589
   104  H    0.133151
   105  H    0.081049
   106  H    0.109779
   107  H    0.044264
   108  H    0.092938
   109  H    0.070847
   110  H    0.096026
   111  H    0.100499
   112  H    0.083182
   113  H    0.111179
   114  H    0.121248
   115  H    0.093059
   116  H    0.098181
   117  H    0.079780
   118  H    0.097445
   119  H    0.105654
   120  H    0.071646
   121  H    0.056797
   122  H    0.087152
   123  H    0.083329
   124  H    0.122193
   125  H    0.070010
   126  H    0.046016
   127  H    0.092894
   128  H    0.070693
   129  H    0.093403
   130  H    0.087203
   131  H    0.095925
   132  H    0.095227
   133  H    0.098517
   134  H    0.114739
   135  H    0.097448
   136  H    0.088392
   137  H    0.075040
 Sum of Mulliken charges =   0.00000

 Dipole moment (field-independent basis, Debye):
    X=              1.6632    Y=              4.4687    Z=              0.7176  Tot=              4.8218
 Quadrupole moment (field-independent basis, Debye-Ang):
   XX=           -362.2668   YY=           -390.9822   ZZ=           -394.5543
   XY=            -23.3995   XZ=              3.3786   YZ=             -5.0948

 Normal termination of Gaussian 09 at Wed Jul  3 01:24:48 2019.
