 Gaussian 09, Revision D.01,
 Gaussian 09:  ES64L-G09RevD.01 24-Apr-2013

 -------------------------------------
 # td=(NStates=1) CAM-B3LYP/6-31G(d,p)
 -------------------------------------

 --
 TD
 --
 Symbolic Z-matrix:
 Charge =  0 Multiplicity = 1

                         Standard orientation:
 ---------------------------------------------------------------------
 Center     Atomic      Atomic             Coordinates (Angstroms)
 Number     Number       Type             X           Y           Z
 ---------------------------------------------------------------------
      1         12           0       -7.193838    0.670212    0.041575
      2          6           0       -4.868651   -2.002716    0.525909
      3          6           0       -4.748552    2.784985    1.033779
      4          6           0       -9.430732    3.120519   -0.357663
      5          6           0       -9.495752   -1.769240   -0.798064
      6          7           0       -5.242934    0.334306    0.702719
      7          6           0       -4.288657   -0.788715    0.751860
      8          6           0       -2.924331   -0.368949    1.229519
      9          6           0       -3.058325    1.058827    1.651397
     10          6           0       -4.451172    1.382476    1.106266
     11          6           0       -2.890104    1.269875    3.154285
     12          6           0       -1.876780   -0.545648    0.050591
     13          6           0       -0.426281   -0.389918    0.532630
     14          6           0        0.555243   -0.670328   -0.633494
     15          8           0        0.316933   -1.134539   -1.773698
     16          8           0        1.769519   -0.337666   -0.219519
     17          7           0       -7.074605    2.619770    0.296772
     18          6           0       -6.055286    3.372410    0.750296
     19          6           0       -6.481939    4.718663    0.808318
     20          6           0       -7.808608    4.802066    0.439261
     21          6           0       -8.174977    3.415918    0.070534
     22          6           0       -5.542734    5.869628    1.130105
     23          6           0       -8.551489    5.994035    0.278342
     24          6           0       -8.546917    7.194012    0.890030
     25          7           0       -9.184485    0.638019   -0.457319
     26          6           0       -9.916772    1.827563   -0.715864
     27          6           0      -11.156998    1.439208   -1.172580
     28          6           0      -11.183527    0.117313   -1.290649
     29          6           0       -9.901581   -0.404167   -0.824111
     30          6           0      -12.298694    2.429645   -1.512134
     31          6           0      -12.326044   -0.720555   -1.807624
     32          6           0      -12.178009   -1.117548   -3.271928
     33          7           0       -7.270197   -1.386669   -0.173445
     34          6           0       -8.351093   -2.247721   -0.510549
     35          6           0       -7.884088   -3.582372   -0.474281
     36          6           0       -6.533422   -3.614686   -0.034399
     37          6           0       -6.224139   -2.194997    0.074109
     38          6           0       -8.888724   -4.760784   -0.829783
     39          6           0       -5.376952   -4.328917    0.304962
     40          8           0       -5.311481   -5.594425    0.423008
     41          6           0       -4.180272   -3.346760    0.585739
     42          6           0       -3.559118   -3.670593    2.016793
     43          8           0       -3.800037   -2.986627    2.953253
     44          8           0       -2.526263   -4.531810    1.864127
     45          6           0       -1.941552   -4.983859    3.092402
     46          6           0        2.879889   -0.574289   -1.155779
     47          6           0        4.127955   -0.457505   -0.560302
     48          6           0        5.175067    0.256730   -1.042312
     49          6           0        5.034604    1.056631   -2.275116
     50          6           0        6.439973    0.344859   -0.259192
     51          6           0        7.683746   -0.312010   -0.983636
     52          6           0        9.009410   -0.111950   -0.194080
     53          6           0       10.269697   -0.653806   -0.975741
     54          6           0       10.251639   -2.083183   -1.524567
     55          6           0       11.534615   -0.332537   -0.149903
     56          6           0       12.845521   -0.580402   -0.806336
     57          6           0       13.932874   -0.011089    0.182678
     58          6           0       15.362416   -0.148602   -0.420307
     59          6           0       15.808152   -1.702923   -0.639698
     60          6           0       16.317072    0.525962    0.495584
     61          6           0       17.772472    0.682536   -0.039675
     62          6           0       18.821943    1.329704    0.879989
     63          6           0       20.171182    1.404536    0.243340
     64          6           0       20.198580    2.148803   -1.102587
     65          6           0       21.108147    2.006464    1.259542
     66          1           0       -4.003045    3.558447    1.239473
     67          1           0      -10.198503    3.948776   -0.546922
     68          1           0      -10.431199   -2.264131   -1.182976
     69          1           0       -2.616906   -1.161904    2.149588
     70          1           0       -2.350756    1.660540    1.109167
     71          1           0       -2.037670    0.832148    3.528660
     72          1           0       -3.120857    2.377425    3.351339
     73          1           0       -3.741388    0.685756    3.757338
     74          1           0       -1.953870   -1.537697   -0.278985
     75          1           0       -2.259968    0.136038   -0.770386
     76          1           0       -0.317779    0.500321    1.015216
     77          1           0       -0.040865   -1.298326    1.136263
     78          1           0       -5.686920    6.660157    0.309361
     79          1           0       -5.660658    5.941794    2.327663
     80          1           0       -4.469901    5.602806    1.065068
     81          1           0       -9.201156    5.920589   -0.639954
     82          1           0       -9.080645    8.084185    0.616149
     83          1           0       -7.857435    7.283032    1.683068
     84          1           0      -12.245339    3.040183   -2.360344
     85          1           0      -13.159358    1.864799   -1.762442
     86          1           0      -12.478199    3.085311   -0.670179
     87          1           0      -12.425122   -1.621438   -1.197976
     88          1           0      -13.355216   -0.259731   -1.836434
     89          1           0      -12.902698   -1.853248   -3.617632
     90          1           0      -12.372903   -0.192648   -3.872922
     91          1           0      -11.304334   -1.607586   -3.672061
     92          1           0       -9.378220   -4.680915   -1.805384
     93          1           0       -8.494974   -5.781278   -0.729076
     94          1           0       -9.754122   -4.878096   -0.117005
     95          1           0       -3.495016   -3.549681   -0.072416
     96          1           0       -1.499357   -4.144731    3.715339
     97          1           0       -2.718308   -5.445094    3.688962
     98          1           0       -1.209191   -5.630854    2.801323
     99          1           0        2.819831   -1.556207   -1.669221
    100          1           0        2.569833    0.058252   -2.015747
    101          1           0        4.455393   -0.975891    0.291901
    102          1           0        3.934623    0.969879   -2.860421
    103          1           0        5.247303    2.179341   -2.175948
    104          1           0        5.807456    0.774573   -3.102202
    105          1           0        6.859673    1.390859   -0.075088
    106          1           0        6.386270   -0.244614    0.609201
    107          1           0        7.346247   -1.348919   -1.231872
    108          1           0        7.715750    0.252276   -2.021370
    109          1           0        9.455250    0.894852   -0.004738
    110          1           0        8.902628   -0.810832    0.736222
    111          1           0       10.423397    0.031944   -1.929621
    112          1           0        9.267400   -2.485808   -2.093004
    113          1           0       11.142940   -2.302164   -2.297779
    114          1           0       10.436448   -2.753675   -0.717038
    115          1           0       11.442166    0.592946    0.242977
    116          1           0       11.264136   -0.946792    0.730530
    117          1           0       12.829951   -1.630927   -0.884926
    118          1           0       12.846647   -0.190161   -1.872272
    119          1           0       13.703858    0.854392    0.490540
    120          1           0       13.953912   -0.508680    1.136870
    121          1           0       15.409763    0.229300   -1.438136
    122          1           0       16.207386   -2.411570    0.256828
    123          1           0       15.061492   -2.498458   -1.221873
    124          1           0       16.570055   -1.584646   -1.290321
    125          1           0       15.948269    1.599250    0.675385
    126          1           0       16.510924   -0.048993    1.449923
    127          1           0       18.163475   -0.311371   -0.331517
    128          1           0       17.650375    1.219236   -1.062311
    129          1           0       18.328607    2.197887    1.116445
    130          1           0       18.746253    0.694797    1.805086
    131          1           0       20.805775    0.480229   -0.006191
    132          1           0       20.013108    3.233498   -0.834653
    133          1           0       21.346477    2.153811   -1.475490
    134          1           0       19.504369    1.865115   -1.827375
    135          1           0       21.219221    1.468684    2.242208
    136          1           0       22.041788    1.815051    0.653074
    137          1           0       20.958087    3.119004    1.528233
 ---------------------------------------------------------------------

 SCF Done:  E(RCAM-B3LYP) =  -2932.74024351     A.U. after   17 cycles

 Excitation energies and oscillator strengths:

 Excited State   1:      Singlet-A      2.0562 eV  602.98 nm  f=0.2226  <S**2>=0.000
     240 -> 243       -0.21495
     241 -> 242        0.65129
     241 -> 243       -0.10527
 This state for optimization and/or second-order correction.
 Total Energy, E(TD-HF/TD-KS) =  -2932.66467970
 Copying the excited state density for this state as the 1-particle RhoCI density.

 The electronic state is 1-A.
 Alpha  occ. eigenvalues --  -46.83341 -19.26910 -19.26638 -19.21887 -19.20545
 Alpha  occ. eigenvalues --  -19.19079 -14.41587 -14.39551 -14.39148 -14.38523
 Alpha  occ. eigenvalues --  -10.39699 -10.39534 -10.34445 -10.31698 -10.31382
 Alpha  occ. eigenvalues --  -10.31129 -10.30906 -10.30026 -10.29864 -10.29825
 Alpha  occ. eigenvalues --  -10.29109 -10.28560 -10.28224 -10.28192 -10.28003
 Alpha  occ. eigenvalues --  -10.27907 -10.27831 -10.27768 -10.27728 -10.27594
 Alpha  occ. eigenvalues --  -10.27444 -10.27357 -10.27338 -10.27212 -10.27133
 Alpha  occ. eigenvalues --  -10.27108 -10.26932 -10.26695 -10.26644 -10.26609
 Alpha  occ. eigenvalues --  -10.26602 -10.26571 -10.26482 -10.26462 -10.26417
 Alpha  occ. eigenvalues --  -10.26266 -10.26228 -10.26228 -10.25993 -10.25891
 Alpha  occ. eigenvalues --  -10.25714 -10.25685 -10.25677 -10.25498 -10.25433
 Alpha  occ. eigenvalues --  -10.25170 -10.24940 -10.24932 -10.24885 -10.24684
 Alpha  occ. eigenvalues --  -10.24640 -10.24635 -10.24504 -10.23678 -10.23660
 Alpha  occ. eigenvalues --   -3.12535  -1.87231  -1.86776  -1.86727  -1.19040
 Alpha  occ. eigenvalues --   -1.18064  -1.11229  -1.07280  -1.07231  -1.04172
 Alpha  occ. eigenvalues --   -1.03607  -1.02717  -1.01530  -0.92704  -0.92330
 Alpha  occ. eigenvalues --   -0.90947  -0.90250  -0.90105  -0.89298  -0.88676
 Alpha  occ. eigenvalues --   -0.88496  -0.88137  -0.87242  -0.86960  -0.86403
 Alpha  occ. eigenvalues --   -0.85308  -0.83948  -0.83910  -0.83206  -0.82605
 Alpha  occ. eigenvalues --   -0.81706  -0.81295  -0.80249  -0.79709  -0.78166
 Alpha  occ. eigenvalues --   -0.77548  -0.77068  -0.76690  -0.76006  -0.75487
 Alpha  occ. eigenvalues --   -0.75427  -0.75381  -0.74599  -0.73912  -0.72947
 Alpha  occ. eigenvalues --   -0.71977  -0.70912  -0.69558  -0.69257  -0.68711
 Alpha  occ. eigenvalues --   -0.67919  -0.66393  -0.65505  -0.65232  -0.64290
 Alpha  occ. eigenvalues --   -0.64124  -0.63523  -0.62868  -0.62531  -0.62117
 Alpha  occ. eigenvalues --   -0.61520  -0.60836  -0.60480  -0.59700  -0.59343
 Alpha  occ. eigenvalues --   -0.58485  -0.58136  -0.57948  -0.57346  -0.56969
 Alpha  occ. eigenvalues --   -0.56419  -0.56148  -0.55682  -0.55192  -0.54863
 Alpha  occ. eigenvalues --   -0.54534  -0.54266  -0.54015  -0.53790  -0.53545
 Alpha  occ. eigenvalues --   -0.53505  -0.52755  -0.52087  -0.51931  -0.51807
 Alpha  occ. eigenvalues --   -0.51776  -0.51368  -0.51252  -0.51117  -0.50696
 Alpha  occ. eigenvalues --   -0.50608  -0.50399  -0.50251  -0.49810  -0.49544
 Alpha  occ. eigenvalues --   -0.49373  -0.49168  -0.48744  -0.48628  -0.48579
 Alpha  occ. eigenvalues --   -0.48357  -0.47701  -0.47560  -0.47103  -0.46877
 Alpha  occ. eigenvalues --   -0.46541  -0.46407  -0.46208  -0.46044  -0.45853
 Alpha  occ. eigenvalues --   -0.45797  -0.45569  -0.45213  -0.45075  -0.44902
 Alpha  occ. eigenvalues --   -0.44276  -0.44180  -0.44011  -0.43829  -0.43671
 Alpha  occ. eigenvalues --   -0.43520  -0.43432  -0.43381  -0.43169  -0.43002
 Alpha  occ. eigenvalues --   -0.42791  -0.42711  -0.42598  -0.42508  -0.42162
 Alpha  occ. eigenvalues --   -0.42050  -0.41850  -0.41499  -0.41373  -0.41211
 Alpha  occ. eigenvalues --   -0.40957  -0.40813  -0.40498  -0.40326  -0.40187
 Alpha  occ. eigenvalues --   -0.40091  -0.39792  -0.39668  -0.39421  -0.39359
 Alpha  occ. eigenvalues --   -0.39126  -0.38986  -0.38954  -0.38687  -0.38274
 Alpha  occ. eigenvalues --   -0.38254  -0.37728  -0.37249  -0.36846  -0.36674
 Alpha  occ. eigenvalues --   -0.36519  -0.36437  -0.36329  -0.36281  -0.35834
 Alpha  occ. eigenvalues --   -0.35444  -0.35036  -0.34915  -0.34042  -0.33440
 Alpha  occ. eigenvalues --   -0.33236  -0.33067  -0.32625  -0.30657  -0.29519
 Alpha  occ. eigenvalues --   -0.29346  -0.29087  -0.28358  -0.27304  -0.23448
 Alpha  occ. eigenvalues --   -0.21194
 Alpha virt. eigenvalues --   -0.06442  -0.03166   0.01315   0.04493   0.04893
 Alpha virt. eigenvalues --    0.05751   0.06129   0.06677   0.06998   0.07681
 Alpha virt. eigenvalues --    0.08499   0.10989   0.11512   0.11589   0.11845

 Mulliken charges:
               1
     1  Mg   0.815634
     2  C    0.013756
     3  C   -0.218807
     4  C   -0.162188
     5  C   -0.170276
     6  N   -0.630109
     7  C    0.298995
     8  C   -0.175533
     9  C   -0.118247
    10  C    0.346464
    11  C   -0.297751
    12  C   -0.170246
    13  C   -0.253048
    14  C    0.599933
    15  O   -0.509363
    16  O   -0.469002
    17  N   -0.750403
    18  C    0.335492
    19  C   -0.024881
    20  C    0.034753
    21  C    0.331618
    22  C   -0.366368
    23  C   -0.098626
    24  C   -0.248650
    25  N   -0.713421
    26  C    0.243132
    27  C    0.029128
    28  C    0.016255
    29  C    0.290020
    30  C   -0.368225
    31  C   -0.264809
    32  C   -0.313466
    33  N   -0.722710
    34  C    0.359980
    35  C    0.006173
    36  C    0.082550
    37  C    0.311473
    38  C   -0.379063
    39  C    0.293873
    40  O   -0.502765
    41  C   -0.283130
    42  C    0.614406
    43  O   -0.431362
    44  O   -0.455699
    45  C   -0.087509
    46  C    0.003960
    47  C   -0.120542
    48  C    0.163643
    49  C   -0.374566
    50  C   -0.233700
    51  C   -0.184969
    52  C   -0.164439
    53  C   -0.067820
    54  C   -0.309420
    55  C   -0.182178
    56  C   -0.174142
    57  C   -0.164099
    58  C   -0.058621
    59  C   -0.316223
    60  C   -0.170554
    61  C   -0.205507
    62  C   -0.152575
    63  C   -0.059984
    64  C   -0.297486
    65  C   -0.292627
    66  H    0.071670
    67  H    0.103463
    68  H    0.100534
    69  H    0.110413
    70  H    0.114584
    71  H    0.122456
    72  H    0.104331
    73  H    0.109366
    74  H    0.127069
    75  H    0.119119
    76  H    0.138655
    77  H    0.137857
    78  H    0.131895
    79  H    0.118136
    80  H    0.111038
    81  H    0.084884
    82  H    0.113246
    83  H    0.101963
    84  H    0.123771
    85  H    0.108397
    86  H    0.117870
    87  H    0.104516
    88  H    0.108554
    89  H    0.098806
    90  H    0.102168
    91  H    0.109443
    92  H    0.125095
    93  H    0.143144
    94  H    0.121494
    95  H    0.158622
    96  H    0.117998
    97  H    0.138229
    98  H    0.134377
    99  H    0.138934
   100  H    0.128931
   101  H    0.088743
   102  H    0.089592
   103  H    0.114738
   104  H    0.112111
   105  H    0.104080
   106  H    0.103314
   107  H    0.101671
   108  H    0.077571
   109  H    0.105576
   110  H    0.081103
   111  H    0.058648
   112  H    0.088925
   113  H    0.088408
   114  H    0.105306
   115  H    0.089409
   116  H    0.082799
   117  H    0.112684
   118  H    0.087074
   119  H    0.096024
   120  H    0.096793
   121  H    0.092208
   122  H    0.081759
   123  H    0.072787
   124  H    0.122591
   125  H    0.078305
   126  H    0.089841
   127  H    0.090561
   128  H    0.066000
   129  H    0.104400
   130  H    0.086620
   131  H    0.089425
   132  H    0.093093
   133  H    0.077892
   134  H    0.120864
   135  H    0.101125
   136  H    0.082613
   137  H    0.088185
 Sum of Mulliken charges =   0.00000

 Dipole moment (field-independent basis, Debye):
    X=              3.3607    Y=              3.9605    Z=              0.4910  Tot=              5.2174
 Quadrupole moment (field-independent basis, Debye-Ang):
   XX=           -350.5722   YY=           -396.2706   ZZ=           -395.6987
   XY=            -20.0223   XZ=             18.8578   YZ=             -5.5289

 Normal termination of Gaussian 09 at Fri Jul  5 17:10:06 2019.
