 Gaussian 16, Revision A.03,
 Gaussian 16:  ES64L-G16RevA.03 25-Dec-2016

 ----------------------------------------------------------------------
 # td=(NStates=1) iop(3/107=0140000000,3/108=0140000000) CAM-B3LYP/6-31
 G(d,p)
 ----------------------------------------------------------------------

 --
 TD
 --
 Symbolic Z-matrix:
 Charge =  0 Multiplicity = 1

                         Standard orientation:
 ---------------------------------------------------------------------
 Center     Atomic      Atomic             Coordinates (Angstroms)
 Number     Number       Type             X           Y           Z
 ---------------------------------------------------------------------
      1         12           0       -7.125033    0.766929    0.202778
      2          6           0       -4.814263   -2.043664    0.487362
      3          6           0       -4.754635    2.795764    1.128397
      4          6           0       -9.412363    3.098795   -0.275589
      5          6           0       -9.558774   -1.721182   -0.840898
      6          7           0       -5.137085    0.420734    0.706552
      7          6           0       -4.368231   -0.708839    0.894240
      8          6           0       -2.978644   -0.383390    1.260816
      9          6           0       -3.053544    1.078233    1.604837
     10          6           0       -4.396434    1.459488    1.148317
     11          6           0       -2.905083    1.293970    3.087186
     12          6           0       -1.942068   -0.760698    0.075854
     13          6           0       -0.496149   -0.426175    0.635125
     14          6           0        0.455097   -0.736375   -0.446118
     15          8           0        0.095105   -1.233411   -1.559937
     16          8           0        1.725819   -0.431262   -0.119740
     17          7           0       -7.120000    2.696870    0.297481
     18          6           0       -6.028869    3.390424    0.769463
     19          6           0       -6.384673    4.818693    0.790545
     20          6           0       -7.678475    4.855439    0.240840
     21          6           0       -8.058673    3.512490    0.080587
     22          6           0       -5.322779    5.874200    1.013404
     23          6           0       -8.357021    6.092015    0.104669
     24          6           0       -8.202504    7.257166    0.688443
     25          7           0       -9.144301    0.782068   -0.359943
     26          6           0       -9.933128    1.841422   -0.591158
     27          6           0      -11.228237    1.515554   -1.065392
     28          6           0      -11.272644    0.161763   -1.185810
     29          6           0       -9.911752   -0.342033   -0.740608
     30          6           0      -12.330077    2.510060   -1.371081
     31          6           0      -12.348232   -0.878092   -1.866590
     32          6           0      -11.907106   -1.249148   -3.308532
     33          7           0       -7.205032   -1.351107   -0.118487
     34          6           0       -8.315994   -2.177068   -0.471817
     35          6           0       -7.866026   -3.499566   -0.515531
     36          6           0       -6.606680   -3.539831   -0.082227
     37          6           0       -6.187462   -2.189821    0.083489
     38          6           0       -8.710238   -4.823154   -0.818292
     39          6           0       -5.392503   -4.323039    0.169937
     40          8           0       -5.174253   -5.591994    0.069882
     41          6           0       -4.180494   -3.312752    0.506116
     42          6           0       -3.569745   -3.858070    1.842189
     43          8           0       -3.727787   -3.202185    2.908941
     44          8           0       -2.794819   -4.808265    1.715667
     45          6           0       -1.975851   -5.229041    2.773865
     46          6           0        2.792551   -0.762717   -1.140593
     47          6           0        4.094975   -0.446954   -0.485999
     48          6           0        5.096542    0.324282   -0.984735
     49          6           0        5.043732    1.300323   -2.108138
     50          6           0        6.371355    0.527786   -0.156777
     51          6           0        7.608891   -0.117238   -0.932500
     52          6           0        8.836223   -0.164330    0.048515
     53          6           0       10.165546   -0.608459   -0.796989
     54          6           0       10.112500   -1.995237   -1.404355
     55          6           0       11.326099   -0.391394    0.114576
     56          6           0       12.696319   -0.465676   -0.728045
     57          6           0       13.895560   -0.087209    0.137290
     58          6           0       15.339974   -0.241215   -0.557872
     59          6           0       15.676492   -1.616638   -0.835068
     60          6           0       16.386674    0.459840    0.296447
     61          6           0       17.837047    0.504638   -0.170374
     62          6           0       18.852146    1.212424    0.713074
     63          6           0       20.257129    1.409852    0.177131
     64          6           0       20.210824    2.175967   -1.225506
     65          6           0       21.152270    1.822361    1.352069
     66          1           0       -4.116397    3.382664    1.555853
     67          1           0      -10.199077    3.882857   -0.470895
     68          1           0      -10.345002   -2.386416   -1.154458
     69          1           0       -2.693595   -0.935866    2.186227
     70          1           0       -2.211212    1.825030    1.259364
     71          1           0       -1.949296    0.909982    3.208759
     72          1           0       -2.990899    2.270877    3.567778
     73          1           0       -3.722249    0.944125    3.649534
     74          1           0       -1.999575   -1.796809   -0.016481
     75          1           0       -2.138451   -0.144644   -1.029027
     76          1           0       -0.292186    0.568591    0.727542
     77          1           0       -0.426770   -1.076705    1.417049
     78          1           0       -5.660937    6.736310    0.412120
     79          1           0       -5.282286    6.219817    1.976796
     80          1           0       -4.469187    5.394931    0.650614
     81          1           0       -9.125201    5.791938   -0.798948
     82          1           0       -8.778670    8.049178    0.189783
     83          1           0       -7.587735    7.582808    1.436343
     84          1           0      -12.013563    3.041726   -2.237848
     85          1           0      -13.210001    1.975592   -1.702005
     86          1           0      -12.515185    3.310274   -0.659050
     87          1           0      -12.502619   -1.842475   -1.295241
     88          1           0      -13.271990   -0.233990   -1.868039
     89          1           0      -12.750839   -1.769542   -3.766476
     90          1           0      -11.879037   -0.212744   -4.024353
     91          1           0      -11.135252   -1.916880   -3.352008
     92          1           0       -9.193924   -4.740292   -1.941088
     93          1           0       -8.169119   -5.784757   -1.011260
     94          1           0       -9.539513   -4.875930   -0.120506
     95          1           0       -3.471713   -3.559818   -0.202236
     96          1           0       -1.517878   -4.273848    3.252775
     97          1           0       -2.606716   -5.776719    3.667326
     98          1           0       -1.221835   -5.949190    2.440887
     99          1           0        2.562654   -1.879251   -1.489893
    100          1           0        2.509806   -0.172445   -2.122798
    101          1           0        4.302197   -0.925120    0.394215
    102          1           0        3.963584    1.283308   -2.662862
    103          1           0        5.231645    2.446513   -1.896717
    104          1           0        5.800581    1.272559   -3.009485
    105          1           0        6.596188    1.613428   -0.076599
    106          1           0        6.220582   -0.034596    0.704005
    107          1           0        7.442593   -1.190413   -1.189353
    108          1           0        8.066867    0.386862   -1.780825
    109          1           0        9.027130    0.738010    0.657078
    110          1           0        8.639637   -0.863968    0.843473
    111          1           0       10.298940   -0.023051   -1.709727
    112          1           0        9.317325   -2.085846   -2.110723
    113          1           0       11.065573   -2.282789   -2.206363
    114          1           0        9.874034   -2.734794   -0.575539
    115          1           0       11.368287    0.584785    0.654995
    116          1           0       11.546508   -1.196902    0.901449
    117          1           0       12.789070   -1.383046   -1.267054
    118          1           0       12.615743    0.505607   -1.461661
    119          1           0       13.788737    0.852011    0.550453
    120          1           0       14.090602   -0.837586    1.109929
    121          1           0       15.240385    0.373939   -1.415476
    122          1           0       15.745627   -2.197687   -0.029869
    123          1           0       14.795123   -2.085232   -1.355680
    124          1           0       16.608130   -1.722302   -1.520960
    125          1           0       16.244615    1.525216    0.607339
    126          1           0       16.343086   -0.207019    1.119089
    127          1           0       18.246182   -0.576679   -0.745582
    128          1           0       17.782201    1.150572   -1.118356
    129          1           0       18.592878    2.351518    0.733753
    130          1           0       18.864061    0.964271    1.909177
    131          1           0       20.632809    0.472841   -0.128618
    132          1           0       19.724918    3.339874   -0.997025
    133          1           0       21.291640    2.350688   -1.412911
    134          1           0       19.707865    1.445950   -1.844066
    135          1           0       21.212082    1.182359    2.253304
    136          1           0       22.155740    2.090759    0.962803
    137          1           0       20.883519    2.787751    1.838063
 ---------------------------------------------------------------------

 SCF Done:  E(RCAM-B3LYP) =  -2933.48415990     A.U. after   16 cycles

 Excitation energies and oscillator strengths:

 Excited State   1:      Singlet-A      1.9736 eV  628.22 nm  f=0.2593  <S**2>=0.000
     240 -> 243        0.22994
     241 -> 242        0.66563
 This state for optimization and/or second-order correction.
 Total Energy, E(TD-HF/TD-DFT) =  -2933.41163189
 Copying the excited state density for this state as the 1-particle RhoCI density.

 The electronic state is 1-A.
 Alpha  occ. eigenvalues --  -46.79878 -19.24289 -19.22474 -19.15851 -19.15204
 Alpha  occ. eigenvalues --  -19.14505 -14.37702 -14.35011 -14.34746 -14.34744
 Alpha  occ. eigenvalues --  -10.34234 -10.34128 -10.30414 -10.29754 -10.29587
 Alpha  occ. eigenvalues --  -10.26622 -10.25305 -10.25037 -10.24780 -10.24489
 Alpha  occ. eigenvalues --  -10.24431 -10.24376 -10.24178 -10.24170 -10.23982
 Alpha  occ. eigenvalues --  -10.23842 -10.23833 -10.23131 -10.23047 -10.22998
 Alpha  occ. eigenvalues --  -10.22957 -10.22889 -10.22809 -10.22803 -10.22798
 Alpha  occ. eigenvalues --  -10.22711 -10.22555 -10.22535 -10.22516 -10.22469
 Alpha  occ. eigenvalues --  -10.22395 -10.22393 -10.22294 -10.22203 -10.22114
 Alpha  occ. eigenvalues --  -10.22040 -10.21909 -10.21887 -10.21854 -10.21845
 Alpha  occ. eigenvalues --  -10.21607 -10.21567 -10.21446 -10.21311 -10.21244
 Alpha  occ. eigenvalues --  -10.20899 -10.20615 -10.20573 -10.20499 -10.20447
 Alpha  occ. eigenvalues --  -10.20380 -10.20214 -10.20028 -10.20028 -10.19526
 Alpha  occ. eigenvalues --   -3.08536  -1.83472  -1.83019  -1.82938  -1.18096
 Alpha  occ. eigenvalues --   -1.11317  -1.01626  -1.01443  -1.01206  -1.00975
 Alpha  occ. eigenvalues --   -0.99617  -0.98169  -0.97144  -0.87281  -0.86311
 Alpha  occ. eigenvalues --   -0.85582  -0.85343  -0.84365  -0.84341  -0.83550
 Alpha  occ. eigenvalues --   -0.83306  -0.82620  -0.82320  -0.81858  -0.81465
 Alpha  occ. eigenvalues --   -0.80127  -0.79751  -0.78961  -0.78011  -0.77919
 Alpha  occ. eigenvalues --   -0.77348  -0.76499  -0.75757  -0.75006  -0.74035
 Alpha  occ. eigenvalues --   -0.72970  -0.72368  -0.71828  -0.71194  -0.71132
 Alpha  occ. eigenvalues --   -0.70746  -0.70573  -0.69705  -0.68959  -0.68188
 Alpha  occ. eigenvalues --   -0.67034  -0.65881  -0.64796  -0.64486  -0.63765
 Alpha  occ. eigenvalues --   -0.63110  -0.62256  -0.61056  -0.60204  -0.60169
 Alpha  occ. eigenvalues --   -0.59996  -0.59097  -0.58808  -0.58408  -0.58213
 Alpha  occ. eigenvalues --   -0.57241  -0.56989  -0.56784  -0.56117  -0.55568
 Alpha  occ. eigenvalues --   -0.54666  -0.54509  -0.54262  -0.53588  -0.53105
 Alpha  occ. eigenvalues --   -0.52673  -0.52239  -0.51517  -0.51133  -0.50993
 Alpha  occ. eigenvalues --   -0.50839  -0.50621  -0.50470  -0.49834  -0.48999
 Alpha  occ. eigenvalues --   -0.48617  -0.48473  -0.48329  -0.48280  -0.48092
 Alpha  occ. eigenvalues --   -0.47716  -0.47646  -0.47460  -0.46974  -0.46753
 Alpha  occ. eigenvalues --   -0.46405  -0.46179  -0.45976  -0.45815  -0.45756
 Alpha  occ. eigenvalues --   -0.45503  -0.45334  -0.45278  -0.45155  -0.44944
 Alpha  occ. eigenvalues --   -0.44524  -0.44314  -0.44143  -0.43855  -0.43788
 Alpha  occ. eigenvalues --   -0.43176  -0.42985  -0.42744  -0.42666  -0.42598
 Alpha  occ. eigenvalues --   -0.42533  -0.42221  -0.41917  -0.41768  -0.41529
 Alpha  occ. eigenvalues --   -0.41259  -0.41046  -0.40840  -0.40745  -0.40496
 Alpha  occ. eigenvalues --   -0.40414  -0.39933  -0.39766  -0.39658  -0.39397
 Alpha  occ. eigenvalues --   -0.39196  -0.39115  -0.39077  -0.38831  -0.38631
 Alpha  occ. eigenvalues --   -0.38582  -0.38163  -0.38032  -0.37921  -0.37734
 Alpha  occ. eigenvalues --   -0.37722  -0.37579  -0.37348  -0.37088  -0.36988
 Alpha  occ. eigenvalues --   -0.36942  -0.36533  -0.36334  -0.36162  -0.36129
 Alpha  occ. eigenvalues --   -0.36082  -0.35754  -0.35271  -0.34965  -0.34889
 Alpha  occ. eigenvalues --   -0.34846  -0.34367  -0.33817  -0.33622  -0.33175
 Alpha  occ. eigenvalues --   -0.33109  -0.32872  -0.32608  -0.32429  -0.32316
 Alpha  occ. eigenvalues --   -0.32078  -0.31941  -0.30876  -0.30406  -0.29866
 Alpha  occ. eigenvalues --   -0.29447  -0.29278  -0.28565  -0.27750  -0.27449
 Alpha  occ. eigenvalues --   -0.26864  -0.25998  -0.25775  -0.24837  -0.21130
 Alpha  occ. eigenvalues --   -0.19586
 Alpha virt. eigenvalues --   -0.07027  -0.03397  -0.00023   0.01919   0.02824
 Alpha virt. eigenvalues --    0.03704   0.04369   0.04787   0.05314   0.05850
 Alpha virt. eigenvalues --    0.06584   0.08979   0.09322   0.09536   0.10005

 Mulliken charges:
               1
     1  Mg   0.829461
     2  C    0.126839
     3  C   -0.164126
     4  C   -0.205968
     5  C   -0.146935
     6  N   -0.645662
     7  C    0.300080
     8  C   -0.176268
     9  C   -0.153795
    10  C    0.385656
    11  C   -0.311935
    12  C   -0.153559
    13  C   -0.240729
    14  C    0.589498
    15  O   -0.504836
    16  O   -0.476562
    17  N   -0.733748
    18  C    0.258437
    19  C   -0.013513
    20  C   -0.002680
    21  C    0.377771
    22  C   -0.367074
    23  C   -0.046028
    24  C   -0.262994
    25  N   -0.678810
    26  C    0.329991
    27  C    0.048188
    28  C   -0.010056
    29  C    0.258166
    30  C   -0.384152
    31  C   -0.237128
    32  C   -0.291760
    33  N   -0.727374
    34  C    0.281147
    35  C   -0.022310
    36  C    0.105999
    37  C    0.273113
    38  C   -0.369310
    39  C    0.317228
    40  O   -0.506644
    41  C   -0.342756
    42  C    0.581900
    43  O   -0.521998
    44  O   -0.337146
    45  C   -0.095356
    46  C   -0.002109
    47  C   -0.119704
    48  C    0.160356
    49  C   -0.373508
    50  C   -0.224305
    51  C   -0.187151
    52  C   -0.196903
    53  C   -0.047477
    54  C   -0.307415
    55  C   -0.162643
    56  C   -0.182878
    57  C   -0.159456
    58  C   -0.064831
    59  C   -0.296464
    60  C   -0.153403
    61  C   -0.177912
    62  C   -0.140562
    63  C   -0.057971
    64  C   -0.299742
    65  C   -0.330296
    66  H    0.049707
    67  H    0.067836
    68  H    0.088542
    69  H    0.131831
    70  H    0.097732
    71  H    0.111492
    72  H    0.102799
    73  H    0.125542
    74  H    0.125156
    75  H    0.103805
    76  H    0.140175
    77  H    0.143601
    78  H    0.118032
    79  H    0.128705
    80  H    0.124317
    81  H    0.063780
    82  H    0.097280
    83  H    0.105724
    84  H    0.130403
    85  H    0.113375
    86  H    0.127208
    87  H    0.110014
    88  H    0.101039
    89  H    0.107277
    90  H    0.084728
    91  H    0.126577
    92  H    0.081652
    93  H    0.148595
    94  H    0.132686
    95  H    0.161585
    96  H    0.125754
    97  H    0.121408
    98  H    0.137194
    99  H    0.129291
   100  H    0.124963
   101  H    0.091963
   102  H    0.089496
   103  H    0.113996
   104  H    0.115692
   105  H    0.111274
   106  H    0.103174
   107  H    0.104209
   108  H    0.103930
   109  H    0.090986
   110  H    0.095358
   111  H    0.087777
   112  H    0.112120
   113  H    0.074955
   114  H    0.099517
   115  H    0.088290
   116  H    0.087450
   117  H    0.104876
   118  H    0.063560
   119  H    0.098367
   120  H    0.040201
   121  H    0.081878
   122  H    0.114121
   123  H    0.088687
   124  H    0.094291
   125  H    0.084755
   126  H    0.090292
   127  H    0.043341
   128  H    0.087263
   129  H    0.076274
   130  H    0.065232
   131  H    0.096474
   132  H    0.069329
   133  H    0.107403
   134  H    0.128135
   135  H    0.112971
   136  H    0.091045
   137  H    0.093627
 Sum of Mulliken charges =  -0.00000

 Dipole moment (field-independent basis, Debye):
    X=              3.1835    Y=              3.7460    Z=              0.2210  Tot=              4.9210
 Quadrupole moment (field-independent basis, Debye-Ang):
   XX=           -361.5840   YY=           -396.8212   ZZ=           -397.0409
   XY=            -14.9931   XZ=             12.9086   YZ=             -1.8438

 Normal termination of Gaussian 16 at Sat Sep  7 08:35:36 2019.
