 Gaussian 16, Revision A.03,
 Gaussian 16:  ES64L-G16RevA.03 25-Dec-2016

 ----------------------------------------------------------------------
 # td=(NStates=1) iop(3/107=0140000000,3/108=0140000000) CAM-B3LYP/6-31
 G(d,p)
 ----------------------------------------------------------------------

 --
 TD
 --
 Symbolic Z-matrix:
 Charge =  0 Multiplicity = 1

                         Standard orientation:
 ---------------------------------------------------------------------
 Center     Atomic      Atomic             Coordinates (Angstroms)
 Number     Number       Type             X           Y           Z
 ---------------------------------------------------------------------
      1         12           0       -7.121519    0.545998    0.042579
      2          6           0       -4.816848   -1.994836    0.450067
      3          6           0       -4.769844    2.792005    1.088998
      4          6           0       -9.332585    3.146983   -0.218507
      5          6           0       -9.521132   -1.714246   -0.943416
      6          7           0       -5.110282    0.325407    0.657650
      7          6           0       -4.348723   -0.749790    0.776606
      8          6           0       -2.947799   -0.472869    1.224624
      9          6           0       -3.031941    1.033871    1.741505
     10          6           0       -4.380601    1.492891    1.083896
     11          6           0       -2.976498    1.280870    3.266480
     12          6           0       -1.908682   -0.674153    0.059561
     13          6           0       -0.477324   -0.487057    0.626817
     14          6           0        0.470188   -0.667065   -0.561117
     15          8           0        0.062174   -0.973555   -1.681281
     16          8           0        1.735751   -0.230090   -0.251633
     17          7           0       -7.137077    2.651389    0.317009
     18          6           0       -6.031309    3.336643    0.840650
     19          6           0       -6.301793    4.776244    0.728932
     20          6           0       -7.631241    4.895029    0.417413
     21          6           0       -8.052963    3.548628    0.092282
     22          6           0       -5.421686    5.845630    1.217420
     23          6           0       -8.468507    6.070277    0.145642
     24          6           0       -8.329683    7.254408    0.736722
     25          7           0       -9.118535    0.706169   -0.420326
     26          6           0       -9.782060    1.873074   -0.612448
     27          6           0      -11.208595    1.560888   -1.079083
     28          6           0      -11.233444    0.225251   -1.343676
     29          6           0       -9.883421   -0.355494   -1.013101
     30          6           0      -12.319680    2.508282   -1.295010
     31          6           0      -12.423975   -0.743366   -1.683872
     32          6           0      -12.460424   -1.142156   -3.169238
     33          7           0       -7.219455   -1.458047   -0.257325
     34          6           0       -8.270715   -2.219402   -0.691893
     35          6           0       -7.866673   -3.617993   -0.544374
     36          6           0       -6.499604   -3.554611   -0.210359
     37          6           0       -6.148642   -2.275918   -0.020214
     38          6           0       -8.774217   -4.725325   -0.973305
     39          6           0       -5.281364   -4.408144    0.001787
     40          8           0       -5.113191   -5.617678   -0.052380
     41          6           0       -4.117186   -3.427468    0.529381
     42          6           0       -3.507990   -3.745502    1.898747
     43          8           0       -3.933670   -3.284615    2.885487
     44          8           0       -2.695098   -4.852946    1.861685
     45          6           0       -2.294211   -5.398397    3.030756
     46          6           0        2.835353   -0.553880   -1.210193
     47          6           0        4.109556   -0.438514   -0.532549
     48          6           0        5.178909    0.540114   -0.823796
     49          6           0        4.999217    1.551905   -1.851754
     50          6           0        6.359148    0.467379   -0.046648
     51          6           0        7.558457   -0.029269   -0.901588
     52          6           0        8.829028   -0.077196   -0.014539
     53          6           0       10.177296   -0.524180   -0.732917
     54          6           0       10.042928   -2.027714   -1.289634
     55          6           0       11.418619   -0.332570    0.148944
     56          6           0       12.700682   -0.452382   -0.579305
     57          6           0       13.951733   -0.079907    0.330104
     58          6           0       15.374545   -0.262951   -0.421733
     59          6           0       15.605214   -1.638286   -0.991327
     60          6           0       16.420565    0.351328    0.340235
     61          6           0       17.833600    0.464623   -0.278022
     62          6           0       18.837774    1.163772    0.628527
     63          6           0       20.320230    1.319292    0.029483
     64          6           0       20.485998    2.149080   -1.173458
     65          6           0       21.323143    1.729432    1.088189
     66          1           0       -3.818955    3.217237    1.385882
     67          1           0      -10.199117    3.938509   -0.442205
     68          1           0      -10.175758   -2.214094   -1.468324
     69          1           0       -2.822245   -1.183630    2.074686
     70          1           0       -2.436201    1.734754    1.168313
     71          1           0       -1.941470    1.130129    3.703723
     72          1           0       -3.339945    2.287568    3.426368
     73          1           0       -3.690104    0.470022    3.679888
     74          1           0       -2.012852   -1.563750   -0.531459
     75          1           0       -2.120990    0.069237   -0.734782
     76          1           0       -0.105378    0.342489    1.033436
     77          1           0       -0.366167   -1.105063    1.463863
     78          1           0       -5.481488    6.766180    0.451342
     79          1           0       -5.540496    6.163855    2.277735
     80          1           0       -4.309293    5.611499    1.162033
     81          1           0       -9.153916    6.139898   -0.764759
     82          1           0       -9.237207    8.144741    0.317379
     83          1           0       -7.713865    7.344951    1.591093
     84          1           0      -12.121512    3.143549   -2.079902
     85          1           0      -13.179619    1.754517   -1.516554
     86          1           0      -12.449690    3.087582   -0.424434
     87          1           0      -12.389408   -1.588685   -0.954745
     88          1           0      -13.403350   -0.272130   -1.612623
     89          1           0      -13.238260   -1.708237   -3.455596
     90          1           0      -12.642526   -0.350442   -3.896204
     91          1           0      -11.267613   -1.491422   -3.419269
     92          1           0       -8.989628   -4.567986   -2.065312
     93          1           0       -8.033879   -5.689851   -1.241389
     94          1           0       -9.417452   -5.086837   -0.072126
     95          1           0       -3.190985   -3.290023   -0.181995
     96          1           0       -1.560113   -4.675921    3.466457
     97          1           0       -3.091021   -5.936611    3.859041
     98          1           0       -1.522760   -6.175143    2.967140
     99          1           0        2.461844   -1.639966   -1.518169
    100          1           0        2.934031   -0.017231   -2.260074
    101          1           0        4.331727   -1.130008    0.399956
    102          1           0        3.922422    1.811575   -2.178258
    103          1           0        5.458630    2.510623   -1.367294
    104          1           0        5.681789    1.280955   -2.608025
    105          1           0        6.681011    1.414251    0.380024
    106          1           0        6.424646   -0.297559    0.812022
    107          1           0        7.191225   -0.930085   -1.450840
    108          1           0        7.477917    0.667721   -1.893391
    109          1           0        9.077282    0.994004    0.421068
    110          1           0        8.726620   -0.462213    0.993970
    111          1           0       10.340210    0.106827   -1.609023
    112          1           0        9.063429   -2.455522   -1.714650
    113          1           0       10.860743   -2.445539   -2.135044
    114          1           0        9.988001   -2.661793   -0.478839
    115          1           0       11.561134    0.720789    0.530593
    116          1           0       11.347326   -0.939617    1.145644
    117          1           0       12.715672   -1.472282   -1.058891
    118          1           0       12.711512    0.125864   -1.368038
    119          1           0       13.546654    1.005146    0.631396
    120          1           0       14.116651   -0.768303    1.135484
    121          1           0       15.432602    0.314559   -1.359453
    122          1           0       15.900653   -2.314177   -0.049823
    123          1           0       14.838669   -2.180396   -1.462227
    124          1           0       16.515394   -1.709690   -1.704401
    125          1           0       16.192444    1.418359    0.593004
    126          1           0       16.668079   -0.315559    1.264094
    127          1           0       18.159911   -0.289444   -0.723514
    128          1           0       17.785657    0.899636   -1.090778
    129          1           0       18.274355    2.136496    0.791018
    130          1           0       18.921254    0.789488    1.748748
    131          1           0       20.662928    0.300119   -0.322040
    132          1           0       20.356116    3.266748   -0.991728
    133          1           0       21.556566    2.147069   -1.376776
    134          1           0       19.773242    2.003948   -2.091683
    135          1           0       21.140362    1.064158    1.925180
    136          1           0       22.490347    1.935516    0.753321
    137          1           0       20.717201    2.689746    1.535521
 ---------------------------------------------------------------------

 SCF Done:  E(RCAM-B3LYP) =  -2933.38241778     A.U. after   16 cycles

 Excitation energies and oscillator strengths:

 Excited State   1:      Singlet-A      2.0068 eV  617.83 nm  f=0.2893  <S**2>=0.000
     240 -> 243        0.23107
     241 -> 242        0.66640
 This state for optimization and/or second-order correction.
 Total Energy, E(TD-HF/TD-DFT) =  -2933.30867080
 Copying the excited state density for this state as the 1-particle RhoCI density.

 The electronic state is 1-A.
 Alpha  occ. eigenvalues --  -46.79910 -19.22010 -19.21801 -19.17199 -19.16762
 Alpha  occ. eigenvalues --  -19.16185 -14.37236 -14.35388 -14.35237 -14.34018
 Alpha  occ. eigenvalues --  -10.34651 -10.34529 -10.31074 -10.28814 -10.27532
 Alpha  occ. eigenvalues --  -10.25953 -10.25815 -10.25134 -10.25051 -10.25032
 Alpha  occ. eigenvalues --  -10.24992 -10.24646 -10.24192 -10.23883 -10.23758
 Alpha  occ. eigenvalues --  -10.23582 -10.23560 -10.23473 -10.23414 -10.23325
 Alpha  occ. eigenvalues --  -10.23316 -10.23239 -10.23134 -10.23132 -10.23041
 Alpha  occ. eigenvalues --  -10.22967 -10.22957 -10.22929 -10.22879 -10.22634
 Alpha  occ. eigenvalues --  -10.22615 -10.22593 -10.22562 -10.22442 -10.22351
 Alpha  occ. eigenvalues --  -10.22313 -10.22243 -10.22240 -10.22228 -10.22175
 Alpha  occ. eigenvalues --  -10.22167 -10.21961 -10.21924 -10.21817 -10.21790
 Alpha  occ. eigenvalues --  -10.21712 -10.21519 -10.21488 -10.21257 -10.21062
 Alpha  occ. eigenvalues --  -10.21039 -10.20710 -10.20650 -10.19777 -10.17163
 Alpha  occ. eigenvalues --   -3.08391  -1.83350  -1.82851  -1.82788  -1.14649
 Alpha  occ. eigenvalues --   -1.10958  -1.06981  -1.05457  -1.03375  -0.99581
 Alpha  occ. eigenvalues --   -0.98540  -0.97429  -0.95740  -0.87312  -0.86394
 Alpha  occ. eigenvalues --   -0.86225  -0.84592  -0.84378  -0.84217  -0.84028
 Alpha  occ. eigenvalues --   -0.83279  -0.83048  -0.82430  -0.81303  -0.80898
 Alpha  occ. eigenvalues --   -0.80333  -0.79426  -0.78907  -0.78757  -0.77848
 Alpha  occ. eigenvalues --   -0.77511  -0.76554  -0.76108  -0.75681  -0.73404
 Alpha  occ. eigenvalues --   -0.73017  -0.72362  -0.71623  -0.71164  -0.70711
 Alpha  occ. eigenvalues --   -0.70371  -0.70225  -0.69587  -0.68213  -0.67230
 Alpha  occ. eigenvalues --   -0.66733  -0.66230  -0.65349  -0.65181  -0.63563
 Alpha  occ. eigenvalues --   -0.63270  -0.61957  -0.61863  -0.60908  -0.60321
 Alpha  occ. eigenvalues --   -0.60191  -0.59758  -0.59200  -0.58681  -0.57990
 Alpha  occ. eigenvalues --   -0.57335  -0.55874  -0.55677  -0.55310  -0.54777
 Alpha  occ. eigenvalues --   -0.54661  -0.54108  -0.53130  -0.52628  -0.52387
 Alpha  occ. eigenvalues --   -0.52151  -0.51685  -0.51629  -0.51058  -0.50713
 Alpha  occ. eigenvalues --   -0.50677  -0.50371  -0.50021  -0.49636  -0.48823
 Alpha  occ. eigenvalues --   -0.48648  -0.48428  -0.47934  -0.47809  -0.47720
 Alpha  occ. eigenvalues --   -0.47651  -0.47418  -0.47316  -0.47212  -0.46879
 Alpha  occ. eigenvalues --   -0.46634  -0.46460  -0.46392  -0.45894  -0.45728
 Alpha  occ. eigenvalues --   -0.45591  -0.45320  -0.45268  -0.45123  -0.44712
 Alpha  occ. eigenvalues --   -0.44513  -0.44171  -0.44067  -0.44011  -0.43849
 Alpha  occ. eigenvalues --   -0.43634  -0.43495  -0.43431  -0.43095  -0.42855
 Alpha  occ. eigenvalues --   -0.42800  -0.42148  -0.41960  -0.41541  -0.41403
 Alpha  occ. eigenvalues --   -0.41158  -0.40963  -0.40812  -0.40582  -0.40472
 Alpha  occ. eigenvalues --   -0.40387  -0.40297  -0.39883  -0.39645  -0.39553
 Alpha  occ. eigenvalues --   -0.39284  -0.39249  -0.39044  -0.38914  -0.38802
 Alpha  occ. eigenvalues --   -0.38516  -0.38184  -0.38148  -0.38098  -0.37944
 Alpha  occ. eigenvalues --   -0.37457  -0.37334  -0.37064  -0.36889  -0.36538
 Alpha  occ. eigenvalues --   -0.36288  -0.36106  -0.36033  -0.35851  -0.35777
 Alpha  occ. eigenvalues --   -0.35576  -0.35467  -0.35371  -0.35164  -0.35001
 Alpha  occ. eigenvalues --   -0.34590  -0.34384  -0.34029  -0.33573  -0.33453
 Alpha  occ. eigenvalues --   -0.33062  -0.32753  -0.32462  -0.32366  -0.32275
 Alpha  occ. eigenvalues --   -0.32147  -0.31967  -0.31873  -0.31250  -0.30579
 Alpha  occ. eigenvalues --   -0.30300  -0.30138  -0.29743  -0.28161  -0.26766
 Alpha  occ. eigenvalues --   -0.26275  -0.25745  -0.25603  -0.25339  -0.21421
 Alpha  occ. eigenvalues --   -0.19867
 Alpha virt. eigenvalues --   -0.07205  -0.03430   0.00386   0.00669   0.02327
 Alpha virt. eigenvalues --    0.03665   0.03769   0.04858   0.05437   0.05463
 Alpha virt. eigenvalues --    0.06722   0.07913   0.08904   0.09007   0.09188

 Mulliken charges:
               1
     1  Mg   0.806659
     2  C    0.047980
     3  C   -0.133622
     4  C   -0.174585
     5  C   -0.122868
     6  N   -0.634449
     7  C    0.327735
     8  C   -0.177898
     9  C   -0.140873
    10  C    0.240841
    11  C   -0.295633
    12  C   -0.174986
    13  C   -0.259549
    14  C    0.602997
    15  O   -0.470669
    16  O   -0.483092
    17  N   -0.668444
    18  C    0.266007
    19  C    0.037236
    20  C    0.023949
    21  C    0.325783
    22  C   -0.394319
    23  C   -0.072674
    24  C   -0.227048
    25  N   -0.647695
    26  C    0.295340
    27  C    0.001640
    28  C    0.034578
    29  C    0.220647
    30  C   -0.366785
    31  C   -0.240536
    32  C   -0.300350
    33  N   -0.740027
    34  C    0.279302
    35  C   -0.018114
    36  C    0.039231
    37  C    0.312229
    38  C   -0.395219
    39  C    0.369610
    40  O   -0.450118
    41  C   -0.305581
    42  C    0.600947
    43  O   -0.414495
    44  O   -0.416327
    45  C   -0.075932
    46  C    0.008961
    47  C   -0.122976
    48  C    0.131943
    49  C   -0.368715
    50  C   -0.225130
    51  C   -0.171440
    52  C   -0.188709
    53  C   -0.045902
    54  C   -0.320776
    55  C   -0.166389
    56  C   -0.183748
    57  C   -0.168176
    58  C   -0.059031
    59  C   -0.310050
    60  C   -0.156399
    61  C   -0.158833
    62  C   -0.177048
    63  C   -0.041286
    64  C   -0.294244
    65  C   -0.301065
    66  H    0.075717
    67  H    0.069517
    68  H    0.076286
    69  H    0.114374
    70  H    0.105060
    71  H    0.108607
    72  H    0.113906
    73  H    0.121138
    74  H    0.134636
    75  H    0.118250
    76  H    0.142768
    77  H    0.134142
    78  H    0.110344
    79  H    0.129103
    80  H    0.104099
    81  H    0.098558
    82  H    0.066776
    83  H    0.106262
    84  H    0.136139
    85  H    0.101823
    86  H    0.128071
    87  H    0.119284
    88  H    0.102118
    89  H    0.115911
    90  H    0.110244
    91  H    0.076445
    92  H    0.141993
    93  H    0.107971
    94  H    0.137953
    95  H    0.135938
    96  H    0.095638
    97  H    0.096759
    98  H    0.119061
    99  H    0.109768
   100  H    0.104153
   101  H    0.075021
   102  H    0.129226
   103  H    0.106738
   104  H    0.138240
   105  H    0.105546
   106  H    0.101299
   107  H    0.109976
   108  H    0.066625
   109  H    0.079835
   110  H    0.106292
   111  H    0.093716
   112  H    0.092830
   113  H    0.079141
   114  H    0.117266
   115  H    0.075241
   116  H    0.077191
   117  H    0.084157
   118  H    0.108505
   119  H    0.076225
   120  H    0.103448
   121  H    0.076672
   122  H    0.070207
   123  H    0.121647
   124  H    0.096168
   125  H    0.089279
   126  H    0.069008
   127  H    0.086926
   128  H    0.091738
   129  H    0.080428
   130  H    0.071203
   131  H    0.083989
   132  H    0.086224
   133  H    0.101020
   134  H    0.087733
   135  H    0.111046
   136  H    0.091802
   137  H    0.077777
 Sum of Mulliken charges =  -0.00000

 Dipole moment (field-independent basis, Debye):
    X=              2.9970    Y=              4.6567    Z=             -0.1518  Tot=              5.5399
 Quadrupole moment (field-independent basis, Debye-Ang):
   XX=           -343.9953   YY=           -404.5954   ZZ=           -395.2145
   XY=            -21.0410   XZ=              7.5056   YZ=             -3.2443

 Normal termination of Gaussian 16 at Sat Sep  7 19:22:10 2019.
