 Gaussian 09, Revision D.01,
 Gaussian 09:  ES64L-G09RevD.01 24-Apr-2013

 -------------------------------------
 # td=(NStates=1) CAM-B3LYP/6-31G(d,p)
 -------------------------------------

 --
 TD
 --
 Symbolic Z-matrix:
 Charge =  0 Multiplicity = 1

                         Standard orientation:
 ---------------------------------------------------------------------
 Center     Atomic      Atomic             Coordinates (Angstroms)
 Number     Number       Type             X           Y           Z
 ---------------------------------------------------------------------
      1         12           0       -7.156599    0.542951    0.192632
      2          6           0       -4.806442   -1.989466    0.579622
      3          6           0       -4.746559    2.800821    0.933338
      4          6           0       -9.475392    3.075265   -0.415050
      5          6           0       -9.485640   -1.814049   -0.801901
      6          7           0       -5.074772    0.504109    0.620219
      7          6           0       -4.264245   -0.636264    0.799902
      8          6           0       -2.920594   -0.385260    1.174711
      9          6           0       -2.997508    1.089269    1.495176
     10          6           0       -4.305803    1.532935    0.985448
     11          6           0       -2.925386    1.469813    2.980962
     12          6           0       -1.939353   -0.647190   -0.008939
     13          6           0       -0.439755   -0.510068    0.448868
     14          6           0        0.556816   -0.759173   -0.655337
     15          8           0        0.220374   -1.035269   -1.774353
     16          8           0        1.768568   -0.613655   -0.227615
     17          7           0       -7.133766    2.692556    0.354619
     18          6           0       -6.053481    3.456569    0.701491
     19          6           0       -6.416447    4.815310    0.679057
     20          6           0       -7.755159    4.887250    0.283708
     21          6           0       -8.194914    3.515663    0.042054
     22          6           0       -5.393263    5.958103    0.919019
     23          6           0       -8.617011    6.164815    0.199105
     24          6           0       -8.492099    7.321867    0.876813
     25          7           0       -9.173219    0.732215   -0.379737
     26          6           0       -9.934822    1.824525   -0.638569
     27          6           0      -11.249369    1.386004   -1.151469
     28          6           0      -11.265475    0.109420   -1.191470
     29          6           0       -9.923789   -0.452902   -0.844240
     30          6           0      -12.352605    2.299811   -1.445065
     31          6           0      -12.347283   -0.822089   -1.720575
     32          6           0      -12.329965   -1.179833   -3.200802
     33          7           0       -7.256540   -1.364033   -0.044323
     34          6           0       -8.265416   -2.184914   -0.388640
     35          6           0       -7.801429   -3.595159   -0.456827
     36          6           0       -6.456560   -3.480598   -0.036534
     37          6           0       -6.147837   -2.155802    0.201717
     38          6           0       -8.646339   -4.865243   -0.772871
     39          6           0       -5.311641   -4.356934    0.287621
     40          8           0       -5.105486   -5.556237    0.241210
     41          6           0       -4.205891   -3.317981    0.608931
     42          6           0       -3.570539   -3.537526    1.961356
     43          8           0       -3.941268   -3.068125    2.984413
     44          8           0       -2.729267   -4.595238    1.834698
     45          6           0       -2.141794   -5.000488    3.084679
     46          6           0        2.855848   -0.920294   -1.218810
     47          6           0        4.088723   -0.636933   -0.551404
     48          6           0        5.111596    0.164491   -1.054654
     49          6           0        4.957430    1.000574   -2.259887
     50          6           0        6.404589    0.334443   -0.270026
     51          6           0        7.600990   -0.229696   -1.046259
     52          6           0        8.960879   -0.125197   -0.317144
     53          6           0       10.247903   -0.616356   -0.980501
     54          6           0       10.020319   -2.197153   -1.306600
     55          6           0       11.418916   -0.205394   -0.093045
     56          6           0       12.893474   -0.437132   -0.780949
     57          6           0       13.973496    0.050565    0.163969
     58          6           0       15.258074   -0.173021   -0.441928
     59          6           0       15.664450   -1.648733   -0.888624
     60          6           0       16.505612    0.261069    0.535374
     61          6           0       17.804698    0.531162   -0.110220
     62          6           0       18.923345    1.155427    0.805621
     63          6           0       20.275446    1.367140    0.357101
     64          6           0       20.282490    2.199514   -1.024430
     65          6           0       21.208722    2.188802    1.390501
     66          1           0       -3.849416    3.369583    1.377871
     67          1           0      -10.186285    3.857669   -0.392945
     68          1           0      -10.277234   -2.615620   -1.195698
     69          1           0       -2.527456   -0.931609    2.029266
     70          1           0       -2.130094    1.711641    0.887188
     71          1           0       -2.031669    0.881062    3.538603
     72          1           0       -2.741222    2.672653    3.181382
     73          1           0       -3.880558    1.195748    3.574122
     74          1           0       -2.021555   -1.622039   -0.297252
     75          1           0       -2.117822    0.006056   -0.847376
     76          1           0       -0.358018    0.542736    0.900194
     77          1           0       -0.354993   -1.287707    1.314584
     78          1           0       -5.621943    6.722530    0.466199
     79          1           0       -5.187097    6.168476    1.984239
     80          1           0       -4.393728    5.398615    0.606866
     81          1           0       -9.385897    6.106983   -0.587246
     82          1           0       -9.251221    7.995952    0.546578
     83          1           0       -7.771272    7.587785    1.692205
     84          1           0      -12.026092    3.048366   -2.131673
     85          1           0      -13.116936    1.665481   -1.813778
     86          1           0      -12.693461    2.959358   -0.515723
     87          1           0      -12.484692   -1.679630   -1.112204
     88          1           0      -13.270779   -0.338970   -1.278785
     89          1           0      -13.102015   -2.113326   -3.116587
     90          1           0      -12.644653   -0.370893   -3.853141
     91          1           0      -11.395537   -1.432503   -3.457350
     92          1           0       -9.091075   -4.941925   -1.659514
     93          1           0       -7.940474   -5.699381   -0.509514
     94          1           0       -9.263040   -4.918991    0.076125
     95          1           0       -3.433247   -3.405092   -0.361821
     96          1           0       -1.617294   -4.176068    3.622963
     97          1           0       -2.897540   -5.216200    3.889463
     98          1           0       -1.326368   -5.777802    2.882375
     99          1           0        3.084307   -2.071433   -1.355761
    100          1           0        2.938834   -0.494137   -2.318682
    101          1           0        4.244171   -1.167294    0.337927
    102          1           0        3.853551    0.812959   -2.740766
    103          1           0        5.238211    2.103795   -2.284402
    104          1           0        5.431021    0.600093   -2.962335
    105          1           0        6.447005    1.320318    0.083249
    106          1           0        6.381920   -0.175295    0.708486
    107          1           0        7.524748   -1.314493   -1.312555
    108          1           0        7.717453    0.423646   -1.909630
    109          1           0        8.896334    1.077117   -0.053015
    110          1           0        8.735384   -0.644984    0.777473
    111          1           0       10.467970    0.051000   -1.798960
    112          1           0        9.197473   -2.343694   -2.026368
    113          1           0       10.978243   -2.520279   -1.756476
    114          1           0       10.197975   -2.708283   -0.211097
    115          1           0       11.372552    0.959521    0.074132
    116          1           0       11.420102   -0.588891    0.864484
    117          1           0       13.109179   -1.562226   -1.010206
    118          1           0       12.814084    0.168292   -1.787630
    119          1           0       13.772590    1.308407    0.384819
    120          1           0       13.820032   -0.326664    1.100350
    121          1           0       15.351041    0.531779   -1.461792
    122          1           0       15.598005   -2.108570    0.026730
    123          1           0       15.009547   -2.059354   -1.787950
    124          1           0       16.603512   -1.656858   -1.318254
    125          1           0       15.956626    1.268224    0.914792
    126          1           0       16.478096   -0.385737    1.259421
    127          1           0       18.350695   -0.439217   -0.203154
    128          1           0       17.604924    1.101735   -0.973453
    129          1           0       18.725045    2.164311    1.188808
    130          1           0       18.962899    0.653203    1.730807
    131          1           0       20.777658    0.387241    0.215588
    132          1           0       20.168841    3.393639   -0.835991
    133          1           0       21.482965    2.089789   -1.365157
    134          1           0       19.349814    1.557873   -1.659922
    135          1           0       21.247154    1.803542    2.391674
    136          1           0       22.249095    2.215196    0.990611
    137          1           0       20.471463    3.212976    1.470486
 ---------------------------------------------------------------------

 SCF Done:  E(RCAM-B3LYP) =  -2932.56096778     A.U. after   16 cycles

 Excitation energies and oscillator strengths:

 Excited State   1:      Singlet-A      1.9094 eV  649.35 nm  f=0.2866  <S**2>=0.000
     240 -> 243        0.23911
     241 -> 242        0.66412
 This state for optimization and/or second-order correction.
 Total Energy, E(TD-HF/TD-KS) =  -2932.49079983
 Copying the excited state density for this state as the 1-particle RhoCI density.

 The electronic state is 1-A.
 Alpha  occ. eigenvalues --  -46.84081 -19.27788 -19.26668 -19.22026 -19.21100
 Alpha  occ. eigenvalues --  -19.20239 -14.41890 -14.39422 -14.39393 -14.38483
 Alpha  occ. eigenvalues --  -10.39434 -10.38836 -10.35643 -10.33539 -10.31980
 Alpha  occ. eigenvalues --  -10.31523 -10.29655 -10.29222 -10.29195 -10.29059
 Alpha  occ. eigenvalues --  -10.29050 -10.28955 -10.28910 -10.28882 -10.28780
 Alpha  occ. eigenvalues --  -10.28756 -10.28678 -10.28473 -10.28055 -10.28018
 Alpha  occ. eigenvalues --  -10.28001 -10.27435 -10.27413 -10.27355 -10.27310
 Alpha  occ. eigenvalues --  -10.27252 -10.27134 -10.27103 -10.26897 -10.26587
 Alpha  occ. eigenvalues --  -10.26469 -10.26392 -10.26193 -10.26119 -10.26055
 Alpha  occ. eigenvalues --  -10.25996 -10.25851 -10.25839 -10.25822 -10.25815
 Alpha  occ. eigenvalues --  -10.25794 -10.25779 -10.25759 -10.25714 -10.25632
 Alpha  occ. eigenvalues --  -10.25585 -10.25577 -10.25553 -10.25461 -10.25133
 Alpha  occ. eigenvalues --  -10.24939 -10.24869 -10.24630 -10.24616 -10.23874
 Alpha  occ. eigenvalues --   -3.13101  -1.87806  -1.87323  -1.87299  -1.19799
 Alpha  occ. eigenvalues --   -1.19123  -1.11405  -1.10856  -1.09725  -1.05217
 Alpha  occ. eigenvalues --   -1.04064  -1.02140  -1.00786  -0.93981  -0.91747
 Alpha  occ. eigenvalues --   -0.90982  -0.90813  -0.89497  -0.89333  -0.88549
 Alpha  occ. eigenvalues --   -0.87852  -0.87336  -0.86713  -0.86394  -0.86318
 Alpha  occ. eigenvalues --   -0.84916  -0.84235  -0.84063  -0.83562  -0.82579
 Alpha  occ. eigenvalues --   -0.82016  -0.81174  -0.80125  -0.79683  -0.78569
 Alpha  occ. eigenvalues --   -0.77563  -0.76699  -0.76423  -0.75863  -0.75662
 Alpha  occ. eigenvalues --   -0.74991  -0.74887  -0.73210  -0.72720  -0.72627
 Alpha  occ. eigenvalues --   -0.71210  -0.71051  -0.70065  -0.69265  -0.68499
 Alpha  occ. eigenvalues --   -0.67171  -0.66289  -0.65065  -0.64914  -0.64474
 Alpha  occ. eigenvalues --   -0.64236  -0.63749  -0.63130  -0.61817  -0.61706
 Alpha  occ. eigenvalues --   -0.61247  -0.61007  -0.60255  -0.59995  -0.59452
 Alpha  occ. eigenvalues --   -0.58509  -0.58195  -0.57322  -0.57067  -0.56920
 Alpha  occ. eigenvalues --   -0.56132  -0.55659  -0.55531  -0.54969  -0.54895
 Alpha  occ. eigenvalues --   -0.54601  -0.54362  -0.54126  -0.54103  -0.53626
 Alpha  occ. eigenvalues --   -0.52826  -0.52491  -0.52169  -0.52000  -0.51573
 Alpha  occ. eigenvalues --   -0.51441  -0.51143  -0.50936  -0.50616  -0.50462
 Alpha  occ. eigenvalues --   -0.50355  -0.50174  -0.49693  -0.49493  -0.49463
 Alpha  occ. eigenvalues --   -0.49357  -0.49188  -0.48982  -0.48783  -0.48609
 Alpha  occ. eigenvalues --   -0.48447  -0.48109  -0.47384  -0.47281  -0.47241
 Alpha  occ. eigenvalues --   -0.47089  -0.46607  -0.46523  -0.46328  -0.46212
 Alpha  occ. eigenvalues --   -0.45793  -0.45633  -0.45555  -0.45142  -0.44932
 Alpha  occ. eigenvalues --   -0.44775  -0.44512  -0.44423  -0.44204  -0.44151
 Alpha  occ. eigenvalues --   -0.43863  -0.43574  -0.43428  -0.43133  -0.43016
 Alpha  occ. eigenvalues --   -0.42990  -0.42877  -0.42634  -0.42601  -0.42422
 Alpha  occ. eigenvalues --   -0.42336  -0.42243  -0.41824  -0.41566  -0.41435
 Alpha  occ. eigenvalues --   -0.41105  -0.40923  -0.40843  -0.40587  -0.40113
 Alpha  occ. eigenvalues --   -0.40009  -0.39869  -0.39782  -0.39486  -0.39127
 Alpha  occ. eigenvalues --   -0.39037  -0.38632  -0.38347  -0.38201  -0.37724
 Alpha  occ. eigenvalues --   -0.37113  -0.36811  -0.36727  -0.36612  -0.36501
 Alpha  occ. eigenvalues --   -0.36240  -0.36057  -0.35973  -0.35829  -0.35499
 Alpha  occ. eigenvalues --   -0.35212  -0.34821  -0.34550  -0.34541  -0.33562
 Alpha  occ. eigenvalues --   -0.32916  -0.32333  -0.32155  -0.30771  -0.30278
 Alpha  occ. eigenvalues --   -0.29800  -0.28978  -0.28716  -0.26611  -0.22698
 Alpha  occ. eigenvalues --   -0.20708
 Alpha virt. eigenvalues --   -0.06762  -0.02369   0.01065   0.04701   0.05202
 Alpha virt. eigenvalues --    0.05569   0.06047   0.06712   0.07222   0.07633
 Alpha virt. eigenvalues --    0.08193   0.10434   0.10460   0.10718   0.10859

 Mulliken charges:
               1
     1  Mg   0.828656
     2  C    0.068597
     3  C   -0.197996
     4  C   -0.179779
     5  C   -0.190091
     6  N   -0.633572
     7  C    0.315642
     8  C   -0.156952
     9  C   -0.157184
    10  C    0.367879
    11  C   -0.295970
    12  C   -0.164237
    13  C   -0.286055
    14  C    0.625056
    15  O   -0.475686
    16  O   -0.448116
    17  N   -0.689926
    18  C    0.307913
    19  C   -0.012736
    20  C   -0.029691
    21  C    0.294555
    22  C   -0.328213
    23  C   -0.088220
    24  C   -0.231818
    25  N   -0.682237
    26  C    0.332643
    27  C    0.060842
    28  C    0.003238
    29  C    0.232538
    30  C   -0.364881
    31  C   -0.253504
    32  C   -0.282435
    33  N   -0.790526
    34  C    0.317170
    35  C   -0.010194
    36  C   -0.032610
    37  C    0.329364
    38  C   -0.368821
    39  C    0.397642
    40  O   -0.454381
    41  C   -0.355513
    42  C    0.636004
    43  O   -0.451758
    44  O   -0.448398
    45  C   -0.098863
    46  C    0.004355
    47  C   -0.129066
    48  C    0.108651
    49  C   -0.362445
    50  C   -0.229897
    51  C   -0.178053
    52  C   -0.148133
    53  C   -0.051033
    54  C   -0.323222
    55  C   -0.189259
    56  C   -0.182156
    57  C   -0.141261
    58  C   -0.068355
    59  C   -0.306264
    60  C   -0.171880
    61  C   -0.171864
    62  C   -0.156454
    63  C   -0.074321
    64  C   -0.270941
    65  C   -0.299256
    66  H    0.058202
    67  H    0.086080
    68  H    0.103789
    69  H    0.124267
    70  H    0.094497
    71  H    0.088475
    72  H    0.097742
    73  H    0.127172
    74  H    0.122111
    75  H    0.127688
    76  H    0.126121
    77  H    0.117262
    78  H    0.121196
    79  H    0.112451
    80  H    0.099055
    81  H    0.092232
    82  H    0.099594
    83  H    0.110817
    84  H    0.125081
    85  H    0.114785
    86  H    0.104113
    87  H    0.109370
    88  H    0.090824
    89  H    0.086614
    90  H    0.115348
    91  H    0.127527
    92  H    0.135731
    93  H    0.145800
    94  H    0.142856
    95  H    0.153064
    96  H    0.113457
    97  H    0.136421
    98  H    0.124385
    99  H    0.121238
   100  H    0.127549
   101  H    0.097307
   102  H    0.078742
   103  H    0.117935
   104  H    0.147412
   105  H    0.114628
   106  H    0.095090
   107  H    0.094946
   108  H    0.096256
   109  H    0.052368
   110  H    0.054205
   111  H    0.091978
   112  H    0.125555
   113  H    0.109077
   114  H    0.098695
   115  H    0.083202
   116  H    0.095949
   117  H    0.092809
   118  H    0.083902
   119  H    0.055152
   120  H    0.105904
   121  H    0.050269
   122  H    0.109291
   123  H    0.083821
   124  H    0.118737
   125  H    0.065334
   126  H    0.096227
   127  H    0.098100
   128  H    0.106598
   129  H    0.073449
   130  H    0.090550
   131  H    0.078046
   132  H    0.093905
   133  H    0.075972
   134  H    0.081834
   135  H    0.108024
   136  H    0.107542
   137  H    0.071750
 Sum of Mulliken charges =   0.00000

 Dipole moment (field-independent basis, Debye):
    X=              3.1668    Y=              1.4245    Z=              0.6897  Tot=              3.5402
 Quadrupole moment (field-independent basis, Debye-Ang):
   XX=           -341.7793   YY=           -402.8467   ZZ=           -396.2878
   XY=            -20.2103   XZ=             17.0843   YZ=             -2.7435

 Normal termination of Gaussian 09 at Fri Jul  5 16:35:49 2019.
