 Gaussian 16, Revision A.03,
 Gaussian 16:  ES64L-G16RevA.03 25-Dec-2016

 ----------------------------------------------------------------------
 # td=(NStates=1) iop(3/107=0140000000,3/108=0140000000) CAM-B3LYP/6-31
 G(d,p)
 ----------------------------------------------------------------------

 --
 TD
 --
 Symbolic Z-matrix:
 Charge =  0 Multiplicity = 1

                         Standard orientation:
 ---------------------------------------------------------------------
 Center     Atomic      Atomic             Coordinates (Angstroms)
 Number     Number       Type             X           Y           Z
 ---------------------------------------------------------------------
      1         12           0       -7.198282    0.560250    0.043277
      2          6           0       -4.851561   -1.950865    0.389149
      3          6           0       -4.765867    2.894111    1.148489
      4          6           0       -9.479165    3.123266   -0.388321
      5          6           0       -9.565778   -1.628029   -0.779999
      6          7           0       -5.074286    0.488972    0.622025
      7          6           0       -4.273061   -0.728374    0.658331
      8          6           0       -2.914041   -0.407766    1.282542
      9          6           0       -3.081032    1.011232    1.683946
     10          6           0       -4.416316    1.496998    1.201382
     11          6           0       -3.086097    1.193386    3.201541
     12          6           0       -1.796270   -0.572812    0.197588
     13          6           0       -0.502576   -0.399095    0.634900
     14          6           0        0.539421   -0.640672   -0.407423
     15          8           0        0.164037   -0.976053   -1.605111
     16          8           0        1.764720   -0.473490   -0.079071
     17          7           0       -7.053565    2.572029    0.339320
     18          6           0       -6.054055    3.443036    0.780597
     19          6           0       -6.456109    4.781639    0.684869
     20          6           0       -7.725323    4.787455    0.275651
     21          6           0       -8.156729    3.429257    0.104177
     22          6           0       -5.480944    5.829289    1.215271
     23          6           0       -8.576894    6.008324    0.102502
     24          6           0       -8.317351    7.207871    0.669963
     25          7           0       -9.164672    0.700559   -0.571993
     26          6           0       -9.878857    1.845954   -0.617506
     27          6           0      -11.270330    1.566479   -1.140628
     28          6           0      -11.307384    0.266270   -1.276105
     29          6           0      -10.007446   -0.325335   -0.802401
     30          6           0      -12.258085    2.512164   -1.381698
     31          6           0      -12.421883   -0.764743   -1.857517
     32          6           0      -12.191057   -1.161611   -3.147099
     33          7           0       -7.315118   -1.409689   -0.163473
     34          6           0       -8.363262   -2.287747   -0.529617
     35          6           0       -7.894321   -3.693030   -0.539580
     36          6           0       -6.516042   -3.579255   -0.146139
     37          6           0       -6.271477   -2.156105    0.084888
     38          6           0       -8.808378   -4.778589   -0.930998
     39          6           0       -5.423369   -4.400951    0.133609
     40          8           0       -5.192590   -5.601267    0.062492
     41          6           0       -4.211468   -3.387534    0.432627
     42          6           0       -3.600633   -3.765976    1.819942
     43          8           0       -3.951450   -3.298522    2.890617
     44          8           0       -2.744355   -4.804462    1.593246
     45          6           0       -2.366715   -5.344881    2.849452
     46          6           0        2.837960   -0.660943   -1.068897
     47          6           0        4.139615   -0.369781   -0.447195
     48          6           0        5.169506    0.401118   -0.825817
     49          6           0        5.101650    1.163539   -2.191319
     50          6           0        6.446123    0.552370   -0.038611
     51          6           0        7.628090   -0.111446   -0.774750
     52          6           0        8.975735   -0.007406   -0.086470
     53          6           0       10.260506   -0.428685   -0.884608
     54          6           0       10.160909   -1.914726   -1.243560
     55          6           0       11.506005   -0.133778   -0.056633
     56          6           0       12.877157   -0.339926   -0.727535
     57          6           0       14.044144   -0.014004    0.182587
     58          6           0       15.455754   -0.306613   -0.445711
     59          6           0       15.695830   -1.791739   -0.601741
     60          6           0       16.543743    0.397026    0.445643
     61          6           0       17.975208    0.469664   -0.212636
     62          6           0       18.904333    1.123767    0.628302
     63          6           0       20.326972    1.224883    0.148088
     64          6           0       20.356728    2.021990   -1.245477
     65          6           0       21.237714    1.950485    1.077329
     66          1           0       -3.936266    3.479640    1.476849
     67          1           0      -10.296938    3.876691   -0.341291
     68          1           0      -10.345582   -2.371897   -0.833285
     69          1           0       -2.763032   -1.117076    2.140569
     70          1           0       -2.347835    1.815375    1.234808
     71          1           0       -2.177638    0.961547    3.598341
     72          1           0       -3.443505    2.276547    3.250327
     73          1           0       -3.939234    0.550250    3.569495
     74          1           0       -1.758770   -1.547803   -0.497387
     75          1           0       -1.965868    0.183992   -0.618459
     76          1           0       -0.223560    0.617749    1.104463
     77          1           0       -0.234697   -0.869906    1.544354
     78          1           0       -5.370473    6.719206    0.525950
     79          1           0       -5.933088    6.395488    2.155986
     80          1           0       -4.458480    5.365714    1.453858
     81          1           0       -9.473057    5.805612   -0.294075
     82          1           0       -9.211635    7.931463    0.743397
     83          1           0       -7.570803    7.335235    1.257233
     84          1           0      -12.021020    3.153936   -2.236668
     85          1           0      -13.079281    2.175392   -1.634475
     86          1           0      -12.220690    3.176230   -0.427666
     87          1           0      -12.630211   -1.577444   -1.222245
     88          1           0      -13.280947    0.023426   -1.831582
     89          1           0      -12.956320   -1.983385   -3.493879
     90          1           0      -12.223125   -0.361255   -3.836457
     91          1           0      -10.978998   -1.482190   -3.289247
     92          1           0       -9.178360   -4.615719   -1.909046
     93          1           0       -8.379489   -5.867682   -0.596249
     94          1           0       -9.529454   -4.723848   -0.284235
     95          1           0       -3.560564   -3.708725   -0.388704
     96          1           0       -1.871372   -4.469399    3.438282
     97          1           0       -3.228543   -5.703845    3.314188
     98          1           0       -1.454974   -5.984705    2.492577
     99          1           0        2.807149   -1.744738   -1.607530
    100          1           0        2.536320   -0.075902   -1.834997
    101          1           0        4.466301   -0.766715    0.496097
    102          1           0        4.249987    1.264380   -2.781605
    103          1           0        5.153438    2.383939   -1.873581
    104          1           0        5.927556    0.659618   -2.708068
    105          1           0        6.587787    1.511328   -0.017472
    106          1           0        6.233721   -0.001025    0.941374
    107          1           0        7.543599   -1.190281   -0.954270
    108          1           0        7.614630    0.217429   -1.795580
    109          1           0        9.222292    0.939536    0.413428
    110          1           0        9.026318   -0.807280    0.819721
    111          1           0       10.321641    0.037911   -1.886673
    112          1           0        9.231640   -2.209081   -1.793982
    113          1           0       11.068754   -2.334958   -1.793405
    114          1           0       10.285340   -2.695050   -0.451738
    115          1           0       11.652887    0.774496    0.388669
    116          1           0       11.598166   -0.864244    0.716007
    117          1           0       12.970618   -1.339668   -1.118213
    118          1           0       13.017931    0.532293   -1.410757
    119          1           0       13.964364    1.174983    0.306353
    120          1           0       14.120729   -0.496310    1.092407
    121          1           0       15.459960    0.192414   -1.364151
    122          1           0       15.432276   -2.288514    0.351685
    123          1           0       14.860183   -2.215001   -1.157970
    124          1           0       16.567265   -2.017540   -1.216742
    125          1           0       16.187098    1.530539    0.677257
    126          1           0       16.554959   -0.052985    1.190288
    127          1           0       18.325149   -0.675223   -0.548362
    128          1           0       17.913002    0.946852   -1.168093
    129          1           0       18.542295    2.263026    0.686653
    130          1           0       19.170052    0.804028    1.813613
    131          1           0       20.599087    0.136738   -0.028470
    132          1           0       20.154482    3.170787   -0.973949
    133          1           0       21.379448    2.098931   -1.571537
    134          1           0       19.735061    1.690480   -2.138739
    135          1           0       21.226730    1.371323    2.129750
    136          1           0       22.365727    1.784695    0.853536
    137          1           0       20.920482    2.979502    1.331222
 ---------------------------------------------------------------------

 SCF Done:  E(RCAM-B3LYP) =  -2933.42360586     A.U. after   16 cycles

 Excitation energies and oscillator strengths:

 Excited State   1:      Singlet-A      1.9441 eV  637.76 nm  f=0.2911  <S**2>=0.000
     240 -> 243       -0.19133
     241 -> 242        0.67882
 This state for optimization and/or second-order correction.
 Total Energy, E(TD-HF/TD-DFT) =  -2933.35216289
 Copying the excited state density for this state as the 1-particle RhoCI density.

 The electronic state is 1-A.
 Alpha  occ. eigenvalues --  -46.80133 -19.23332 -19.21717 -19.16851 -19.14910
 Alpha  occ. eigenvalues --  -19.14557 -14.37405 -14.35538 -14.35377 -14.35346
 Alpha  occ. eigenvalues --  -10.34145 -10.34110 -10.29099 -10.28797 -10.26644
 Alpha  occ. eigenvalues --  -10.26247 -10.26015 -10.25616 -10.25505 -10.24939
 Alpha  occ. eigenvalues --  -10.24929 -10.24622 -10.24568 -10.24511 -10.23666
 Alpha  occ. eigenvalues --  -10.23602 -10.23347 -10.23306 -10.23193 -10.23083
 Alpha  occ. eigenvalues --  -10.22907 -10.22731 -10.22593 -10.22340 -10.22296
 Alpha  occ. eigenvalues --  -10.22285 -10.22237 -10.22202 -10.22073 -10.22063
 Alpha  occ. eigenvalues --  -10.22036 -10.21987 -10.21956 -10.21902 -10.21838
 Alpha  occ. eigenvalues --  -10.21742 -10.21734 -10.21602 -10.21530 -10.21483
 Alpha  occ. eigenvalues --  -10.21380 -10.21289 -10.21223 -10.21219 -10.21152
 Alpha  occ. eigenvalues --  -10.21131 -10.21100 -10.21080 -10.20775 -10.20655
 Alpha  occ. eigenvalues --  -10.20582 -10.20497 -10.20204 -10.19642 -10.19496
 Alpha  occ. eigenvalues --   -3.08692  -1.83635  -1.83191  -1.83073  -1.14404
 Alpha  occ. eigenvalues --   -1.12676  -1.04558  -1.04355  -0.99861  -0.99288
 Alpha  occ. eigenvalues --   -0.98363  -0.97766  -0.96868  -0.86932  -0.86172
 Alpha  occ. eigenvalues --   -0.85989  -0.85868  -0.85408  -0.84997  -0.83935
 Alpha  occ. eigenvalues --   -0.83874  -0.83541  -0.82963  -0.82407  -0.81923
 Alpha  occ. eigenvalues --   -0.81231  -0.80484  -0.79344  -0.78884  -0.78149
 Alpha  occ. eigenvalues --   -0.77385  -0.76465  -0.75867  -0.75668  -0.74179
 Alpha  occ. eigenvalues --   -0.73817  -0.72667  -0.72003  -0.71230  -0.70773
 Alpha  occ. eigenvalues --   -0.70512  -0.70366  -0.69921  -0.69627  -0.68234
 Alpha  occ. eigenvalues --   -0.66333  -0.65971  -0.64978  -0.64383  -0.63594
 Alpha  occ. eigenvalues --   -0.63166  -0.63115  -0.61080  -0.60967  -0.60782
 Alpha  occ. eigenvalues --   -0.59924  -0.59605  -0.59487  -0.59258  -0.57978
 Alpha  occ. eigenvalues --   -0.56944  -0.56780  -0.56686  -0.56130  -0.55283
 Alpha  occ. eigenvalues --   -0.54900  -0.54768  -0.53700  -0.52945  -0.52559
 Alpha  occ. eigenvalues --   -0.52503  -0.52395  -0.52126  -0.51708  -0.51423
 Alpha  occ. eigenvalues --   -0.50590  -0.50251  -0.49933  -0.49733  -0.49300
 Alpha  occ. eigenvalues --   -0.49212  -0.48944  -0.48651  -0.48418  -0.48288
 Alpha  occ. eigenvalues --   -0.48159  -0.48034  -0.47449  -0.47416  -0.47344
 Alpha  occ. eigenvalues --   -0.46761  -0.46717  -0.46547  -0.46378  -0.46280
 Alpha  occ. eigenvalues --   -0.46013  -0.45750  -0.45344  -0.45211  -0.45092
 Alpha  occ. eigenvalues --   -0.44915  -0.44518  -0.44342  -0.44084  -0.43984
 Alpha  occ. eigenvalues --   -0.43923  -0.43717  -0.43382  -0.43249  -0.42940
 Alpha  occ. eigenvalues --   -0.42422  -0.42279  -0.42185  -0.41949  -0.41778
 Alpha  occ. eigenvalues --   -0.41654  -0.41259  -0.40917  -0.40793  -0.40667
 Alpha  occ. eigenvalues --   -0.40658  -0.40247  -0.40116  -0.39888  -0.39541
 Alpha  occ. eigenvalues --   -0.39469  -0.39281  -0.39113  -0.38989  -0.38862
 Alpha  occ. eigenvalues --   -0.38776  -0.38624  -0.38471  -0.37932  -0.37854
 Alpha  occ. eigenvalues --   -0.37648  -0.37514  -0.37375  -0.37284  -0.37082
 Alpha  occ. eigenvalues --   -0.36783  -0.36395  -0.36167  -0.35891  -0.35760
 Alpha  occ. eigenvalues --   -0.35469  -0.35311  -0.34681  -0.34565  -0.34207
 Alpha  occ. eigenvalues --   -0.34046  -0.33971  -0.33829  -0.33761  -0.33253
 Alpha  occ. eigenvalues --   -0.33169  -0.33062  -0.32772  -0.32566  -0.32452
 Alpha  occ. eigenvalues --   -0.31902  -0.31727  -0.31543  -0.30698  -0.30578
 Alpha  occ. eigenvalues --   -0.30213  -0.29320  -0.28631  -0.28021  -0.27294
 Alpha  occ. eigenvalues --   -0.27238  -0.26743  -0.25795  -0.25286  -0.21782
 Alpha  occ. eigenvalues --   -0.19600
 Alpha virt. eigenvalues --   -0.07414  -0.02906  -0.00242   0.02311   0.03754
 Alpha virt. eigenvalues --    0.04144   0.04416   0.05097   0.05220   0.05482
 Alpha virt. eigenvalues --    0.06553   0.08927   0.09776   0.09833   0.10136

 Mulliken charges:
               1
     1  Mg   0.814262
     2  C    0.068448
     3  C   -0.193416
     4  C   -0.184061
     5  C   -0.227440
     6  N   -0.610861
     7  C    0.238773
     8  C   -0.146088
     9  C   -0.165104
    10  C    0.345770
    11  C   -0.289104
    12  C   -0.166035
    13  C   -0.254643
    14  C    0.609638
    15  O   -0.540451
    16  O   -0.439275
    17  N   -0.704864
    18  C    0.297550
    19  C    0.062497
    20  C   -0.017765
    21  C    0.300839
    22  C   -0.382278
    23  C   -0.036221
    24  C   -0.219505
    25  N   -0.687848
    26  C    0.328762
    27  C    0.045530
    28  C   -0.008935
    29  C    0.315813
    30  C   -0.357405
    31  C   -0.201510
    32  C   -0.274184
    33  N   -0.733951
    34  C    0.240134
    35  C    0.062603
    36  C    0.001064
    37  C    0.364286
    38  C   -0.376448
    39  C    0.318552
    40  O   -0.476074
    41  C   -0.307241
    42  C    0.617606
    43  O   -0.483413
    44  O   -0.429434
    45  C   -0.082532
    46  C    0.023657
    47  C   -0.112491
    48  C    0.075399
    49  C   -0.348301
    50  C   -0.189206
    51  C   -0.191232
    52  C   -0.164998
    53  C   -0.046188
    54  C   -0.330581
    55  C   -0.161210
    56  C   -0.187040
    57  C   -0.183175
    58  C   -0.072054
    59  C   -0.319152
    60  C   -0.115283
    61  C   -0.175538
    62  C   -0.112816
    63  C   -0.041459
    64  C   -0.315466
    65  C   -0.306242
    66  H    0.075946
    67  H    0.088656
    68  H    0.068354
    69  H    0.124788
    70  H    0.095183
    71  H    0.114397
    72  H    0.094156
    73  H    0.122327
    74  H    0.125007
    75  H    0.115444
    76  H    0.112138
    77  H    0.131684
    78  H    0.123337
    79  H    0.113115
    80  H    0.110962
    81  H    0.070953
    82  H    0.092936
    83  H    0.084181
    84  H    0.123017
    85  H    0.109311
    86  H    0.109303
    87  H    0.114599
    88  H    0.081665
    89  H    0.090420
    90  H    0.115572
    91  H    0.075423
    92  H    0.140353
    93  H    0.123790
    94  H    0.147588
    95  H    0.157659
    96  H    0.110684
    97  H    0.147571
    98  H    0.114636
    99  H    0.122889
   100  H    0.136606
   101  H    0.071518
   102  H    0.127703
   103  H    0.077739
   104  H    0.125810
   105  H    0.117618
   106  H    0.098470
   107  H    0.105285
   108  H    0.099635
   109  H    0.088630
   110  H    0.070863
   111  H    0.087845
   112  H    0.100841
   113  H    0.091550
   114  H    0.096327
   115  H    0.090972
   116  H    0.093356
   117  H    0.093353
   118  H    0.090317
   119  H    0.064786
   120  H    0.088674
   121  H    0.080428
   122  H    0.099096
   123  H    0.099368
   124  H    0.113051
   125  H    0.058866
   126  H    0.090781
   127  H    0.052526
   128  H    0.107606
   129  H    0.062774
   130  H    0.054353
   131  H    0.082141
   132  H    0.077102
   133  H    0.105620
   134  H    0.098847
   135  H    0.074325
   136  H    0.101266
   137  H    0.113241
 Sum of Mulliken charges =  -0.00000

 Dipole moment (field-independent basis, Debye):
    X=              1.6879    Y=              4.4958    Z=              0.7383  Tot=              4.8586
 Quadrupole moment (field-independent basis, Debye-Ang):
   XX=           -318.3873   YY=           -400.4347   ZZ=           -400.1413
   XY=            -25.1593   XZ=              4.9581   YZ=             -0.6692

 Normal termination of Gaussian 16 at Tue Sep 24 06:09:24 2019.
