 Gaussian 16, Revision A.03,
 Gaussian 16:  ES64L-G16RevA.03 25-Dec-2016

 ----------------------------------------------------------------------
 # td=(NStates=1) iop(3/107=0140000000,3/108=0140000000) CAM-B3LYP/6-31
 G(d,p)
 ----------------------------------------------------------------------

 --
 TD
 --
 Symbolic Z-matrix:
 Charge =  0 Multiplicity = 1

                         Standard orientation:
 ---------------------------------------------------------------------
 Center     Atomic      Atomic             Coordinates (Angstroms)
 Number     Number       Type             X           Y           Z
 ---------------------------------------------------------------------
      1         12           0       -7.111523    0.605131    0.068345
      2          6           0       -4.899665   -1.967065    0.486805
      3          6           0       -4.794140    2.798783    1.115894
      4          6           0       -9.424622    3.191686   -0.271400
      5          6           0       -9.479496   -1.700390   -0.835552
      6          7           0       -5.048879    0.384234    0.684914
      7          6           0       -4.355857   -0.751106    0.694719
      8          6           0       -2.896533   -0.400361    1.167659
      9          6           0       -3.026891    1.040634    1.563942
     10          6           0       -4.375741    1.464875    1.089030
     11          6           0       -2.969854    1.202024    3.135461
     12          6           0       -1.960016   -0.616521   -0.036677
     13          6           0       -0.457675   -0.583968    0.468817
     14          6           0        0.398265   -0.787136   -0.769151
     15          8           0        0.146004   -0.980316   -1.919357
     16          8           0        1.763322   -0.544518   -0.405646
     17          7           0       -7.161422    2.684108    0.382270
     18          6           0       -6.042154    3.445505    0.774723
     19          6           0       -6.345261    4.796749    0.866316
     20          6           0       -7.654101    4.963943    0.376195
     21          6           0       -8.147663    3.609637    0.098529
     22          6           0       -5.533196    5.941908    1.242873
     23          6           0       -8.473073    6.110668    0.208407
     24          6           0       -8.317008    7.296740    0.843987
     25          7           0       -9.119470    0.700803   -0.387160
     26          6           0       -9.910062    1.907737   -0.547446
     27          6           0      -11.190375    1.538954   -1.095451
     28          6           0      -11.254876    0.184934   -1.249189
     29          6           0       -9.862580   -0.342219   -0.831907
     30          6           0      -12.293651    2.521073   -1.335553
     31          6           0      -12.290407   -0.606023   -1.880431
     32          6           0      -12.156376   -1.177377   -3.299979
     33          7           0       -7.217404   -1.377500   -0.162208
     34          6           0       -8.287792   -2.264490   -0.410051
     35          6           0       -7.853728   -3.662134   -0.441664
     36          6           0       -6.516047   -3.561332   -0.092490
     37          6           0       -6.180617   -2.180746    0.061525
     38          6           0       -8.780199   -4.802898   -0.650806
     39          6           0       -5.359819   -4.434229    0.293990
     40          8           0       -5.211250   -5.666853    0.464169
     41          6           0       -4.224097   -3.371473    0.678705
     42          6           0       -3.650309   -3.681609    1.896137
     43          8           0       -3.866118   -3.022079    2.961635
     44          8           0       -2.727683   -4.730832    1.773221
     45          6           0       -2.318323   -5.340592    3.005041
     46          6           0        2.751077   -0.620167   -1.561673
     47          6           0        4.055550   -0.499812   -0.828852
     48          6           0        5.099884    0.287906   -1.264719
     49          6           0        5.124559    1.035139   -2.523823
     50          6           0        6.409568    0.303777   -0.469733
     51          6           0        7.673145   -0.191831   -1.132092
     52          6           0        8.906888   -0.149914   -0.207510
     53          6           0       10.228716   -0.631837   -0.781735
     54          6           0       10.146970   -2.178198   -1.129821
     55          6           0       11.356887   -0.343582    0.043744
     56          6           0       12.727990   -0.654832   -0.567192
     57          6           0       14.013926   -0.097517    0.288527
     58          6           0       15.409278   -0.073527   -0.386639
     59          6           0       15.800220   -1.490281   -1.027271
     60          6           0       16.408060    0.471236    0.562319
     61          6           0       17.859050    0.539281    0.047557
     62          6           0       18.783675    1.382135    0.915604
     63          6           0       20.208941    1.407802    0.345185
     64          6           0       20.333346    2.281402   -0.984922
     65          6           0       21.305539    1.860021    1.337417
     66          1           0       -3.888286    3.389977    1.355000
     67          1           0      -10.075014    4.099925   -0.246997
     68          1           0      -10.368968   -2.456623   -1.005812
     69          1           0       -2.572374   -0.931047    2.076942
     70          1           0       -2.321089    1.642495    1.165222
     71          1           0       -1.912728    0.744880    3.400789
     72          1           0       -3.134323    2.263064    3.452082
     73          1           0       -3.629300    0.612864    3.701937
     74          1           0       -2.080304   -1.746075   -0.219217
     75          1           0       -2.165238    0.117602   -0.833958
     76          1           0       -0.021887    0.304607    0.989088
     77          1           0       -0.299467   -1.192574    1.396582
     78          1           0       -5.740554    6.748222    0.394023
     79          1           0       -5.852178    6.284570    2.347161
     80          1           0       -4.456886    5.789192    1.335226
     81          1           0       -9.227563    5.920858   -0.519344
     82          1           0       -9.045440    8.000501    0.757055
     83          1           0       -7.469852    7.395523    1.728535
     84          1           0      -11.862486    2.914531   -2.308791
     85          1           0      -13.089664    1.888852   -1.635183
     86          1           0      -12.518834    3.125144   -0.485576
     87          1           0      -12.258059   -1.526513   -1.133135
     88          1           0      -13.307467   -0.024002   -1.811008
     89          1           0      -12.924888   -1.668291   -3.672396
     90          1           0      -12.262146   -0.388491   -3.935783
     91          1           0      -11.056608   -1.645137   -3.267773
     92          1           0       -9.326746   -4.751656   -1.543644
     93          1           0       -8.335948   -5.781808   -0.751540
     94          1           0       -9.668528   -4.619784    0.072532
     95          1           0       -3.381637   -3.673590   -0.174965
     96          1           0       -1.875033   -4.489411    3.546315
     97          1           0       -3.069946   -5.981430    3.628787
     98          1           0       -1.441041   -5.965316    2.763395
     99          1           0        2.750053   -1.519161   -2.158599
    100          1           0        2.306692    0.372917   -2.214907
    101          1           0        4.210446   -1.046726    0.129903
    102          1           0        4.184714    1.098553   -3.021662
    103          1           0        5.582072    1.900999   -2.368681
    104          1           0        5.924772    0.540277   -3.256052
    105          1           0        6.660625    1.299280   -0.367349
    106          1           0        6.346077   -0.213217    0.327574
    107          1           0        7.405093   -1.161993   -1.304385
    108          1           0        7.798700    0.125257   -2.107021
    109          1           0        8.850035    0.851977    0.187104
    110          1           0        8.585262   -0.575976    0.713880
    111          1           0       10.394789   -0.001724   -1.657184
    112          1           0        9.284937   -2.268509   -1.913730
    113          1           0       10.857589   -2.543538   -1.783084
    114          1           0       10.251835   -2.800427   -0.307972
    115          1           0       11.409468    0.731376    0.515255
    116          1           0       11.232238   -1.029546    0.874043
    117          1           0       12.731698   -1.639575   -0.685326
    118          1           0       12.751911   -0.209011   -1.667856
    119          1           0       13.754995    0.852911    0.639023
    120          1           0       14.186617   -0.705077    1.207237
    121          1           0       15.420455    0.489502   -1.133616
    122          1           0       15.937284   -2.257437   -0.276649
    123          1           0       15.066338   -1.692959   -1.565563
    124          1           0       16.705171   -1.267314   -1.628083
    125          1           0       16.007739    1.539365    0.699102
    126          1           0       16.469013   -0.130535    1.423247
    127          1           0       18.246263   -0.458611   -0.037474
    128          1           0       17.939672    0.891310   -0.952139
    129          1           0       18.430962    2.440373    1.076979
    130          1           0       18.869869    0.925543    1.865521
    131          1           0       20.419295    0.389831   -0.034303
    132          1           0       20.132326    3.294497   -0.745193
    133          1           0       21.198890    2.288428   -1.411410
    134          1           0       19.628155    1.884743   -1.748852
    135          1           0       21.422460    1.200270    2.189588
    136          1           0       22.303040    2.052928    0.881720
    137          1           0       21.001252    2.975326    1.642055
 ---------------------------------------------------------------------

 SCF Done:  E(RCAM-B3LYP) =  -2933.53204959     A.U. after   16 cycles

 Excitation energies and oscillator strengths:

 Excited State   1:      Singlet-A      2.0004 eV  619.80 nm  f=0.2721  <S**2>=0.000
     240 -> 243       -0.23432
     241 -> 242        0.66391
 This state for optimization and/or second-order correction.
 Total Energy, E(TD-HF/TD-DFT) =  -2933.45853685
 Copying the excited state density for this state as the 1-particle RhoCI density.

 The electronic state is 1-A.
 Alpha  occ. eigenvalues --  -46.80429 -19.21833 -19.19455 -19.17387 -19.17231
 Alpha  occ. eigenvalues --  -19.16372 -14.37264 -14.35685 -14.35592 -14.34900
 Alpha  occ. eigenvalues --  -10.34355 -10.34310 -10.32147 -10.28221 -10.26965
 Alpha  occ. eigenvalues --  -10.25945 -10.25679 -10.25509 -10.25466 -10.25281
 Alpha  occ. eigenvalues --  -10.25163 -10.25059 -10.24977 -10.24649 -10.24474
 Alpha  occ. eigenvalues --  -10.24358 -10.23738 -10.23717 -10.23368 -10.23091
 Alpha  occ. eigenvalues --  -10.23074 -10.22665 -10.22643 -10.22500 -10.22448
 Alpha  occ. eigenvalues --  -10.22425 -10.22286 -10.22262 -10.22159 -10.22042
 Alpha  occ. eigenvalues --  -10.21927 -10.21905 -10.21877 -10.21711 -10.21689
 Alpha  occ. eigenvalues --  -10.21571 -10.21447 -10.21402 -10.21310 -10.20951
 Alpha  occ. eigenvalues --  -10.20849 -10.20589 -10.20421 -10.20366 -10.20255
 Alpha  occ. eigenvalues --  -10.20170 -10.20109 -10.20074 -10.19857 -10.19630
 Alpha  occ. eigenvalues --  -10.19098 -10.18798 -10.18686 -10.18307 -10.18129
 Alpha  occ. eigenvalues --   -3.08901  -1.83851  -1.83351  -1.83318  -1.10916
 Alpha  occ. eigenvalues --   -1.10546  -1.04769  -1.02009  -1.01892  -1.00444
 Alpha  occ. eigenvalues --   -0.99093  -0.97131  -0.95900  -0.87820  -0.86643
 Alpha  occ. eigenvalues --   -0.85408  -0.85112  -0.84779  -0.84296  -0.84123
 Alpha  occ. eigenvalues --   -0.83917  -0.83194  -0.82719  -0.82458  -0.81082
 Alpha  occ. eigenvalues --   -0.80625  -0.79719  -0.79299  -0.78056  -0.77602
 Alpha  occ. eigenvalues --   -0.76686  -0.76162  -0.75994  -0.75205  -0.73873
 Alpha  occ. eigenvalues --   -0.73064  -0.72405  -0.72109  -0.71708  -0.71661
 Alpha  occ. eigenvalues --   -0.71071  -0.70942  -0.70189  -0.68859  -0.68131
 Alpha  occ. eigenvalues --   -0.67871  -0.66517  -0.65743  -0.65055  -0.64525
 Alpha  occ. eigenvalues --   -0.63220  -0.62994  -0.61847  -0.61818  -0.61284
 Alpha  occ. eigenvalues --   -0.59780  -0.59511  -0.59139  -0.58320  -0.57920
 Alpha  occ. eigenvalues --   -0.57128  -0.56314  -0.55570  -0.55366  -0.55267
 Alpha  occ. eigenvalues --   -0.54869  -0.53835  -0.53702  -0.52983  -0.52618
 Alpha  occ. eigenvalues --   -0.52168  -0.51705  -0.51336  -0.51192  -0.51060
 Alpha  occ. eigenvalues --   -0.50616  -0.50290  -0.49836  -0.49611  -0.49186
 Alpha  occ. eigenvalues --   -0.49077  -0.48743  -0.48648  -0.48310  -0.48064
 Alpha  occ. eigenvalues --   -0.47806  -0.47653  -0.47302  -0.46995  -0.46860
 Alpha  occ. eigenvalues --   -0.46617  -0.46324  -0.46076  -0.46010  -0.45607
 Alpha  occ. eigenvalues --   -0.45385  -0.45317  -0.45135  -0.44845  -0.44734
 Alpha  occ. eigenvalues --   -0.44454  -0.44440  -0.44355  -0.43894  -0.43664
 Alpha  occ. eigenvalues --   -0.43595  -0.43422  -0.43300  -0.43224  -0.42813
 Alpha  occ. eigenvalues --   -0.42580  -0.42547  -0.42384  -0.42104  -0.41614
 Alpha  occ. eigenvalues --   -0.41307  -0.41251  -0.41194  -0.41100  -0.40897
 Alpha  occ. eigenvalues --   -0.40718  -0.40715  -0.40337  -0.40296  -0.39790
 Alpha  occ. eigenvalues --   -0.39586  -0.39394  -0.39257  -0.39111  -0.38928
 Alpha  occ. eigenvalues --   -0.38713  -0.38448  -0.38307  -0.38214  -0.38180
 Alpha  occ. eigenvalues --   -0.37999  -0.37888  -0.37544  -0.37334  -0.37083
 Alpha  occ. eigenvalues --   -0.36608  -0.36552  -0.36375  -0.36297  -0.35921
 Alpha  occ. eigenvalues --   -0.35698  -0.35672  -0.35600  -0.35405  -0.35251
 Alpha  occ. eigenvalues --   -0.34626  -0.34201  -0.33943  -0.33871  -0.33616
 Alpha  occ. eigenvalues --   -0.33304  -0.33132  -0.32945  -0.32750  -0.32196
 Alpha  occ. eigenvalues --   -0.32145  -0.31995  -0.31757  -0.31253  -0.30642
 Alpha  occ. eigenvalues --   -0.30001  -0.29986  -0.29559  -0.28841  -0.27757
 Alpha  occ. eigenvalues --   -0.27400  -0.25638  -0.25532  -0.24272  -0.21753
 Alpha  occ. eigenvalues --   -0.20070
 Alpha virt. eigenvalues --   -0.07460  -0.03992  -0.00875   0.01431   0.02457
 Alpha virt. eigenvalues --    0.03683   0.04480   0.04707   0.05005   0.05987
 Alpha virt. eigenvalues --    0.06374   0.08318   0.08901   0.09718   0.10274

 Mulliken charges:
               1
     1  Mg   0.809738
     2  C    0.116065
     3  C   -0.190711
     4  C   -0.189477
     5  C   -0.197329
     6  N   -0.641278
     7  C    0.276489
     8  C   -0.164850
     9  C   -0.133887
    10  C    0.341659
    11  C   -0.313646
    12  C   -0.159939
    13  C   -0.292398
    14  C    0.621173
    15  O   -0.449185
    16  O   -0.525255
    17  N   -0.697185
    18  C    0.299651
    19  C    0.062869
    20  C    0.032238
    21  C    0.293408
    22  C   -0.389135
    23  C   -0.078696
    24  C   -0.245462
    25  N   -0.687808
    26  C    0.283610
    27  C    0.002935
    28  C    0.047725
    29  C    0.320861
    30  C   -0.346681
    31  C   -0.264162
    32  C   -0.284568
    33  N   -0.736996
    34  C    0.245204
    35  C    0.063166
    36  C    0.000612
    37  C    0.333381
    38  C   -0.391224
    39  C    0.367072
    40  O   -0.467180
    41  C   -0.338395
    42  C    0.669694
    43  O   -0.507555
    44  O   -0.467510
    45  C   -0.080240
    46  C    0.019906
    47  C   -0.143352
    48  C    0.124031
    49  C   -0.356247
    50  C   -0.212456
    51  C   -0.197112
    52  C   -0.172939
    53  C   -0.042141
    54  C   -0.331658
    55  C   -0.172060
    56  C   -0.175729
    57  C   -0.179203
    58  C   -0.058818
    59  C   -0.316878
    60  C   -0.156320
    61  C   -0.200792
    62  C   -0.150648
    63  C   -0.062214
    64  C   -0.316889
    65  C   -0.309087
    66  H    0.071243
    67  H    0.081036
    68  H    0.074931
    69  H    0.119936
    70  H    0.103260
    71  H    0.081585
    72  H    0.106200
    73  H    0.142577
    74  H    0.118915
    75  H    0.127413
    76  H    0.141709
    77  H    0.142500
    78  H    0.123774
    79  H    0.107973
    80  H    0.110486
    81  H    0.091109
    82  H    0.101477
    83  H    0.092664
    84  H    0.128605
    85  H    0.107508
    86  H    0.131921
    87  H    0.086869
    88  H    0.083337
    89  H    0.117851
    90  H    0.112538
    91  H    0.097505
    92  H    0.137848
    93  H    0.147109
    94  H    0.129024
    95  H    0.154698
    96  H    0.125372
    97  H    0.126362
    98  H    0.120095
    99  H    0.140804
   100  H    0.101197
   101  H    0.094223
   102  H    0.110092
   103  H    0.125242
   104  H    0.098979
   105  H    0.099983
   106  H    0.092930
   107  H    0.104652
   108  H    0.086365
   109  H    0.085492
   110  H    0.087348
   111  H    0.082077
   112  H    0.095280
   113  H    0.114223
   114  H    0.114962
   115  H    0.070416
   116  H    0.084733
   117  H    0.107462
   118  H    0.061748
   119  H    0.092971
   120  H    0.082457
   121  H    0.089768
   122  H    0.094524
   123  H    0.113465
   124  H    0.093458
   125  H    0.075827
   126  H    0.090840
   127  H    0.097788
   128  H    0.091384
   129  H    0.081666
   130  H    0.092893
   131  H    0.079444
   132  H    0.099794
   133  H    0.110984
   134  H    0.090008
   135  H    0.104694
   136  H    0.100680
   137  H    0.077527
 Sum of Mulliken charges =  -0.00000

 Dipole moment (field-independent basis, Debye):
    X=              0.1866    Y=              2.8704    Z=             -0.9756  Tot=              3.0375
 Quadrupole moment (field-independent basis, Debye-Ang):
   XX=           -336.1940   YY=           -393.5585   ZZ=           -395.8826
   XY=            -18.7794   XZ=             15.4572   YZ=              0.2190

 Normal termination of Gaussian 16 at Tue Sep 10 20:19:26 2019.
