 Gaussian 16, Revision A.03,
 Gaussian 16:  ES64L-G16RevA.03 25-Dec-2016

 ----------------------------------------------------------------------
 # td=(NStates=1) iop(3/107=0140000000,3/108=0140000000) CAM-B3LYP/6-31
 G(d,p)
 ----------------------------------------------------------------------

 --
 TD
 --
 Symbolic Z-matrix:
 Charge =  0 Multiplicity = 1

                         Standard orientation:
 ---------------------------------------------------------------------
 Center     Atomic      Atomic             Coordinates (Angstroms)
 Number     Number       Type             X           Y           Z
 ---------------------------------------------------------------------
      1         12           0       -7.110902    0.553060    0.023209
      2          6           0       -4.869470   -1.986210    0.511131
      3          6           0       -4.716636    2.865949    1.055390
      4          6           0       -9.416131    3.133691   -0.582497
      5          6           0       -9.521568   -1.714358   -0.884113
      6          7           0       -5.043492    0.492122    0.600123
      7          6           0       -4.388732   -0.718041    0.776512
      8          6           0       -2.939926   -0.315881    1.107088
      9          6           0       -2.977040    1.087008    1.558707
     10          6           0       -4.359802    1.589600    1.049429
     11          6           0       -2.763685    1.256595    3.134745
     12          6           0       -2.007439   -0.682506   -0.037396
     13          6           0       -0.577984   -0.466654    0.526662
     14          6           0        0.414032   -0.767518   -0.583441
     15          8           0        0.180072   -1.042000   -1.737549
     16          8           0        1.633739   -0.367429   -0.199806
     17          7           0       -7.035042    2.678958    0.245344
     18          6           0       -6.087663    3.382534    0.742418
     19          6           0       -6.489289    4.759387    0.866942
     20          6           0       -7.752958    4.756031    0.297633
     21          6           0       -8.084344    3.503089   -0.014903
     22          6           0       -5.573410    5.942273    1.315369
     23          6           0       -8.657813    6.031565    0.265821
     24          6           0       -8.401051    7.171097    0.943468
     25          7           0       -9.168607    0.647700   -0.592186
     26          6           0       -9.892663    1.818539   -0.731740
     27          6           0      -11.250050    1.484970   -1.177415
     28          6           0      -11.232536    0.065258   -1.362727
     29          6           0       -9.908291   -0.325528   -0.902876
     30          6           0      -12.372651    2.372878   -1.245860
     31          6           0      -12.330038   -0.794487   -1.853934
     32          6           0      -12.313644   -1.110214   -3.340383
     33          7           0       -7.176534   -1.343348   -0.135025
     34          6           0       -8.265211   -2.329730   -0.528636
     35          6           0       -7.826032   -3.638341   -0.395740
     36          6           0       -6.480327   -3.508741   -0.131572
     37          6           0       -6.201778   -2.220911    0.054483
     38          6           0       -8.659834   -4.914295   -0.669182
     39          6           0       -5.317932   -4.290796    0.270365
     40          8           0       -5.197410   -5.551493    0.257284
     41          6           0       -4.130871   -3.267557    0.565882
     42          6           0       -3.545559   -3.636390    1.906330
     43          8           0       -3.785582   -3.092791    3.007819
     44          8           0       -2.829291   -4.790587    1.903319
     45          6           0       -2.141240   -5.073694    3.124345
     46          6           0        2.704101   -0.600070   -1.162274
     47          6           0        3.924000   -0.495452   -0.478642
     48          6           0        5.013771    0.229552   -0.978377
     49          6           0        5.036122    1.053697   -2.308696
     50          6           0        6.399974    0.263742   -0.273355
     51          6           0        7.644807   -0.275020   -1.025993
     52          6           0        8.936783   -0.103634   -0.106394
     53          6           0       10.289126   -0.546336   -0.869276
     54          6           0       10.231208   -1.971408   -1.297674
     55          6           0       11.450080   -0.256067    0.045140
     56          6           0       12.798773   -0.510077   -0.659455
     57          6           0       14.045387   -0.097093    0.178403
     58          6           0       15.380880   -0.297472   -0.433155
     59          6           0       15.723955   -1.711475   -0.628299
     60          6           0       16.446357    0.595776    0.435829
     61          6           0       17.825458    0.741014   -0.297152
     62          6           0       18.813873    1.482077    0.615604
     63          6           0       20.313245    1.277099    0.189318
     64          6           0       20.440096    2.003275   -1.117536
     65          6           0       21.240261    1.824092    1.262726
     66          1           0       -4.275254    3.742615    1.726602
     67          1           0      -10.055207    3.816652   -0.729226
     68          1           0      -10.347439   -2.350923   -1.246081
     69          1           0       -2.435864   -0.650479    2.051458
     70          1           0       -2.076082    1.750850    1.121073
     71          1           0       -1.803211    1.035078    3.521643
     72          1           0       -2.865633    2.352905    3.435559
     73          1           0       -3.510067    0.799133    3.715110
     74          1           0       -2.099090   -1.708923   -0.491879
     75          1           0       -2.252182    0.095343   -0.829945
     76          1           0       -0.308049    0.388987    1.047489
     77          1           0       -0.341855   -1.121235    1.306231
     78          1           0       -5.494702    6.755321    0.630372
     79          1           0       -5.768494    6.423117    2.307206
     80          1           0       -4.583235    5.524714    1.384657
     81          1           0       -9.482022    6.078291   -0.423706
     82          1           0       -9.151905    8.003113    0.836637
     83          1           0       -7.445422    7.423454    1.765571
     84          1           0      -12.157867    3.157549   -2.100417
     85          1           0      -13.213001    1.897159   -1.505730
     86          1           0      -12.223272    2.987226   -0.320865
     87          1           0      -12.187669   -1.910931   -1.258958
     88          1           0      -13.504589   -0.514265   -1.491079
     89          1           0      -13.359661   -1.537850   -3.708703
     90          1           0      -12.275950   -0.270966   -3.840263
     91          1           0      -11.537751   -1.814278   -3.590459
     92          1           0       -8.987388   -4.815972   -1.700657
     93          1           0       -8.127580   -5.765434   -0.532212
     94          1           0       -9.456520   -4.945259    0.175872
     95          1           0       -3.279517   -3.509687   -0.055299
     96          1           0       -1.855491   -4.092256    3.533713
     97          1           0       -2.875193   -5.370038    3.709734
     98          1           0       -1.298316   -5.728739    2.910403
     99          1           0        2.692188   -1.599947   -1.508372
    100          1           0        2.500969   -0.078571   -1.937726
    101          1           0        4.033955   -1.068264    0.493992
    102          1           0        4.057920    1.254460   -2.654526
    103          1           0        5.722009    2.056046   -2.038014
    104          1           0        5.508916    0.679385   -3.269826
    105          1           0        6.338942    1.273502    0.198419
    106          1           0        6.248025   -0.302138    0.596951
    107          1           0        7.454794   -1.385116   -1.073731
    108          1           0        7.728701    0.229009   -1.932814
    109          1           0        9.046593    1.029628    0.293809
    110          1           0        8.732789   -0.782608    0.668923
    111          1           0       10.423820    0.132229   -1.866060
    112          1           0        9.524809   -2.265628   -1.892162
    113          1           0       11.211917   -2.158420   -1.849771
    114          1           0       10.294532   -2.582134   -0.418799
    115          1           0       11.362577    0.762906    0.222468
    116          1           0       11.392677   -0.718842    1.014495
    117          1           0       12.943041   -1.577424   -0.899511
    118          1           0       12.877205   -0.013456   -1.550165
    119          1           0       13.813778    1.042499    0.396855
    120          1           0       13.798164   -0.650129    1.194944
    121          1           0       15.313028    0.345206   -1.269216
    122          1           0       15.808367   -2.131669    0.507194
    123          1           0       15.107769   -2.422522   -1.127554
    124          1           0       16.898220   -1.683475   -1.075557
    125          1           0       16.138224    1.546475    0.696185
    126          1           0       16.567274    0.094653    1.321640
    127          1           0       18.066967   -0.329524   -0.723001
    128          1           0       17.706738    1.255155   -1.176400
    129          1           0       18.480369    2.691488    0.668307
    130          1           0       18.815065    0.989626    1.715556
    131          1           0       20.586751    0.307566    0.039455
    132          1           0       20.061407    3.071947   -1.239644
    133          1           0       21.531476    2.016086   -1.610034
    134          1           0       19.994152    1.520331   -1.931514
    135          1           0       21.228494    1.096702    2.078092
    136          1           0       22.344484    1.754304    0.915138
    137          1           0       20.850542    2.877057    1.386990
 ---------------------------------------------------------------------

 SCF Done:  E(RCAM-B3LYP) =  -2933.46326970     A.U. after   16 cycles

 Excitation energies and oscillator strengths:

 Excited State   1:      Singlet-A      2.0338 eV  609.61 nm  f=0.2695  <S**2>=0.000
     240 -> 242       -0.15198
     240 -> 243        0.20586
     241 -> 242        0.65089
 This state for optimization and/or second-order correction.
 Total Energy, E(TD-HF/TD-DFT) =  -2933.38852778
 Copying the excited state density for this state as the 1-particle RhoCI density.

 The electronic state is 1-A.
 Alpha  occ. eigenvalues --  -46.80595 -19.20960 -19.20864 -19.16242 -19.15996
 Alpha  occ. eigenvalues --  -19.15529 -14.37172 -14.35585 -14.35545 -14.34717
 Alpha  occ. eigenvalues --  -10.34032 -10.33506 -10.31052 -10.26654 -10.26305
 Alpha  occ. eigenvalues --  -10.25696 -10.25362 -10.25179 -10.25090 -10.24878
 Alpha  occ. eigenvalues --  -10.24723 -10.24716 -10.24588 -10.24491 -10.24481
 Alpha  occ. eigenvalues --  -10.24363 -10.24307 -10.23838 -10.23727 -10.23422
 Alpha  occ. eigenvalues --  -10.23385 -10.23311 -10.23167 -10.22910 -10.22835
 Alpha  occ. eigenvalues --  -10.22736 -10.22601 -10.22555 -10.22449 -10.22412
 Alpha  occ. eigenvalues --  -10.22333 -10.22145 -10.22033 -10.21993 -10.21960
 Alpha  occ. eigenvalues --  -10.21917 -10.21885 -10.21663 -10.21630 -10.21554
 Alpha  occ. eigenvalues --  -10.21348 -10.21269 -10.21208 -10.21058 -10.21033
 Alpha  occ. eigenvalues --  -10.20847 -10.20830 -10.20746 -10.20716 -10.20583
 Alpha  occ. eigenvalues --  -10.20168 -10.19642 -10.19568 -10.19559 -10.18644
 Alpha  occ. eigenvalues --   -3.09131  -1.84073  -1.83608  -1.83539  -1.12830
 Alpha  occ. eigenvalues --   -1.11939  -1.03616  -1.03501  -1.01592  -1.01076
 Alpha  occ. eigenvalues --   -1.00482  -0.99206  -0.97523  -0.87995  -0.85730
 Alpha  occ. eigenvalues --   -0.85537  -0.84770  -0.84676  -0.84340  -0.84071
 Alpha  occ. eigenvalues --   -0.83517  -0.83434  -0.82743  -0.81662  -0.81240
 Alpha  occ. eigenvalues --   -0.79823  -0.79618  -0.79103  -0.78379  -0.77550
 Alpha  occ. eigenvalues --   -0.76947  -0.76489  -0.76165  -0.75156  -0.74238
 Alpha  occ. eigenvalues --   -0.73555  -0.73147  -0.72048  -0.71504  -0.71261
 Alpha  occ. eigenvalues --   -0.70832  -0.70376  -0.69488  -0.69324  -0.68072
 Alpha  occ. eigenvalues --   -0.67305  -0.66257  -0.65013  -0.64607  -0.63648
 Alpha  occ. eigenvalues --   -0.62318  -0.61654  -0.61190  -0.60922  -0.60428
 Alpha  occ. eigenvalues --   -0.60144  -0.59167  -0.59046  -0.58513  -0.58094
 Alpha  occ. eigenvalues --   -0.57517  -0.57031  -0.56605  -0.56160  -0.55605
 Alpha  occ. eigenvalues --   -0.55399  -0.54490  -0.53572  -0.53076  -0.52958
 Alpha  occ. eigenvalues --   -0.52455  -0.52106  -0.51353  -0.51220  -0.50904
 Alpha  occ. eigenvalues --   -0.50566  -0.50318  -0.49987  -0.49843  -0.49381
 Alpha  occ. eigenvalues --   -0.49308  -0.49121  -0.48755  -0.48233  -0.47924
 Alpha  occ. eigenvalues --   -0.47702  -0.47481  -0.47408  -0.47171  -0.47051
 Alpha  occ. eigenvalues --   -0.46933  -0.46600  -0.46227  -0.46028  -0.45749
 Alpha  occ. eigenvalues --   -0.45507  -0.45381  -0.45196  -0.45064  -0.44814
 Alpha  occ. eigenvalues --   -0.44419  -0.44101  -0.44013  -0.43763  -0.43469
 Alpha  occ. eigenvalues --   -0.43469  -0.43182  -0.43055  -0.42918  -0.42808
 Alpha  occ. eigenvalues --   -0.42525  -0.42342  -0.42225  -0.41776  -0.41582
 Alpha  occ. eigenvalues --   -0.41446  -0.41359  -0.41246  -0.41198  -0.41009
 Alpha  occ. eigenvalues --   -0.40731  -0.40586  -0.40133  -0.39873  -0.39594
 Alpha  occ. eigenvalues --   -0.39552  -0.39389  -0.39245  -0.38911  -0.38787
 Alpha  occ. eigenvalues --   -0.38508  -0.38381  -0.38099  -0.38074  -0.37932
 Alpha  occ. eigenvalues --   -0.37818  -0.37317  -0.37259  -0.36986  -0.36921
 Alpha  occ. eigenvalues --   -0.36868  -0.36767  -0.36394  -0.36059  -0.36043
 Alpha  occ. eigenvalues --   -0.35923  -0.35668  -0.35389  -0.35209  -0.34726
 Alpha  occ. eigenvalues --   -0.34685  -0.34281  -0.34130  -0.33755  -0.33527
 Alpha  occ. eigenvalues --   -0.33355  -0.33249  -0.32656  -0.32583  -0.32347
 Alpha  occ. eigenvalues --   -0.32019  -0.31586  -0.31531  -0.30252  -0.29950
 Alpha  occ. eigenvalues --   -0.29704  -0.29322  -0.28968  -0.28731  -0.27812
 Alpha  occ. eigenvalues --   -0.26992  -0.25816  -0.25672  -0.24958  -0.21858
 Alpha  occ. eigenvalues --   -0.20930
 Alpha virt. eigenvalues --   -0.08370  -0.03968  -0.00098   0.02695   0.03716
 Alpha virt. eigenvalues --    0.03794   0.04258   0.04642   0.05070   0.05205
 Alpha virt. eigenvalues --    0.06578   0.07832   0.09305   0.09361   0.09695

 Mulliken charges:
               1
     1  Mg   0.829633
     2  C    0.101758
     3  C   -0.180103
     4  C   -0.093402
     5  C   -0.196608
     6  N   -0.665561
     7  C    0.308514
     8  C   -0.140080
     9  C   -0.158847
    10  C    0.372243
    11  C   -0.336010
    12  C   -0.155790
    13  C   -0.280130
    14  C    0.594920
    15  O   -0.476580
    16  O   -0.480357
    17  N   -0.677373
    18  C    0.282502
    19  C   -0.008606
    20  C    0.007419
    21  C    0.275777
    22  C   -0.385469
    23  C   -0.066519
    24  C   -0.233654
    25  N   -0.677968
    26  C    0.261686
    27  C    0.025573
    28  C    0.053521
    29  C    0.358071
    30  C   -0.365169
    31  C   -0.270552
    32  C   -0.285462
    33  N   -0.777423
    34  C    0.233190
    35  C    0.018713
    36  C    0.033204
    37  C    0.368356
    38  C   -0.356044
    39  C    0.360832
    40  O   -0.484384
    41  C   -0.323299
    42  C    0.601804
    43  O   -0.499020
    44  O   -0.450287
    45  C   -0.073901
    46  C    0.044643
    47  C   -0.132821
    48  C    0.086302
    49  C   -0.355484
    50  C   -0.233307
    51  C   -0.179403
    52  C   -0.169835
    53  C   -0.055571
    54  C   -0.298939
    55  C   -0.158422
    56  C   -0.187448
    57  C   -0.171390
    58  C   -0.043716
    59  C   -0.289484
    60  C   -0.182356
    61  C   -0.177394
    62  C   -0.154534
    63  C   -0.045412
    64  C   -0.311079
    65  C   -0.291242
    66  H    0.084503
    67  H    0.045189
    68  H    0.078096
    69  H    0.110064
    70  H    0.089029
    71  H    0.114507
    72  H    0.094230
    73  H    0.136467
    74  H    0.120656
    75  H    0.115911
    76  H    0.145447
    77  H    0.135410
    78  H    0.137156
    79  H    0.114691
    80  H    0.105713
    81  H    0.090288
    82  H    0.093595
    83  H    0.083865
    84  H    0.105127
    85  H    0.120868
    86  H    0.131664
    87  H    0.068580
    88  H    0.083331
    89  H    0.084185
    90  H    0.127540
    91  H    0.116636
    92  H    0.133834
    93  H    0.157538
    94  H    0.121112
    95  H    0.159474
    96  H    0.122637
    97  H    0.143198
    98  H    0.122250
    99  H    0.129198
   100  H    0.117290
   101  H    0.091487
   102  H    0.117171
   103  H    0.085860
   104  H    0.118639
   105  H    0.104179
   106  H    0.094262
   107  H    0.103905
   108  H    0.106434
   109  H    0.070951
   110  H    0.099738
   111  H    0.054445
   112  H    0.110368
   113  H    0.090576
   114  H    0.098753
   115  H    0.097469
   116  H    0.090179
   117  H    0.086437
   118  H    0.095271
   119  H    0.063082
   120  H    0.060666
   121  H    0.091795
   122  H    0.082137
   123  H    0.123038
   124  H    0.070572
   125  H    0.097549
   126  H    0.100773
   127  H    0.072227
   128  H    0.108404
   129  H    0.069308
   130  H    0.068426
   131  H    0.098059
   132  H    0.091379
   133  H    0.064039
   134  H    0.113140
   135  H    0.101479
   136  H    0.085937
   137  H    0.100361
 Sum of Mulliken charges =  -0.00000

 Dipole moment (field-independent basis, Debye):
    X=              0.0701    Y=              2.8636    Z=             -0.5113  Tot=              2.9097
 Quadrupole moment (field-independent basis, Debye-Ang):
   XX=           -335.5632   YY=           -399.6679   ZZ=           -396.0332
   XY=            -24.2785   XZ=             11.9679   YZ=             -0.0261

 Normal termination of Gaussian 16 at Sun Sep  8 02:50:30 2019.
