 Gaussian 16, Revision A.03,
 Gaussian 16:  ES64L-G16RevA.03 25-Dec-2016

 ----------------------------------------------------------------------
 # td=(NStates=1) iop(3/107=0140000000,3/108=0140000000) CAM-B3LYP/6-31
 G(d,p)
 ----------------------------------------------------------------------

 --
 TD
 --
 Symbolic Z-matrix:
 Charge =  0 Multiplicity = 1

                         Standard orientation:
 ---------------------------------------------------------------------
 Center     Atomic      Atomic             Coordinates (Angstroms)
 Number     Number       Type             X           Y           Z
 ---------------------------------------------------------------------
      1         12           0       -7.141792    0.632173    0.068115
      2          6           0       -4.840881   -1.989398    0.438972
      3          6           0       -4.791742    2.738088    1.227638
      4          6           0       -9.397230    3.127485   -0.263672
      5          6           0       -9.474213   -1.767897   -1.013003
      6          7           0       -5.052934    0.388237    0.721114
      7          6           0       -4.358162   -0.687838    0.818362
      8          6           0       -2.958755   -0.464534    1.323755
      9          6           0       -3.017041    1.031501    1.803355
     10          6           0       -4.421258    1.482591    1.199261
     11          6           0       -2.924165    1.183673    3.413082
     12          6           0       -2.004461   -0.663552   -0.006830
     13          6           0       -0.544166   -0.430163    0.555931
     14          6           0        0.460857   -0.669133   -0.506984
     15          8           0        0.279828   -1.010537   -1.639740
     16          8           0        1.783846   -0.505273   -0.144058
     17          7           0       -7.058037    2.567715    0.379313
     18          6           0       -5.978484    3.375430    0.744917
     19          6           0       -6.336764    4.740508    0.774303
     20          6           0       -7.622017    4.773059    0.310952
     21          6           0       -8.055903    3.407144    0.115311
     22          6           0       -5.508158    5.871751    1.160513
     23          6           0       -8.418543    6.094622    0.119896
     24          6           0       -8.234355    7.340249    0.617814
     25          7           0       -9.126544    0.612494   -0.585784
     26          6           0       -9.853222    1.863759   -0.609098
     27          6           0      -11.151084    1.520083   -1.048017
     28          6           0      -11.135323    0.197890   -1.354804
     29          6           0       -9.915446   -0.411570   -1.028049
     30          6           0      -12.246337    2.570033   -1.375033
     31          6           0      -12.297405   -0.634771   -1.942995
     32          6           0      -12.102376   -1.128098   -3.266309
     33          7           0       -7.280675   -1.384321   -0.205023
     34          6           0       -8.308360   -2.270976   -0.708924
     35          6           0       -7.819284   -3.645572   -0.646964
     36          6           0       -6.501952   -3.571720   -0.185442
     37          6           0       -6.178247   -2.166973    0.013350
     38          6           0       -8.648342   -4.856273   -1.039068
     39          6           0       -5.356655   -4.392924    0.148074
     40          8           0       -5.212436   -5.657896    0.057773
     41          6           0       -4.200445   -3.378246    0.538481
     42          6           0       -3.713137   -3.674457    1.991738
     43          8           0       -3.880248   -3.061973    3.008313
     44          8           0       -2.891638   -4.711217    1.842715
     45          6           0       -2.434140   -5.140870    3.162085
     46          6           0        2.806901   -0.563780   -1.193994
     47          6           0        4.132219   -0.281448   -0.384307
     48          6           0        5.154823    0.383901   -0.880326
     49          6           0        5.201122    1.310132   -2.004596
     50          6           0        6.465603    0.447424   -0.014524
     51          6           0        7.615066   -0.092369   -0.954944
     52          6           0        8.923709   -0.160657   -0.030029
     53          6           0       10.154735   -0.611120   -0.848063
     54          6           0       10.133505   -2.055797   -1.155537
     55          6           0       11.404418   -0.101337   -0.047822
     56          6           0       12.771632   -0.416982   -0.714477
     57          6           0       13.922919   -0.077273    0.227722
     58          6           0       15.320363   -0.340860   -0.450728
     59          6           0       15.602188   -1.829604   -0.922575
     60          6           0       16.496640    0.284091    0.440902
     61          6           0       17.725637    0.499088   -0.262843
     62          6           0       18.793285    1.198988    0.633642
     63          6           0       20.219489    1.368421    0.101549
     64          6           0       20.223161    2.279373   -1.120023
     65          6           0       21.203480    1.731866    1.126078
     66          1           0       -4.097203    3.481575    1.746931
     67          1           0      -10.049645    3.918941   -0.382756
     68          1           0      -10.383313   -2.338405   -1.433465
     69          1           0       -2.635912   -1.127445    2.239036
     70          1           0       -2.082738    1.608390    1.430609
     71          1           0       -1.889874    0.983054    4.082175
     72          1           0       -3.124288    2.082951    3.664819
     73          1           0       -3.723296    0.495070    3.743519
     74          1           0       -2.140566   -1.534611   -0.626795
     75          1           0       -2.373701    0.096459   -0.573255
     76          1           0       -0.359469    0.578858    1.192729
     77          1           0       -0.432167   -1.051117    1.218475
     78          1           0       -5.715204    6.627382    0.257477
     79          1           0       -5.866322    6.249623    2.081463
     80          1           0       -4.370247    5.644898    1.214652
     81          1           0       -9.437028    5.796520   -0.488105
     82          1           0       -8.753065    8.258897    0.278892
     83          1           0       -7.352880    7.614315    1.348988
     84          1           0      -11.852026    2.988838   -2.362927
     85          1           0      -13.226603    2.078545   -1.442354
     86          1           0      -12.354638    3.176119   -0.543309
     87          1           0      -12.414369   -1.562073   -1.223484
     88          1           0      -13.238380   -0.299966   -1.813068
     89          1           0      -13.044500   -1.908010   -3.493624
     90          1           0      -12.412677   -0.371992   -4.120311
     91          1           0      -11.098770   -1.652328   -3.547585
     92          1           0       -8.974291   -4.819704   -1.917956
     93          1           0       -7.833298   -5.717986   -0.848257
     94          1           0       -9.408310   -4.921665   -0.419187
     95          1           0       -3.482210   -3.284988   -0.199665
     96          1           0       -2.061437   -4.248508    3.864018
     97          1           0       -3.402445   -5.550015    3.660361
     98          1           0       -1.723602   -5.965657    2.808098
     99          1           0        2.651721   -1.451161   -1.691523
    100          1           0        2.588455    0.244383   -1.820529
    101          1           0        4.260996   -0.762792    0.401076
    102          1           0        4.156865    1.528607   -2.488397
    103          1           0        5.671207    2.203504   -1.666959
    104          1           0        5.890193    1.051211   -2.765663
    105          1           0        6.451408    1.602201    0.027752
    106          1           0        6.285684   -0.107874    0.824688
    107          1           0        7.124988   -1.162512   -1.495978
    108          1           0        7.849803    0.624508   -1.736150
    109          1           0        9.196392    0.886438    0.400317
    110          1           0        8.935189   -0.853508    0.659112
    111          1           0       10.170502   -0.103042   -1.836327
    112          1           0        9.233661   -2.336519   -1.761836
    113          1           0       10.968992   -2.170500   -1.784355
    114          1           0       10.105566   -2.768928   -0.234834
    115          1           0       11.285690    1.020873   -0.104146
    116          1           0       11.413540   -0.420543    1.041683
    117          1           0       12.847280   -1.474050   -1.176443
    118          1           0       12.992484    0.139413   -1.531044
    119          1           0       13.987439    0.811336    0.459716
    120          1           0       13.871679   -0.649258    1.173050
    121          1           0       15.243200    0.392654   -1.328329
    122          1           0       16.039152   -2.485707    0.010637
    123          1           0       14.603868   -2.432999   -1.355519
    124          1           0       16.467736   -2.065846   -1.725269
    125          1           0       16.097154    1.207761    0.606116
    126          1           0       16.410536   -0.272498    1.256900
    127          1           0       18.308913   -0.409634   -0.805086
    128          1           0       17.555245    1.176094   -1.174582
    129          1           0       18.653683    2.112209    0.848788
    130          1           0       18.862055    0.753808    1.536173
    131          1           0       20.567311    0.333813   -0.297672
    132          1           0       19.776403    3.319095   -0.987817
    133          1           0       21.208129    2.495605   -1.445893
    134          1           0       19.755359    1.694743   -1.911432
    135          1           0       21.435851    0.874323    1.960197
    136          1           0       22.249048    2.011870    0.656742
    137          1           0       20.932921    2.747416    1.715752
 ---------------------------------------------------------------------

 SCF Done:  E(RCAM-B3LYP) =  -2933.38459647     A.U. after   16 cycles

 Excitation energies and oscillator strengths:

 Excited State   1:      Singlet-A      2.1105 eV  587.45 nm  f=0.2141  <S**2>=0.000
     240 -> 243       -0.26090
     241 -> 242        0.64252
 This state for optimization and/or second-order correction.
 Total Energy, E(TD-HF/TD-DFT) =  -2933.30703534
 Copying the excited state density for this state as the 1-particle RhoCI density.

 The electronic state is 1-A.
 Alpha  occ. eigenvalues --  -46.79780 -19.22600 -19.19126 -19.17806 -19.16621
 Alpha  occ. eigenvalues --  -19.15701 -14.37552 -14.35505 -14.35071 -14.34234
 Alpha  occ. eigenvalues --  -10.34896 -10.33460 -10.31259 -10.28608 -10.26661
 Alpha  occ. eigenvalues --  -10.25650 -10.25631 -10.25176 -10.25115 -10.25047
 Alpha  occ. eigenvalues --  -10.24992 -10.24920 -10.24667 -10.24523 -10.24290
 Alpha  occ. eigenvalues --  -10.24140 -10.23882 -10.23784 -10.23776 -10.23760
 Alpha  occ. eigenvalues --  -10.23146 -10.23086 -10.23046 -10.22972 -10.22903
 Alpha  occ. eigenvalues --  -10.22816 -10.22590 -10.22573 -10.22566 -10.22548
 Alpha  occ. eigenvalues --  -10.22347 -10.22027 -10.21941 -10.21854 -10.21826
 Alpha  occ. eigenvalues --  -10.21663 -10.21629 -10.21617 -10.21569 -10.21470
 Alpha  occ. eigenvalues --  -10.21453 -10.21302 -10.21206 -10.21117 -10.21005
 Alpha  occ. eigenvalues --  -10.20792 -10.20497 -10.20323 -10.20240 -10.20007
 Alpha  occ. eigenvalues --  -10.19782 -10.19247 -10.19114 -10.18914 -10.17784
 Alpha  occ. eigenvalues --   -3.08371  -1.83312  -1.82871  -1.82750  -1.14512
 Alpha  occ. eigenvalues --   -1.11585  -1.05653  -1.03155  -1.02314  -1.00987
 Alpha  occ. eigenvalues --   -0.99097  -0.97284  -0.96113  -0.87373  -0.86035
 Alpha  occ. eigenvalues --   -0.85767  -0.84809  -0.84449  -0.84334  -0.83764
 Alpha  occ. eigenvalues --   -0.83445  -0.83011  -0.82878  -0.82680  -0.80525
 Alpha  occ. eigenvalues --   -0.80224  -0.79593  -0.78979  -0.77745  -0.77708
 Alpha  occ. eigenvalues --   -0.76400  -0.76097  -0.75681  -0.74705  -0.74116
 Alpha  occ. eigenvalues --   -0.73477  -0.72190  -0.71915  -0.71503  -0.71252
 Alpha  occ. eigenvalues --   -0.70861  -0.70324  -0.69761  -0.69177  -0.68695
 Alpha  occ. eigenvalues --   -0.67449  -0.67058  -0.64942  -0.64380  -0.63536
 Alpha  occ. eigenvalues --   -0.62525  -0.61989  -0.61290  -0.61202  -0.60582
 Alpha  occ. eigenvalues --   -0.59349  -0.58849  -0.58740  -0.58123  -0.57886
 Alpha  occ. eigenvalues --   -0.57201  -0.56886  -0.56689  -0.55776  -0.55336
 Alpha  occ. eigenvalues --   -0.54880  -0.54407  -0.53844  -0.53474  -0.52901
 Alpha  occ. eigenvalues --   -0.51988  -0.51692  -0.51415  -0.51013  -0.50912
 Alpha  occ. eigenvalues --   -0.50511  -0.50297  -0.50210  -0.49593  -0.49500
 Alpha  occ. eigenvalues --   -0.48790  -0.48569  -0.48450  -0.48431  -0.48103
 Alpha  occ. eigenvalues --   -0.47842  -0.47661  -0.47522  -0.47387  -0.47189
 Alpha  occ. eigenvalues --   -0.46729  -0.46642  -0.46473  -0.46346  -0.45895
 Alpha  occ. eigenvalues --   -0.45685  -0.45344  -0.44896  -0.44770  -0.44670
 Alpha  occ. eigenvalues --   -0.44497  -0.44213  -0.44034  -0.43640  -0.43544
 Alpha  occ. eigenvalues --   -0.43222  -0.43069  -0.42872  -0.42692  -0.42684
 Alpha  occ. eigenvalues --   -0.42603  -0.42238  -0.41785  -0.41630  -0.41553
 Alpha  occ. eigenvalues --   -0.41442  -0.41282  -0.41066  -0.40928  -0.40687
 Alpha  occ. eigenvalues --   -0.40554  -0.40451  -0.40259  -0.40088  -0.39931
 Alpha  occ. eigenvalues --   -0.39853  -0.39763  -0.39572  -0.39507  -0.39120
 Alpha  occ. eigenvalues --   -0.38938  -0.38863  -0.38467  -0.38152  -0.37886
 Alpha  occ. eigenvalues --   -0.37798  -0.37535  -0.37303  -0.37211  -0.37087
 Alpha  occ. eigenvalues --   -0.37008  -0.36635  -0.36466  -0.36309  -0.35952
 Alpha  occ. eigenvalues --   -0.35660  -0.35179  -0.35031  -0.34563  -0.34293
 Alpha  occ. eigenvalues --   -0.34200  -0.34036  -0.33980  -0.33677  -0.33557
 Alpha  occ. eigenvalues --   -0.33244  -0.32802  -0.32627  -0.32356  -0.32315
 Alpha  occ. eigenvalues --   -0.31856  -0.31518  -0.31496  -0.31275  -0.30258
 Alpha  occ. eigenvalues --   -0.29804  -0.29587  -0.29277  -0.28881  -0.27456
 Alpha  occ. eigenvalues --   -0.27031  -0.26752  -0.25721  -0.25024  -0.21642
 Alpha  occ. eigenvalues --   -0.20510
 Alpha virt. eigenvalues --   -0.07247  -0.04446  -0.00595   0.02544   0.03817
 Alpha virt. eigenvalues --    0.04368   0.04878   0.05304   0.05811   0.05962
 Alpha virt. eigenvalues --    0.06656   0.08974   0.09678   0.09845   0.10172

 Mulliken charges:
               1
     1  Mg   0.804445
     2  C   -0.016219
     3  C   -0.197488
     4  C   -0.129501
     5  C   -0.201378
     6  N   -0.627672
     7  C    0.347707
     8  C   -0.187926
     9  C   -0.152619
    10  C    0.348331
    11  C   -0.304845
    12  C   -0.185018
    13  C   -0.239502
    14  C    0.587369
    15  O   -0.467369
    16  O   -0.515686
    17  N   -0.737393
    18  C    0.253455
    19  C    0.064009
    20  C   -0.022169
    21  C    0.348401
    22  C   -0.387562
    23  C   -0.044010
    24  C   -0.273562
    25  N   -0.719300
    26  C    0.286318
    27  C   -0.010539
    28  C    0.005054
    29  C    0.328184
    30  C   -0.359253
    31  C   -0.221499
    32  C   -0.286453
    33  N   -0.739608
    34  C    0.311282
    35  C    0.011299
    36  C    0.031863
    37  C    0.353054
    38  C   -0.343639
    39  C    0.339629
    40  O   -0.486069
    41  C   -0.285889
    42  C    0.618745
    43  O   -0.462696
    44  O   -0.417740
    45  C   -0.100553
    46  C    0.034493
    47  C   -0.111141
    48  C    0.118322
    49  C   -0.371110
    50  C   -0.208732
    51  C   -0.169227
    52  C   -0.156618
    53  C   -0.070566
    54  C   -0.298567
    55  C   -0.175448
    56  C   -0.182819
    57  C   -0.155481
    58  C   -0.086159
    59  C   -0.294163
    60  C   -0.154455
    61  C   -0.177306
    62  C   -0.140021
    63  C   -0.058031
    64  C   -0.309455
    65  C   -0.293412
    66  H    0.077260
    67  H    0.080639
    68  H    0.082089
    69  H    0.120222
    70  H    0.090331
    71  H    0.077204
    72  H    0.124395
    73  H    0.124190
    74  H    0.132359
    75  H    0.132283
    76  H    0.124244
    77  H    0.150584
    78  H    0.118874
    79  H    0.139383
    80  H    0.101748
    81  H    0.066567
    82  H    0.113115
    83  H    0.096315
    84  H    0.130856
    85  H    0.111901
    86  H    0.127763
    87  H    0.083764
    88  H    0.106018
    89  H    0.066051
    90  H    0.095089
    91  H    0.105785
    92  H    0.136100
    93  H    0.134463
    94  H    0.139780
    95  H    0.167273
    96  H    0.135161
    97  H    0.130367
    98  H    0.127335
    99  H    0.135553
   100  H    0.112004
   101  H    0.060385
   102  H    0.101234
   103  H    0.114783
   104  H    0.127811
   105  H    0.094229
   106  H    0.104793
   107  H    0.071119
   108  H    0.103964
   109  H    0.079871
   110  H    0.105121
   111  H    0.073186
   112  H    0.097339
   113  H    0.109133
   114  H    0.085148
   115  H    0.086771
   116  H    0.086281
   117  H    0.082487
   118  H    0.100999
   119  H    0.097713
   120  H    0.079819
   121  H    0.067499
   122  H    0.077768
   123  H    0.081235
   124  H    0.093512
   125  H    0.102035
   126  H    0.104239
   127  H    0.069837
   128  H    0.085247
   129  H    0.097244
   130  H    0.090712
   131  H    0.068982
   132  H    0.089055
   133  H    0.102579
   134  H    0.107984
   135  H    0.083672
   136  H    0.088576
   137  H    0.074481
 Sum of Mulliken charges =  -0.00000

 Dipole moment (field-independent basis, Debye):
    X=              1.0793    Y=              4.4365    Z=              0.8667  Tot=              4.6474
 Quadrupole moment (field-independent basis, Debye-Ang):
   XX=           -353.7527   YY=           -396.3705   ZZ=           -394.8430
   XY=             -8.9165   XZ=              7.9488   YZ=             -3.6811

 Normal termination of Gaussian 16 at Wed Sep  4 03:56:13 2019.
