 Gaussian 16, Revision A.03,
 Gaussian 16:  ES64L-G16RevA.03 25-Dec-2016

 ----------------------------------------------------------------------
 # td=(NStates=1) iop(3/107=0140000000,3/108=0140000000) CAM-B3LYP/6-31
 G(d,p)
 ----------------------------------------------------------------------

 --
 TD
 --
 Symbolic Z-matrix:
 Charge =  0 Multiplicity = 1

                         Standard orientation:
 ---------------------------------------------------------------------
 Center     Atomic      Atomic             Coordinates (Angstroms)
 Number     Number       Type             X           Y           Z
 ---------------------------------------------------------------------
      1         12           0       -7.182301    0.611488   -0.001194
      2          6           0       -4.863944   -1.937274    0.463263
      3          6           0       -4.801493    2.809434    1.185224
      4          6           0       -9.424149    3.121033   -0.332091
      5          6           0       -9.531208   -1.698085   -0.922035
      6          7           0       -5.139635    0.404159    0.626181
      7          6           0       -4.333334   -0.757439    0.771214
      8          6           0       -2.936104   -0.400271    1.326060
      9          6           0       -3.060781    1.089391    1.753131
     10          6           0       -4.447005    1.439895    1.139304
     11          6           0       -2.929892    1.204697    3.258965
     12          6           0       -1.879304   -0.727531    0.241574
     13          6           0       -0.435444   -0.503753    0.638479
     14          6           0        0.552190   -0.793812   -0.544797
     15          8           0        0.275984   -1.217611   -1.597254
     16          8           0        1.749431   -0.535536   -0.099602
     17          7           0       -7.040030    2.660238    0.391598
     18          6           0       -5.993950    3.324303    0.702722
     19          6           0       -6.345934    4.737655    0.732089
     20          6           0       -7.716016    4.869390    0.419105
     21          6           0       -8.115943    3.567233    0.091466
     22          6           0       -5.439060    5.937852    1.040091
     23          6           0       -8.585429    6.061470    0.286463
     24          6           0       -8.358166    7.219034    0.776632
     25          7           0       -9.200381    0.726316   -0.505022
     26          6           0       -9.872076    1.891357   -0.681689
     27          6           0      -11.312388    1.540789   -1.146748
     28          6           0      -11.221025    0.197138   -1.384955
     29          6           0       -9.928261   -0.259197   -1.020096
     30          6           0      -12.371548    2.451844   -1.387314
     31          6           0      -12.418525   -0.773852   -1.856653
     32          6           0      -12.214683   -1.251519   -3.371959
     33          7           0       -7.195189   -1.343103   -0.403535
     34          6           0       -8.210603   -2.161781   -0.622724
     35          6           0       -7.788689   -3.554610   -0.558344
     36          6           0       -6.533806   -3.527781   -0.225539
     37          6           0       -6.098798   -2.241293   -0.020545
     38          6           0       -8.677380   -4.841440   -0.916036
     39          6           0       -5.344523   -4.335585    0.162303
     40          8           0       -5.178354   -5.533623    0.166163
     41          6           0       -4.243709   -3.277679    0.675829
     42          6           0       -3.659056   -3.696354    2.009414
     43          8           0       -3.847758   -3.045311    3.084930
     44          8           0       -2.902024   -4.736558    1.890998
     45          6           0       -2.384357   -5.250189    3.136690
     46          6           0        2.834874   -0.769107   -1.029757
     47          6           0        4.089570   -0.437969   -0.364224
     48          6           0        5.044601    0.336010   -0.876981
     49          6           0        5.090510    1.267883   -2.044905
     50          6           0        6.357934    0.531450   -0.144702
     51          6           0        7.581911   -0.054674   -0.981032
     52          6           0        8.893879   -0.075157   -0.133898
     53          6           0       10.173015   -0.516738   -0.859783
     54          6           0       10.128235   -2.004435   -1.310039
     55          6           0       11.493760   -0.200741   -0.046532
     56          6           0       12.865227   -0.498656   -0.809295
     57          6           0       13.942561   -0.176486    0.084569
     58          6           0       15.436600   -0.218886   -0.484135
     59          6           0       15.750843   -1.690027   -0.878231
     60          6           0       16.436390    0.306908    0.357205
     61          6           0       17.817136    0.504167   -0.211796
     62          6           0       18.868805    1.214654    0.660188
     63          6           0       20.344628    1.364362    0.285838
     64          6           0       20.554136    2.019693   -1.151058
     65          6           0       21.189931    2.088830    1.263075
     66          1           0       -4.033962    3.450732    1.686669
     67          1           0      -10.198839    3.844757   -0.198196
     68          1           0      -10.297619   -2.498311   -1.315664
     69          1           0       -2.683993   -0.951115    2.129171
     70          1           0       -2.212984    1.534841    1.362557
     71          1           0       -2.004351    0.775071    3.508337
     72          1           0       -3.016034    2.205093    3.590810
     73          1           0       -3.965910    0.661883    3.597132
     74          1           0       -2.045566   -1.725272   -0.373174
     75          1           0       -2.000915   -0.113467   -0.674643
     76          1           0       -0.454980    0.500242    0.949052
     77          1           0       -0.177181   -1.073371    1.464769
     78          1           0       -5.564607    6.667176    0.069105
     79          1           0       -5.512870    6.664094    1.889084
     80          1           0       -4.392549    5.592202    1.026803
     81          1           0       -9.489389    5.764103   -0.443801
     82          1           0       -8.962189    7.998495    0.347868
     83          1           0       -7.546369    7.694534    1.387749
     84          1           0      -12.190386    3.302451   -2.267260
     85          1           0      -13.114444    1.802730   -1.834241
     86          1           0      -12.815306    3.093671   -0.333147
     87          1           0      -12.297726   -1.688257   -1.038490
     88          1           0      -13.329521   -0.243546   -1.865417
     89          1           0      -12.851402   -2.287856   -3.656313
     90          1           0      -12.545387   -0.271137   -4.103488
     91          1           0      -11.085890   -1.452092   -3.559964
     92          1           0       -9.197386   -4.746354   -1.869182
     93          1           0       -8.166261   -5.646481   -0.794840
     94          1           0       -9.384755   -4.989072   -0.271213
     95          1           0       -3.425094   -3.470658   -0.113116
     96          1           0       -1.473827   -4.492053    3.303987
     97          1           0       -3.275242   -5.288469    3.970816
     98          1           0       -2.038751   -6.321741    2.889683
     99          1           0        2.641728   -1.716701   -1.265363
    100          1           0        2.560796   -0.090807   -2.071585
    101          1           0        4.445673   -1.053611    0.577911
    102          1           0        4.043213    1.208688   -2.447219
    103          1           0        5.287700    2.286290   -1.777861
    104          1           0        5.713713    0.945581   -2.794037
    105          1           0        6.602913    1.481523    0.036277
    106          1           0        6.291774   -0.062087    0.762383
    107          1           0        7.436042   -1.203059   -1.110808
    108          1           0        7.752585    0.368078   -2.055815
    109          1           0        9.079053    0.949292    0.315646
    110          1           0        8.779089   -0.582643    0.811017
    111          1           0       10.297873   -0.024671   -1.906166
    112          1           0        9.342936   -2.352117   -1.881207
    113          1           0       10.968422   -2.320655   -1.879552
    114          1           0       10.310868   -2.709256   -0.572330
    115          1           0       11.405832    0.886568    0.111160
    116          1           0       11.264622   -0.718560    0.935948
    117          1           0       12.824046   -1.438577   -1.145133
    118          1           0       12.872739    0.208507   -1.506391
    119          1           0       13.956643    0.913077    0.518783
    120          1           0       13.882274   -0.829233    0.884228
    121          1           0       15.346863    0.312641   -1.431585
    122          1           0       15.800605   -2.330037   -0.068127
    123          1           0       15.027022   -1.899059   -1.895938
    124          1           0       16.632922   -1.790626   -1.474589
    125          1           0       16.198281    1.177663    0.727025
    126          1           0       16.427748   -0.308777    1.179543
    127          1           0       18.092796   -0.630827   -0.587455
    128          1           0       17.564165    1.156577   -1.186990
    129          1           0       18.447043    2.273168    0.766356
    130          1           0       18.882864    0.874939    1.711127
    131          1           0       20.773204    0.394206    0.197313
    132          1           0       20.011997    2.951671   -1.223880
    133          1           0       21.663663    2.475673   -1.396879
    134          1           0       20.449277    1.473348   -2.242233
    135          1           0       21.093379    1.625535    2.358738
    136          1           0       22.329242    1.950848    1.098709
    137          1           0       20.865200    3.147687    1.297442
 ---------------------------------------------------------------------

 SCF Done:  E(RCAM-B3LYP) =  -2933.43929457     A.U. after   16 cycles

 Excitation energies and oscillator strengths:

 Excited State   1:      Singlet-A      1.9930 eV  622.09 nm  f=0.2609  <S**2>=0.000
     240 -> 243        0.22782
     241 -> 242        0.65976
 This state for optimization and/or second-order correction.
 Total Energy, E(TD-HF/TD-DFT) =  -2933.36605254
 Copying the excited state density for this state as the 1-particle RhoCI density.

 The electronic state is 1-A.
 Alpha  occ. eigenvalues --  -46.80117 -19.23446 -19.21743 -19.16848 -19.16822
 Alpha  occ. eigenvalues --  -19.15514 -14.37724 -14.35184 -14.34836 -14.34522
 Alpha  occ. eigenvalues --  -10.34598 -10.33933 -10.31114 -10.29953 -10.28080
 Alpha  occ. eigenvalues --  -10.25966 -10.25797 -10.25024 -10.24791 -10.24766
 Alpha  occ. eigenvalues --  -10.24653 -10.24299 -10.24221 -10.24199 -10.24168
 Alpha  occ. eigenvalues --  -10.24139 -10.24129 -10.24023 -10.23377 -10.23260
 Alpha  occ. eigenvalues --  -10.23173 -10.23009 -10.22822 -10.22774 -10.22599
 Alpha  occ. eigenvalues --  -10.22568 -10.22207 -10.22193 -10.22191 -10.22144
 Alpha  occ. eigenvalues --  -10.22110 -10.22068 -10.22066 -10.21966 -10.21948
 Alpha  occ. eigenvalues --  -10.21897 -10.21880 -10.21851 -10.21573 -10.21535
 Alpha  occ. eigenvalues --  -10.21463 -10.21402 -10.21309 -10.21285 -10.21072
 Alpha  occ. eigenvalues --  -10.21017 -10.20762 -10.20604 -10.20564 -10.20517
 Alpha  occ. eigenvalues --  -10.20183 -10.19427 -10.19044 -10.18307 -10.17706
 Alpha  occ. eigenvalues --   -3.08618  -1.83571  -1.83088  -1.83015  -1.15363
 Alpha  occ. eigenvalues --   -1.14904  -1.06899  -1.06575  -1.01577  -0.99346
 Alpha  occ. eigenvalues --   -0.98639  -0.98492  -0.97152  -0.88581  -0.86844
 Alpha  occ. eigenvalues --   -0.86725  -0.85068  -0.84314  -0.84190  -0.83372
 Alpha  occ. eigenvalues --   -0.83190  -0.82875  -0.82321  -0.81795  -0.81061
 Alpha  occ. eigenvalues --   -0.80410  -0.79240  -0.78837  -0.78066  -0.77490
 Alpha  occ. eigenvalues --   -0.76730  -0.76431  -0.75743  -0.75629  -0.74237
 Alpha  occ. eigenvalues --   -0.72872  -0.72441  -0.72052  -0.71380  -0.71166
 Alpha  occ. eigenvalues --   -0.70914  -0.70065  -0.69325  -0.69213  -0.68015
 Alpha  occ. eigenvalues --   -0.66429  -0.65876  -0.64635  -0.63553  -0.63127
 Alpha  occ. eigenvalues --   -0.62569  -0.62446  -0.61190  -0.61025  -0.60330
 Alpha  occ. eigenvalues --   -0.59544  -0.59469  -0.59310  -0.58620  -0.58330
 Alpha  occ. eigenvalues --   -0.57401  -0.56976  -0.55826  -0.55730  -0.55007
 Alpha  occ. eigenvalues --   -0.54399  -0.53768  -0.53578  -0.53471  -0.52900
 Alpha  occ. eigenvalues --   -0.52540  -0.52398  -0.52035  -0.51665  -0.51065
 Alpha  occ. eigenvalues --   -0.50720  -0.50584  -0.50102  -0.49856  -0.49522
 Alpha  occ. eigenvalues --   -0.49383  -0.49067  -0.48829  -0.48190  -0.48024
 Alpha  occ. eigenvalues --   -0.47741  -0.47479  -0.47195  -0.47105  -0.46792
 Alpha  occ. eigenvalues --   -0.46693  -0.46360  -0.46238  -0.46019  -0.45666
 Alpha  occ. eigenvalues --   -0.45618  -0.45455  -0.45044  -0.44921  -0.44811
 Alpha  occ. eigenvalues --   -0.44541  -0.44209  -0.44120  -0.43763  -0.43625
 Alpha  occ. eigenvalues --   -0.43433  -0.42971  -0.42825  -0.42652  -0.42459
 Alpha  occ. eigenvalues --   -0.42300  -0.42056  -0.41962  -0.41464  -0.41296
 Alpha  occ. eigenvalues --   -0.41220  -0.41079  -0.40891  -0.40750  -0.40566
 Alpha  occ. eigenvalues --   -0.40494  -0.40409  -0.40053  -0.40004  -0.39756
 Alpha  occ. eigenvalues --   -0.39677  -0.39493  -0.39135  -0.38999  -0.38918
 Alpha  occ. eigenvalues --   -0.38553  -0.38450  -0.38104  -0.37955  -0.37909
 Alpha  occ. eigenvalues --   -0.37780  -0.37532  -0.37439  -0.37171  -0.36772
 Alpha  occ. eigenvalues --   -0.36590  -0.36476  -0.36113  -0.35929  -0.35632
 Alpha  occ. eigenvalues --   -0.35322  -0.35268  -0.34541  -0.34476  -0.34416
 Alpha  occ. eigenvalues --   -0.34332  -0.34179  -0.33925  -0.33756  -0.33649
 Alpha  occ. eigenvalues --   -0.33540  -0.33184  -0.33100  -0.32931  -0.32709
 Alpha  occ. eigenvalues --   -0.32622  -0.32567  -0.31936  -0.31107  -0.30462
 Alpha  occ. eigenvalues --   -0.30324  -0.30143  -0.29229  -0.28839  -0.28088
 Alpha  occ. eigenvalues --   -0.27038  -0.27016  -0.26011  -0.24383  -0.21440
 Alpha  occ. eigenvalues --   -0.19529
 Alpha virt. eigenvalues --   -0.07005  -0.03631   0.00086   0.03040   0.03642
 Alpha virt. eigenvalues --    0.03725   0.04765   0.05430   0.05480   0.05907
 Alpha virt. eigenvalues --    0.06672   0.08373   0.09238   0.09714   0.09976

 Mulliken charges:
               1
     1  Mg   0.809370
     2  C    0.124338
     3  C   -0.190297
     4  C   -0.189108
     5  C   -0.194876
     6  N   -0.636613
     7  C    0.265976
     8  C   -0.115491
     9  C   -0.153911
    10  C    0.350360
    11  C   -0.293440
    12  C   -0.202311
    13  C   -0.268729
    14  C    0.593080
    15  O   -0.449941
    16  O   -0.448589
    17  N   -0.696963
    18  C    0.390397
    19  C   -0.053930
    20  C    0.074103
    21  C    0.228838
    22  C   -0.378897
    23  C   -0.055001
    24  C   -0.247780
    25  N   -0.656919
    26  C    0.277922
    27  C    0.074383
    28  C    0.005561
    29  C    0.305363
    30  C   -0.380694
    31  C   -0.218378
    32  C   -0.284710
    33  N   -0.721020
    34  C    0.320691
    35  C   -0.083598
    36  C    0.139135
    37  C    0.181371
    38  C   -0.349643
    39  C    0.353906
    40  O   -0.444531
    41  C   -0.351814
    42  C    0.619049
    43  O   -0.521512
    44  O   -0.395618
    45  C   -0.082372
    46  C    0.012329
    47  C   -0.131715
    48  C    0.135558
    49  C   -0.360170
    50  C   -0.218409
    51  C   -0.188754
    52  C   -0.173345
    53  C   -0.054890
    54  C   -0.333809
    55  C   -0.196097
    56  C   -0.152504
    57  C   -0.166412
    58  C   -0.070078
    59  C   -0.313032
    60  C   -0.132303
    61  C   -0.164307
    62  C   -0.163816
    63  C   -0.038780
    64  C   -0.315563
    65  C   -0.300305
    66  H    0.083829
    67  H    0.090571
    68  H    0.087300
    69  H    0.122621
    70  H    0.105341
    71  H    0.115402
    72  H    0.111981
    73  H    0.107048
    74  H    0.099214
    75  H    0.109194
    76  H    0.128067
    77  H    0.130148
    78  H    0.100185
    79  H    0.121620
    80  H    0.103846
    81  H    0.085148
    82  H    0.093330
    83  H    0.107443
    84  H    0.104031
    85  H    0.115626
    86  H    0.086419
    87  H    0.095174
    88  H    0.113446
    89  H    0.085691
    90  H    0.080451
    91  H    0.114340
    92  H    0.119498
    93  H    0.136684
    94  H    0.133108
    95  H    0.156531
    96  H    0.122929
    97  H    0.140468
    98  H    0.130538
    99  H    0.134782
   100  H    0.097259
   101  H    0.085155
   102  H    0.092874
   103  H    0.127946
   104  H    0.139117
   105  H    0.115989
   106  H    0.091157
   107  H    0.093615
   108  H    0.089998
   109  H    0.072264
   110  H    0.096477
   111  H    0.066936
   112  H    0.106446
   113  H    0.097013
   114  H    0.099564
   115  H    0.092143
   116  H    0.082922
   117  H    0.111009
   118  H    0.104770
   119  H    0.067190
   120  H    0.091693
   121  H    0.068671
   122  H    0.110595
   123  H    0.061178
   124  H    0.111498
   125  H    0.088011
   126  H    0.088402
   127  H    0.063069
   128  H    0.073920
   129  H    0.077877
   130  H    0.090809
   131  H    0.101260
   132  H    0.106608
   133  H    0.069215
   134  H    0.087660
   135  H    0.078422
   136  H    0.104058
   137  H    0.104451
 Sum of Mulliken charges =  -0.00000

 Dipole moment (field-independent basis, Debye):
    X=              3.5318    Y=              2.4147    Z=              0.3987  Tot=              4.2969
 Quadrupole moment (field-independent basis, Debye-Ang):
   XX=           -356.1548   YY=           -387.9398   ZZ=           -399.2398
   XY=             -9.8374   XZ=             16.4968   YZ=             -5.7315

 Normal termination of Gaussian 16 at Sun Sep 22 01:52:13 2019.
