 Gaussian 16, Revision A.03,
 Gaussian 16:  ES64L-G16RevA.03 25-Dec-2016

 ----------------------------------------------------------------------
 # td=(NStates=1) iop(3/107=0140000000,3/108=0140000000) CAM-B3LYP/6-31
 G(d,p)
 ----------------------------------------------------------------------

 --
 TD
 --
 Symbolic Z-matrix:
 Charge =  0 Multiplicity = 1

                         Standard orientation:
 ---------------------------------------------------------------------
 Center     Atomic      Atomic             Coordinates (Angstroms)
 Number     Number       Type             X           Y           Z
 ---------------------------------------------------------------------
      1         12           0       -7.111361    0.636670    0.042117
      2          6           0       -4.872132   -1.971562    0.376249
      3          6           0       -4.798105    2.793465    1.157100
      4          6           0       -9.404194    3.141655   -0.325892
      5          6           0       -9.599937   -1.888776   -0.784807
      6          7           0       -5.058824    0.442895    0.644089
      7          6           0       -4.365066   -0.758019    0.740337
      8          6           0       -2.878605   -0.440921    1.190118
      9          6           0       -2.986012    1.045003    1.669547
     10          6           0       -4.360878    1.493230    1.087759
     11          6           0       -3.028549    1.040272    3.189278
     12          6           0       -1.853931   -0.609977    0.063871
     13          6           0       -0.276675   -0.513359    0.525586
     14          6           0        0.616860   -0.636590   -0.672430
     15          8           0        0.231588   -1.048057   -1.755440
     16          8           0        1.800197   -0.335381   -0.274673
     17          7           0       -7.100666    2.673713    0.313219
     18          6           0       -5.956454    3.466869    0.797642
     19          6           0       -6.326241    4.798845    0.814023
     20          6           0       -7.696133    4.797141    0.404056
     21          6           0       -8.132438    3.459523    0.102359
     22          6           0       -5.471930    5.890883    1.203087
     23          6           0       -8.548526    6.009676    0.326909
     24          6           0       -8.350765    7.241129    0.796844
     25          7           0       -9.192040    0.662129   -0.592045
     26          6           0       -9.837914    1.768859   -0.635498
     27          6           0      -11.152903    1.441743   -1.238540
     28          6           0      -11.237609    0.117664   -1.249326
     29          6           0       -9.956093   -0.416802   -0.934639
     30          6           0      -12.153754    2.518452   -1.280735
     31          6           0      -12.408330   -0.653571   -1.795846
     32          6           0      -12.176434   -1.122328   -3.245396
     33          7           0       -7.261190   -1.315310   -0.177541
     34          6           0       -8.330828   -2.162457   -0.464690
     35          6           0       -7.786732   -3.655488   -0.435553
     36          6           0       -6.411420   -3.503999   -0.084333
     37          6           0       -6.211347   -2.184004    0.077583
     38          6           0       -8.680675   -4.751582   -0.723157
     39          6           0       -5.267656   -4.448255    0.173608
     40          8           0       -5.202457   -5.619977    0.141937
     41          6           0       -4.092608   -3.345091    0.411530
     42          6           0       -3.530263   -3.699304    1.755107
     43          8           0       -3.782954   -3.120114    2.852842
     44          8           0       -2.664231   -4.743914    1.628406
     45          6           0       -2.128550   -5.265204    2.852279
     46          6           0        2.823452   -0.545921   -1.365032
     47          6           0        4.077599   -0.378261   -0.571315
     48          6           0        5.079734    0.380042   -1.019818
     49          6           0        5.156435    1.326575   -2.298886
     50          6           0        6.407827    0.478476   -0.107563
     51          6           0        7.729262    0.020622   -0.896516
     52          6           0        8.938899   -0.095433   -0.003411
     53          6           0       10.171909   -0.577249   -0.797608
     54          6           0       10.014003   -2.074250   -1.141443
     55          6           0       11.286455   -0.188098    0.110701
     56          6           0       12.714593   -0.607761   -0.377590
     57          6           0       13.903264   -0.318510    0.366085
     58          6           0       15.251575   -0.346909   -0.276317
     59          6           0       15.690339   -1.811060   -0.634583
     60          6           0       16.298264    0.470900    0.487329
     61          6           0       17.703317    0.602291   -0.123462
     62          6           0       18.786514    1.322986    0.731699
     63          6           0       20.158362    1.338055   -0.063479
     64          6           0       20.055655    2.220480   -1.338931
     65          6           0       21.185584    1.956697    0.913103
     66          1           0       -4.013606    3.555950    1.503833
     67          1           0      -10.086935    3.977131   -0.320722
     68          1           0      -10.390305   -2.577897   -1.063535
     69          1           0       -2.763575   -1.190753    1.865716
     70          1           0       -2.185052    1.623836    1.328230
     71          1           0       -2.207673    0.624768    3.644601
     72          1           0       -3.213853    2.050259    3.754927
     73          1           0       -3.942536    0.413827    3.457394
     74          1           0       -2.050531   -1.521434   -0.539214
     75          1           0       -1.988502    0.049202   -0.858552
     76          1           0       -0.105200    0.560409    1.148592
     77          1           0        0.075941   -1.164207    1.224643
     78          1           0       -5.344331    6.750716    0.504848
     79          1           0       -5.687744    6.184130    2.271084
     80          1           0       -4.512350    5.363316    1.313686
     81          1           0       -9.486767    5.669415   -0.258747
     82          1           0       -8.957502    7.979038    0.446501
     83          1           0       -7.613785    7.603978    1.563519
     84          1           0      -11.965726    3.358353   -2.083773
     85          1           0      -13.094990    2.041498   -1.577185
     86          1           0      -12.239526    2.919894   -0.348363
     87          1           0      -12.613669   -1.695090   -1.207386
     88          1           0      -13.340519    0.001074   -1.631483
     89          1           0      -13.080602   -1.847336   -3.497069
     90          1           0      -12.311420   -0.031280   -3.644988
     91          1           0      -11.264998   -1.657343   -3.473985
     92          1           0       -9.284186   -4.760392   -1.812024
     93          1           0       -8.316138   -5.609948   -0.695694
     94          1           0       -9.482383   -4.803842    0.004201
     95          1           0       -3.334403   -3.731825   -0.380495
     96          1           0       -1.826506   -4.379562    3.476115
     97          1           0       -2.907035   -5.768704    3.496885
     98          1           0       -1.330509   -5.978432    2.639603
     99          1           0        2.646229   -1.637081   -1.588473
    100          1           0        2.463906    0.044150   -2.260676
    101          1           0        4.126975   -0.746037    0.407838
    102          1           0        4.261765    1.555352   -2.760716
    103          1           0        5.677838    2.282413   -1.962477
    104          1           0        5.819378    0.932080   -3.021035
    105          1           0        6.394720    1.375084    0.359710
    106          1           0        6.351107   -0.246948    0.676202
    107          1           0        7.387301   -0.992107   -1.362540
    108          1           0        8.119566    0.715618   -1.858823
    109          1           0        8.991162    0.875032    0.544661
    110          1           0        8.815177   -0.852011    0.790343
    111          1           0       10.405214   -0.039367   -1.663563
    112          1           0        9.320001   -2.396960   -1.890546
    113          1           0       10.944457   -2.244445   -1.820318
    114          1           0       10.132935   -2.857995   -0.453915
    115          1           0       11.236255    0.928362    0.302757
    116          1           0       11.117860   -0.918288    1.020105
    117          1           0       12.800873   -1.778181   -0.435169
    118          1           0       12.691405   -0.048439   -1.402729
    119          1           0       13.878997    0.655522    0.793330
    120          1           0       13.924008   -1.042806    1.346871
    121          1           0       15.095354    0.301298   -1.220589
    122          1           0       15.675173   -2.278365    0.381626
    123          1           0       15.124137   -2.422733   -1.037212
    124          1           0       16.722371   -1.683864   -1.182586
    125          1           0       15.799625    1.477588    0.658352
    126          1           0       16.435413    0.123876    1.624869
    127          1           0       18.162683   -0.349981   -0.263584
    128          1           0       17.758851    1.097386   -1.133478
    129          1           0       18.367745    2.279706    0.986951
    130          1           0       19.006485    0.901164    1.789716
    131          1           0       20.516324    0.275681   -0.271951
    132          1           0       19.621873    3.203674   -1.286956
    133          1           0       20.874477    2.411440   -1.946532
    134          1           0       19.446631    1.782455   -1.989992
    135          1           0       21.222727    1.367579    1.878443
    136          1           0       22.243712    1.866208    0.583373
    137          1           0       21.173138    3.105939    1.231569
 ---------------------------------------------------------------------

 SCF Done:  E(RCAM-B3LYP) =  -2933.50921795     A.U. after   16 cycles

 Excitation energies and oscillator strengths:

 Excited State   1:      Singlet-A      1.9688 eV  629.74 nm  f=0.2202  <S**2>=0.000
     240 -> 243       -0.25442
     241 -> 242        0.65241
 This state for optimization and/or second-order correction.
 Total Energy, E(TD-HF/TD-DFT) =  -2933.43686536
 Copying the excited state density for this state as the 1-particle RhoCI density.

 The electronic state is 1-A.
 Alpha  occ. eigenvalues --  -46.79785 -19.22774 -19.22455 -19.18610 -19.16657
 Alpha  occ. eigenvalues --  -19.15879 -14.37250 -14.36012 -14.34284 -14.33880
 Alpha  occ. eigenvalues --  -10.35173 -10.33471 -10.32211 -10.28557 -10.27323
 Alpha  occ. eigenvalues --  -10.26147 -10.25985 -10.25607 -10.25376 -10.25089
 Alpha  occ. eigenvalues --  -10.24837 -10.24719 -10.24365 -10.24003 -10.23663
 Alpha  occ. eigenvalues --  -10.23594 -10.23450 -10.23411 -10.23387 -10.23295
 Alpha  occ. eigenvalues --  -10.23070 -10.22879 -10.22763 -10.22740 -10.22542
 Alpha  occ. eigenvalues --  -10.22479 -10.22168 -10.22122 -10.22032 -10.21930
 Alpha  occ. eigenvalues --  -10.21907 -10.21832 -10.21800 -10.21759 -10.21739
 Alpha  occ. eigenvalues --  -10.21691 -10.21678 -10.21633 -10.21624 -10.21528
 Alpha  occ. eigenvalues --  -10.21489 -10.21461 -10.21191 -10.21087 -10.21023
 Alpha  occ. eigenvalues --  -10.20815 -10.20785 -10.20663 -10.20596 -10.20537
 Alpha  occ. eigenvalues --  -10.20425 -10.19905 -10.19767 -10.19474 -10.18418
 Alpha  occ. eigenvalues --   -3.08286  -1.83241  -1.82759  -1.82681  -1.14434
 Alpha  occ. eigenvalues --   -1.12338  -1.10223  -1.04035  -1.02406  -0.99401
 Alpha  occ. eigenvalues --   -0.98478  -0.97532  -0.96757  -0.87863  -0.86471
 Alpha  occ. eigenvalues --   -0.85150  -0.84609  -0.84207  -0.83410  -0.83128
 Alpha  occ. eigenvalues --   -0.83113  -0.82957  -0.82310  -0.81708  -0.80647
 Alpha  occ. eigenvalues --   -0.80041  -0.79131  -0.78934  -0.77760  -0.77309
 Alpha  occ. eigenvalues --   -0.76897  -0.76246  -0.75983  -0.75267  -0.73613
 Alpha  occ. eigenvalues --   -0.73003  -0.72330  -0.72287  -0.72168  -0.71956
 Alpha  occ. eigenvalues --   -0.71646  -0.70436  -0.70002  -0.68525  -0.67491
 Alpha  occ. eigenvalues --   -0.67107  -0.65550  -0.64951  -0.63912  -0.63551
 Alpha  occ. eigenvalues --   -0.62277  -0.61740  -0.61383  -0.60370  -0.60233
 Alpha  occ. eigenvalues --   -0.59892  -0.59523  -0.59407  -0.58345  -0.58262
 Alpha  occ. eigenvalues --   -0.57245  -0.56444  -0.55964  -0.55540  -0.54755
 Alpha  occ. eigenvalues --   -0.54489  -0.54363  -0.53374  -0.52944  -0.52849
 Alpha  occ. eigenvalues --   -0.52292  -0.52063  -0.51107  -0.51075  -0.50610
 Alpha  occ. eigenvalues --   -0.50414  -0.50253  -0.50114  -0.49250  -0.49046
 Alpha  occ. eigenvalues --   -0.48771  -0.48413  -0.48231  -0.48129  -0.47655
 Alpha  occ. eigenvalues --   -0.47469  -0.47306  -0.47176  -0.46979  -0.46804
 Alpha  occ. eigenvalues --   -0.46569  -0.46359  -0.46161  -0.46066  -0.46011
 Alpha  occ. eigenvalues --   -0.45896  -0.45594  -0.45362  -0.45175  -0.45078
 Alpha  occ. eigenvalues --   -0.44923  -0.44614  -0.44442  -0.43977  -0.43747
 Alpha  occ. eigenvalues --   -0.43489  -0.43375  -0.43205  -0.42956  -0.42668
 Alpha  occ. eigenvalues --   -0.42415  -0.42183  -0.41941  -0.41857  -0.41698
 Alpha  occ. eigenvalues --   -0.41662  -0.41581  -0.41266  -0.41004  -0.40773
 Alpha  occ. eigenvalues --   -0.40679  -0.40596  -0.40291  -0.40218  -0.40011
 Alpha  occ. eigenvalues --   -0.39766  -0.39687  -0.39540  -0.39433  -0.39243
 Alpha  occ. eigenvalues --   -0.38672  -0.38566  -0.38293  -0.38242  -0.37944
 Alpha  occ. eigenvalues --   -0.37782  -0.37589  -0.37359  -0.37062  -0.36640
 Alpha  occ. eigenvalues --   -0.36415  -0.36141  -0.36092  -0.35698  -0.35469
 Alpha  occ. eigenvalues --   -0.35213  -0.34800  -0.34635  -0.34569  -0.34445
 Alpha  occ. eigenvalues --   -0.34373  -0.33926  -0.33889  -0.33598  -0.33507
 Alpha  occ. eigenvalues --   -0.33078  -0.32956  -0.32507  -0.32444  -0.32153
 Alpha  occ. eigenvalues --   -0.32028  -0.31891  -0.31341  -0.30795  -0.30686
 Alpha  occ. eigenvalues --   -0.30157  -0.29955  -0.28659  -0.28263  -0.27672
 Alpha  occ. eigenvalues --   -0.27587  -0.27192  -0.25345  -0.23763  -0.21713
 Alpha  occ. eigenvalues --   -0.19304
 Alpha virt. eigenvalues --   -0.06609  -0.04761  -0.00558   0.02430   0.03517
 Alpha virt. eigenvalues --    0.04531   0.05003   0.05157   0.05750   0.06375
 Alpha virt. eigenvalues --    0.07260   0.08687   0.09649   0.09825   0.10422

 Mulliken charges:
               1
     1  Mg   0.803713
     2  C    0.033348
     3  C   -0.212265
     4  C   -0.150528
     5  C   -0.164555
     6  N   -0.638592
     7  C    0.254143
     8  C   -0.118238
     9  C   -0.132719
    10  C    0.355319
    11  C   -0.303772
    12  C   -0.187538
    13  C   -0.264981
    14  C    0.622063
    15  O   -0.500668
    16  O   -0.445965
    17  N   -0.766177
    18  C    0.291133
    19  C    0.071703
    20  C   -0.049956
    21  C    0.421156
    22  C   -0.387741
    23  C   -0.056667
    24  C   -0.263874
    25  N   -0.673193
    26  C    0.310183
    27  C    0.014829
    28  C    0.026114
    29  C    0.250861
    30  C   -0.375063
    31  C   -0.257204
    32  C   -0.277572
    33  N   -0.735783
    34  C    0.316264
    35  C    0.000952
    36  C    0.014154
    37  C    0.351554
    38  C   -0.376602
    39  C    0.387604
    40  O   -0.404158
    41  C   -0.338666
    42  C    0.640605
    43  O   -0.508107
    44  O   -0.442104
    45  C   -0.091481
    46  C   -0.016836
    47  C   -0.125340
    48  C    0.101083
    49  C   -0.362830
    50  C   -0.240149
    51  C   -0.163804
    52  C   -0.155156
    53  C   -0.044924
    54  C   -0.335905
    55  C   -0.162043
    56  C   -0.154467
    57  C   -0.153495
    58  C   -0.044603
    59  C   -0.291128
    60  C   -0.169037
    61  C   -0.182736
    62  C   -0.170357
    63  C   -0.048525
    64  C   -0.323696
    65  C   -0.310091
    66  H    0.067747
    67  H    0.088150
    68  H    0.102678
    69  H    0.120133
    70  H    0.101466
    71  H    0.119374
    72  H    0.086776
    73  H    0.117732
    74  H    0.114239
    75  H    0.108259
    76  H    0.092224
    77  H    0.141353
    78  H    0.131363
    79  H    0.123584
    80  H    0.103289
    81  H    0.069201
    82  H    0.101128
    83  H    0.103349
    84  H    0.099967
    85  H    0.094358
    86  H    0.137614
    87  H    0.063909
    88  H    0.096274
    89  H    0.085013
    90  H    0.103465
    91  H    0.120665
    92  H    0.097295
    93  H    0.138848
    94  H    0.135905
    95  H    0.169820
    96  H    0.130494
    97  H    0.127373
    98  H    0.127803
    99  H    0.134716
   100  H    0.143691
   101  H    0.104294
   102  H    0.117430
   103  H    0.111621
   104  H    0.134168
   105  H    0.114613
   106  H    0.100849
   107  H    0.089970
   108  H    0.058232
   109  H    0.087126
   110  H    0.092452
   111  H    0.089880
   112  H    0.116448
   113  H    0.089102
   114  H    0.116076
   115  H    0.091847
   116  H    0.070023
   117  H    0.079465
   118  H    0.062906
   119  H    0.078643
   120  H    0.051232
   121  H    0.068671
   122  H    0.087550
   123  H    0.110409
   124  H    0.090318
   125  H    0.084142
   126  H    0.068499
   127  H    0.103364
   128  H    0.090099
   129  H    0.098192
   130  H    0.075961
   131  H    0.091389
   132  H    0.105491
   133  H    0.103888
   134  H    0.109770
   135  H    0.088671
   136  H    0.092481
   137  H    0.087980
 Sum of Mulliken charges =  -0.00000

 Dipole moment (field-independent basis, Debye):
    X=              4.0613    Y=              1.6288    Z=              0.1228  Tot=              4.3775
 Quadrupole moment (field-independent basis, Debye-Ang):
   XX=           -368.8529   YY=           -384.9310   ZZ=           -399.6019
   XY=             -1.8806   XZ=             -2.5030   YZ=             -2.1269

 Normal termination of Gaussian 16 at Fri Sep 13 03:47:45 2019.
