 Gaussian 09, Revision D.01,
 Gaussian 09:  ES64L-G09RevD.01 24-Apr-2013

 -------------------------------------
 # td=(NStates=1) CAM-B3LYP/6-31G(d,p)
 -------------------------------------

 --
 TD
 --
 Symbolic Z-matrix:
 Charge =  0 Multiplicity = 1

                         Standard orientation:
 ---------------------------------------------------------------------
 Center     Atomic      Atomic             Coordinates (Angstroms)
 Number     Number       Type             X           Y           Z
 ---------------------------------------------------------------------
      1         12           0       -7.125290    0.636423    0.157548
      2          6           0       -4.916564   -1.992338    0.482435
      3          6           0       -4.787302    2.832703    1.119998
      4          6           0       -9.438610    3.071128   -0.297736
      5          6           0       -9.535063   -1.619398   -0.926174
      6          7           0       -5.140628    0.425554    0.704655
      7          6           0       -4.424378   -0.778273    0.827599
      8          6           0       -2.949716   -0.435154    1.096196
      9          6           0       -3.064703    1.065442    1.590367
     10          6           0       -4.308864    1.501793    1.121438
     11          6           0       -2.827221    1.260143    3.065237
     12          6           0       -1.890585   -0.687698    0.107099
     13          6           0       -0.460705   -0.480965    0.467299
     14          6           0        0.555601   -0.629244   -0.633807
     15          8           0        0.154363   -0.980661   -1.803489
     16          8           0        1.832770   -0.419583   -0.287154
     17          7           0       -7.010213    2.622697    0.274866
     18          6           0       -6.038155    3.414194    0.768274
     19          6           0       -6.329619    4.821035    0.823810
     20          6           0       -7.697894    4.869641    0.516050
     21          6           0       -8.149007    3.456219    0.165085
     22          6           0       -5.328231    5.796242    1.145646
     23          6           0       -8.570403    6.029793    0.255013
     24          6           0       -8.345290    7.200636    0.829084
     25          7           0       -9.151183    0.741084   -0.464693
     26          6           0       -9.880594    1.901338   -0.700549
     27          6           0      -11.233701    1.486435   -1.044353
     28          6           0      -11.232662    0.131242   -1.409838
     29          6           0       -9.839034   -0.270148   -0.975932
     30          6           0      -12.423874    2.480361   -1.289367
     31          6           0      -12.399620   -0.712870   -1.784907
     32          6           0      -12.126446   -1.218276   -3.160676
     33          7           0       -7.236701   -1.367990   -0.089075
     34          6           0       -8.275029   -2.171593   -0.614549
     35          6           0       -7.885184   -3.608185   -0.582734
     36          6           0       -6.521362   -3.561331   -0.098420
     37          6           0       -6.277405   -2.197227    0.248577
     38          6           0       -8.556920   -4.813505   -1.017812
     39          6           0       -5.419329   -4.343963    0.274396
     40          8           0       -5.196007   -5.560441    0.317724
     41          6           0       -4.198516   -3.402676    0.604584
     42          6           0       -3.559597   -3.714492    1.949412
     43          8           0       -3.916365   -3.227717    2.892111
     44          8           0       -2.785744   -4.840989    1.839404
     45          6           0       -2.339333   -5.310654    3.154093
     46          6           0        2.822471   -0.686237   -1.336564
     47          6           0        4.188513   -0.448342   -0.699305
     48          6           0        5.076759    0.397653   -0.983683
     49          6           0        5.136914    1.254679   -2.164555
     50          6           0        6.409517    0.369016   -0.164891
     51          6           0        7.659017    0.006450   -1.007385
     52          6           0        8.850213   -0.108437   -0.143588
     53          6           0       10.166089   -0.574722   -0.869994
     54          6           0       10.123478   -2.065668   -1.228815
     55          6           0       11.370863   -0.193207   -0.002819
     56          6           0       12.787422   -0.430445   -0.811987
     57          6           0       13.963897   -0.095257    0.149105
     58          6           0       15.294841   -0.211563   -0.519687
     59          6           0       15.651821   -1.697746   -0.914811
     60          6           0       16.375775    0.425529    0.437708
     61          6           0       17.768114    0.475804   -0.109767
     62          6           0       18.745910    1.264853    0.716499
     63          6           0       20.235918    1.279615    0.266366
     64          6           0       20.618304    2.251657   -0.909944
     65          6           0       21.141706    1.820719    1.341085
     66          1           0       -3.846025    3.485490    1.637789
     67          1           0      -10.061129    3.981249   -0.394179
     68          1           0      -10.227568   -2.311749   -1.274485
     69          1           0       -2.632229   -1.032638    2.102165
     70          1           0       -2.265307    1.663682    1.016429
     71          1           0       -2.020306    0.579604    3.490947
     72          1           0       -2.720534    2.394264    3.315637
     73          1           0       -3.662262    1.024649    3.813866
     74          1           0       -2.122487   -1.567135   -0.414167
     75          1           0       -2.233729    0.123383   -0.604268
     76          1           0       -0.263130    0.491449    0.952343
     77          1           0       -0.285462   -0.917434    1.307325
     78          1           0       -5.386681    6.692022    0.486949
     79          1           0       -5.281432    5.934527    2.191577
     80          1           0       -4.303055    5.499798    1.047854
     81          1           0       -9.249546    5.799119   -0.736314
     82          1           0       -8.850875    8.033472    0.367054
     83          1           0       -7.566235    7.337154    1.453321
     84          1           0      -12.038846    3.107609   -2.003294
     85          1           0      -13.361321    1.955912   -1.622514
     86          1           0      -12.629443    3.262331   -0.393441
     87          1           0      -12.560316   -1.678107   -1.260496
     88          1           0      -13.252890    0.199492   -1.739508
     89          1           0      -13.036671   -1.918286   -3.616105
     90          1           0      -12.227080   -0.345447   -3.819315
     91          1           0      -11.302693   -1.679950   -3.519486
     92          1           0       -9.182211   -4.535247   -2.073452
     93          1           0       -7.972396   -5.460690   -1.074465
     94          1           0       -9.426572   -4.821800   -0.258247
     95          1           0       -3.378775   -3.593890   -0.278665
     96          1           0       -1.866051   -4.564623    3.449979
     97          1           0       -3.004185   -5.630880    3.719733
     98          1           0       -1.741541   -6.148143    2.867501
     99          1           0        2.716285   -1.707282   -1.700350
    100          1           0        2.513034   -0.065137   -2.267026
    101          1           0        4.104365   -1.159300    0.150960
    102          1           0        4.310295    1.488606   -2.656927
    103          1           0        5.715301    2.266384   -2.147628
    104          1           0        5.705642    0.888380   -2.939329
    105          1           0        6.550811    1.264464    0.287546
    106          1           0        6.345335   -0.418464    0.681539
    107          1           0        7.621403   -0.966783   -1.724114
    108          1           0        7.751496    0.824853   -1.917145
    109          1           0        9.078760    0.870151    0.208004
    110          1           0        8.704655   -0.617811    0.645163
    111          1           0       10.181564   -0.052207   -1.728947
    112          1           0        9.088825   -2.151657   -1.876751
    113          1           0       11.062114   -2.295921   -1.777203
    114          1           0        9.892149   -2.873570   -0.392761
    115          1           0       11.286635    0.864845    0.129102
    116          1           0       11.470019   -0.770269    0.797937
    117          1           0       12.672643   -1.594149   -1.313448
    118          1           0       12.712536    0.167049   -1.837902
    119          1           0       13.809865    0.884259    0.575712
    120          1           0       13.890454   -0.844496    0.985615
    121          1           0       15.423349    0.319143   -1.364153
    122          1           0       15.809991   -2.309182   -0.013192
    123          1           0       14.870669   -2.261304   -1.580535
    124          1           0       16.557176   -1.740696   -1.294182
    125          1           0       16.037544    1.433654    0.654666
    126          1           0       16.320329   -0.127615    1.635164
    127          1           0       18.152970   -0.613139   -0.357551
    128          1           0       17.581233    0.921375   -1.121819
    129          1           0       18.426259    2.351162    0.845155
    130          1           0       18.883853    0.789029    1.707371
    131          1           0       20.664373    0.188272   -0.107112
    132          1           0       20.351721    3.253809   -0.565611
    133          1           0       21.775367    2.155652   -1.194008
    134          1           0       19.998888    1.888810   -1.930290
    135          1           0       21.295452    0.978006    2.163201
    136          1           0       22.193608    1.842216    1.171911
    137          1           0       20.721080    2.790077    1.784414
 ---------------------------------------------------------------------

 SCF Done:  E(RCAM-B3LYP) =  -2932.49789653     A.U. after   16 cycles

 Excitation energies and oscillator strengths:

 Excited State   1:      Singlet-A      1.9035 eV  651.34 nm  f=0.2823  <S**2>=0.000
     240 -> 243       -0.21783
     241 -> 242        0.66702
 This state for optimization and/or second-order correction.
 Total Energy, E(TD-HF/TD-KS) =  -2932.42794358
 Copying the excited state density for this state as the 1-particle RhoCI density.

 The electronic state is 1-A.
 Alpha  occ. eigenvalues --  -46.83839 -19.27544 -19.24262 -19.21016 -19.20080
 Alpha  occ. eigenvalues --  -19.18752 -14.41326 -14.39642 -14.39609 -14.39548
 Alpha  occ. eigenvalues --  -10.39971 -10.37646 -10.33892 -10.32517 -10.30547
 Alpha  occ. eigenvalues --  -10.30276 -10.29930 -10.29890 -10.29864 -10.29536
 Alpha  occ. eigenvalues --  -10.29019 -10.28528 -10.28467 -10.28349 -10.28332
 Alpha  occ. eigenvalues --  -10.28183 -10.28107 -10.27766 -10.27677 -10.27563
 Alpha  occ. eigenvalues --  -10.27527 -10.27400 -10.27390 -10.27296 -10.27287
 Alpha  occ. eigenvalues --  -10.27255 -10.27167 -10.27159 -10.26938 -10.26861
 Alpha  occ. eigenvalues --  -10.26850 -10.26750 -10.26721 -10.26629 -10.26607
 Alpha  occ. eigenvalues --  -10.26511 -10.26403 -10.26306 -10.26249 -10.26215
 Alpha  occ. eigenvalues --  -10.26131 -10.25771 -10.25729 -10.25582 -10.25485
 Alpha  occ. eigenvalues --  -10.25330 -10.25303 -10.25247 -10.25204 -10.25077
 Alpha  occ. eigenvalues --  -10.24870 -10.24786 -10.24039 -10.23903 -10.23050
 Alpha  occ. eigenvalues --   -3.12983  -1.87685  -1.87219  -1.87175  -1.20030
 Alpha  occ. eigenvalues --   -1.17591  -1.10564  -1.08695  -1.06014  -1.04274
 Alpha  occ. eigenvalues --   -1.03359  -1.02733  -1.01602  -0.92152  -0.91766
 Alpha  occ. eigenvalues --   -0.90861  -0.90605  -0.89924  -0.89562  -0.89285
 Alpha  occ. eigenvalues --   -0.88866  -0.88405  -0.88353  -0.87670  -0.86243
 Alpha  occ. eigenvalues --   -0.85356  -0.84567  -0.83761  -0.83381  -0.83199
 Alpha  occ. eigenvalues --   -0.82367  -0.82009  -0.80510  -0.79755  -0.79504
 Alpha  occ. eigenvalues --   -0.78112  -0.77293  -0.76970  -0.76430  -0.75674
 Alpha  occ. eigenvalues --   -0.75554  -0.74631  -0.74223  -0.73509  -0.73073
 Alpha  occ. eigenvalues --   -0.72160  -0.70717  -0.69635  -0.69241  -0.68372
 Alpha  occ. eigenvalues --   -0.67048  -0.66309  -0.65056  -0.64647  -0.64485
 Alpha  occ. eigenvalues --   -0.64131  -0.63841  -0.63336  -0.62977  -0.62039
 Alpha  occ. eigenvalues --   -0.61741  -0.61087  -0.60347  -0.59856  -0.59130
 Alpha  occ. eigenvalues --   -0.58506  -0.58190  -0.58063  -0.57529  -0.56899
 Alpha  occ. eigenvalues --   -0.56335  -0.56259  -0.56063  -0.55163  -0.54763
 Alpha  occ. eigenvalues --   -0.54580  -0.54390  -0.53710  -0.53559  -0.53409
 Alpha  occ. eigenvalues --   -0.53045  -0.52605  -0.52439  -0.52242  -0.51974
 Alpha  occ. eigenvalues --   -0.51736  -0.51663  -0.51488  -0.51139  -0.51011
 Alpha  occ. eigenvalues --   -0.50823  -0.50511  -0.50171  -0.49952  -0.49545
 Alpha  occ. eigenvalues --   -0.49415  -0.49341  -0.48991  -0.48830  -0.48523
 Alpha  occ. eigenvalues --   -0.48230  -0.47648  -0.47601  -0.47421  -0.47255
 Alpha  occ. eigenvalues --   -0.47103  -0.46951  -0.46829  -0.46642  -0.46157
 Alpha  occ. eigenvalues --   -0.45994  -0.45693  -0.45550  -0.45449  -0.45288
 Alpha  occ. eigenvalues --   -0.44997  -0.44735  -0.44486  -0.44422  -0.44223
 Alpha  occ. eigenvalues --   -0.44174  -0.43913  -0.43784  -0.43654  -0.43425
 Alpha  occ. eigenvalues --   -0.43317  -0.43011  -0.42677  -0.42509  -0.42198
 Alpha  occ. eigenvalues --   -0.42000  -0.41901  -0.41559  -0.41510  -0.40996
 Alpha  occ. eigenvalues --   -0.40716  -0.40597  -0.40468  -0.40240  -0.40104
 Alpha  occ. eigenvalues --   -0.39712  -0.39600  -0.39225  -0.39160  -0.39070
 Alpha  occ. eigenvalues --   -0.38357  -0.38233  -0.38100  -0.37964  -0.37816
 Alpha  occ. eigenvalues --   -0.37441  -0.37419  -0.37141  -0.36994  -0.36492
 Alpha  occ. eigenvalues --   -0.36036  -0.35960  -0.35660  -0.35392  -0.35377
 Alpha  occ. eigenvalues --   -0.35252  -0.34583  -0.34355  -0.33597  -0.33446
 Alpha  occ. eigenvalues --   -0.33431  -0.32905  -0.31820  -0.31417  -0.30764
 Alpha  occ. eigenvalues --   -0.29068  -0.28861  -0.28201  -0.27661  -0.23125
 Alpha  occ. eigenvalues --   -0.20813
 Alpha virt. eigenvalues --   -0.06984  -0.02590   0.01694   0.04078   0.05370
 Alpha virt. eigenvalues --    0.06076   0.06285   0.07087   0.07414   0.07742
 Alpha virt. eigenvalues --    0.08349   0.10104   0.10338   0.10867   0.10939

 Mulliken charges:
               1
     1  Mg   0.817382
     2  C    0.017894
     3  C   -0.221749
     4  C   -0.197324
     5  C   -0.152851
     6  N   -0.648929
     7  C    0.298593
     8  C   -0.177307
     9  C   -0.165871
    10  C    0.375271
    11  C   -0.308451
    12  C   -0.138105
    13  C   -0.265511
    14  C    0.626481
    15  O   -0.512040
    16  O   -0.472688
    17  N   -0.695118
    18  C    0.311336
    19  C    0.094279
    20  C   -0.047111
    21  C    0.270718
    22  C   -0.397708
    23  C   -0.072748
    24  C   -0.240948
    25  N   -0.653168
    26  C    0.306202
    27  C   -0.001564
    28  C    0.023442
    29  C    0.321097
    30  C   -0.369251
    31  C   -0.224542
    32  C   -0.311795
    33  N   -0.682946
    34  C    0.243132
    35  C    0.012357
    36  C    0.005984
    37  C    0.300346
    38  C   -0.298055
    39  C    0.349482
    40  O   -0.491176
    41  C   -0.281240
    42  C    0.605093
    43  O   -0.401323
    44  O   -0.489321
    45  C   -0.056558
    46  C   -0.005590
    47  C   -0.142527
    48  C    0.161646
    49  C   -0.386523
    50  C   -0.225303
    51  C   -0.172125
    52  C   -0.156028
    53  C   -0.067185
    54  C   -0.295362
    55  C   -0.166927
    56  C   -0.191811
    57  C   -0.158231
    58  C   -0.052860
    59  C   -0.316078
    60  C   -0.159041
    61  C   -0.172104
    62  C   -0.155709
    63  C   -0.057948
    64  C   -0.275770
    65  C   -0.300084
    66  H    0.055736
    67  H    0.082476
    68  H    0.078489
    69  H    0.082075
    70  H    0.110372
    71  H    0.106118
    72  H    0.097433
    73  H    0.121485
    74  H    0.130493
    75  H    0.103933
    76  H    0.127388
    77  H    0.137868
    78  H    0.123848
    79  H    0.134103
    80  H    0.124440
    81  H    0.096366
    82  H    0.100896
    83  H    0.109519
    84  H    0.142688
    85  H    0.111199
    86  H    0.102540
    87  H    0.120313
    88  H    0.087434
    89  H    0.062087
    90  H    0.109160
    91  H    0.133034
    92  H    0.095843
    93  H    0.127357
    94  H    0.133695
    95  H    0.137642
    96  H    0.121154
    97  H    0.134316
    98  H    0.121892
    99  H    0.136329
   100  H    0.120005
   101  H    0.101454
   102  H    0.121118
   103  H    0.098621
   104  H    0.140082
   105  H    0.117650
   106  H    0.090198
   107  H    0.076671
   108  H    0.062982
   109  H    0.087673
   110  H    0.101472
   111  H    0.095499
   112  H    0.071042
   113  H    0.103953
   114  H    0.089420
   115  H    0.094093
   116  H    0.104088
   117  H    0.057632
   118  H    0.072593
   119  H    0.097927
   120  H    0.098381
   121  H    0.097755
   122  H    0.096321
   123  H    0.093666
   124  H    0.110633
   125  H    0.093666
   126  H    0.029998
   127  H    0.085542
   128  H    0.091585
   129  H    0.084934
   130  H    0.105433
   131  H    0.063108
   132  H    0.101425
   133  H    0.090770
   134  H    0.063052
   135  H    0.069591
   136  H    0.113683
   137  H    0.098433
 Sum of Mulliken charges =   0.00000

 Dipole moment (field-independent basis, Debye):
    X=              2.6854    Y=              4.9631    Z=              0.9281  Tot=              5.7188
 Quadrupole moment (field-independent basis, Debye-Ang):
   XX=           -344.7409   YY=           -395.2744   ZZ=           -394.9641
   XY=            -12.9893   XZ=             15.2703   YZ=             -4.2188

 Normal termination of Gaussian 09 at Wed Jul  3 06:16:50 2019.
