 Gaussian 09, Revision D.01,
 Gaussian 09:  ES64L-G09RevD.01 24-Apr-2013

 -------------------------------------
 # td=(NStates=1) CAM-B3LYP/6-31G(d,p)
 -------------------------------------

 --
 TD
 --
 Symbolic Z-matrix:
 Charge =  0 Multiplicity = 1

                         Standard orientation:
 ---------------------------------------------------------------------
 Center     Atomic      Atomic             Coordinates (Angstroms)
 Number     Number       Type             X           Y           Z
 ---------------------------------------------------------------------
      1         12           0       -7.172612    0.577736    0.108173
      2          6           0       -4.813950   -1.870924    0.611422
      3          6           0       -4.844268    2.830240    1.047732
      4          6           0       -9.409723    3.050867   -0.281880
      5          6           0       -9.518106   -1.785619   -0.829488
      6          7           0       -5.123460    0.449740    0.732258
      7          6           0       -4.305612   -0.719352    0.790757
      8          6           0       -2.925230   -0.362418    1.229083
      9          6           0       -2.988384    1.190869    1.758186
     10          6           0       -4.324198    1.529725    1.102066
     11          6           0       -2.974127    1.196465    3.134476
     12          6           0       -1.936202   -0.499068    0.031618
     13          6           0       -0.398087   -0.223442    0.400273
     14          6           0        0.576884   -0.667230   -0.647327
     15          8           0        0.175870   -1.037851   -1.750407
     16          8           0        1.796959   -0.328950   -0.288336
     17          7           0       -7.057982    2.659860    0.294681
     18          6           0       -6.110819    3.442035    0.714661
     19          6           0       -6.451720    4.785121    0.696612
     20          6           0       -7.808835    4.927627    0.198453
     21          6           0       -8.167055    3.475908    0.094211
     22          6           0       -5.541208    5.850393    1.004340
     23          6           0       -8.752061    6.047674    0.181322
     24          6           0       -8.493528    7.246547    0.773510
     25          7           0       -9.132786    0.575074   -0.367388
     26          6           0       -9.899922    1.739399   -0.574490
     27          6           0      -11.178731    1.420299   -1.037611
     28          6           0      -11.191247   -0.036727   -1.198577
     29          6           0       -9.912291   -0.503299   -0.774383
     30          6           0      -12.404773    2.444165   -1.263330
     31          6           0      -12.354882   -0.892922   -1.820570
     32          6           0      -12.230520   -1.024503   -3.310821
     33          7           0       -7.225529   -1.376913   -0.131572
     34          6           0       -8.286440   -2.220035   -0.520594
     35          6           0       -7.828791   -3.538196   -0.493440
     36          6           0       -6.515499   -3.665654   -0.079704
     37          6           0       -6.188949   -2.209083    0.172631
     38          6           0       -8.627847   -4.779445   -0.875438
     39          6           0       -5.232454   -4.315857    0.110984
     40          8           0       -5.099246   -5.566885    0.203124
     41          6           0       -4.096025   -3.307261    0.568234
     42          6           0       -3.492464   -3.722237    1.914248
     43          8           0       -3.670649   -3.211215    3.007023
     44          8           0       -2.639246   -4.708904    1.744647
     45          6           0       -2.178812   -5.399359    2.889895
     46          6           0        2.874849   -0.856648   -1.192677
     47          6           0        4.160386   -0.433329   -0.513210
     48          6           0        5.174382    0.345830   -1.004549
     49          6           0        5.027909    1.231453   -2.146454
     50          6           0        6.416224    0.467958   -0.209032
     51          6           0        7.664572   -0.179160   -1.011158
     52          6           0        8.874535    0.014471   -0.094073
     53          6           0       10.198512   -0.476114   -0.828224
     54          6           0       10.100730   -2.012761   -1.240032
     55          6           0       11.443786   -0.257682   -0.043156
     56          6           0       12.803196   -0.510471   -0.826832
     57          6           0       14.033771   -0.159290    0.070032
     58          6           0       15.371145   -0.248550   -0.514405
     59          6           0       15.679939   -1.705340   -0.964432
     60          6           0       16.393618    0.285928    0.477125
     61          6           0       17.788524    0.520343   -0.184784
     62          6           0       18.705472    1.275121    0.783726
     63          6           0       20.171589    1.378169    0.342223
     64          6           0       20.237151    2.318019   -0.978087
     65          6           0       21.093355    1.937116    1.328280
     66          1           0       -4.095294    3.488066    1.469635
     67          1           0      -10.203505    3.850563   -0.523066
     68          1           0      -10.362650   -2.520829   -1.050545
     69          1           0       -2.599420   -1.093131    1.902072
     70          1           0       -2.063196    1.731548    1.439029
     71          1           0       -2.077379    0.939930    3.482799
     72          1           0       -3.208013    2.405271    3.524707
     73          1           0       -3.785168    0.342154    3.551009
     74          1           0       -1.861835   -1.387492   -0.646807
     75          1           0       -2.228950    0.388502   -0.563852
     76          1           0       -0.161979    0.822803    0.632277
     77          1           0       -0.062430   -0.764917    1.323865
     78          1           0       -5.731331    6.914161    0.569795
     79          1           0       -5.724026    5.903600    2.100926
     80          1           0       -4.520760    5.474794    0.931863
     81          1           0       -9.541191    6.081271   -0.666505
     82          1           0       -9.024292    8.139228    0.562168
     83          1           0       -7.772254    7.420003    1.541027
     84          1           0      -12.122729    3.208903   -1.995606
     85          1           0      -13.300214    1.823895   -1.322214
     86          1           0      -12.461640    2.809375   -0.231561
     87          1           0      -12.335238   -1.849722   -1.294617
     88          1           0      -13.259248   -0.493219   -1.749192
     89          1           0      -13.160182   -1.870894   -3.632579
     90          1           0      -12.098514   -0.231581   -4.084786
     91          1           0      -11.280601   -1.402610   -3.618492
     92          1           0       -8.902623   -4.637903   -1.965443
     93          1           0       -8.028388   -5.637571   -0.707593
     94          1           0       -9.579372   -4.929880   -0.391600
     95          1           0       -3.341898   -3.291179   -0.321926
     96          1           0       -1.418881   -4.724011    3.455185
     97          1           0       -2.901881   -5.803805    3.838323
     98          1           0       -1.727304   -6.402925    2.510200
     99          1           0        2.669041   -1.850992   -1.346315
    100          1           0        2.722810   -0.472998   -2.132952
    101          1           0        4.443511   -0.823068    0.558052
    102          1           0        4.061092    1.184577   -2.603257
    103          1           0        5.268459    2.406414   -2.063852
    104          1           0        5.819854    1.023388   -2.938244
    105          1           0        6.715213    1.614169   -0.023084
    106          1           0        6.373378   -0.008364    0.870978
    107          1           0        7.317877   -1.067331   -1.258642
    108          1           0        7.773225    0.377319   -1.835516
    109          1           0        9.142670    1.042054    0.192188
    110          1           0        8.812735   -0.761341    0.873965
    111          1           0       10.273027   -0.026822   -1.797797
    112          1           0        9.320452   -2.110444   -1.846632
    113          1           0       10.987530   -2.294647   -1.831127
    114          1           0       10.247814   -2.670021   -0.445606
    115          1           0       11.522956    0.842545    0.151527
    116          1           0       11.627639   -0.733173    0.944207
    117          1           0       12.999613   -1.654947   -1.065752
    118          1           0       12.775629   -0.187081   -1.856080
    119          1           0       13.802606    0.856047    0.344058
    120          1           0       14.139000   -0.832771    0.973471
    121          1           0       15.321227    0.192327   -1.377386
    122          1           0       15.605075   -2.471214   -0.042517
    123          1           0       14.956189   -1.900742   -1.638461
    124          1           0       16.727757   -1.936431   -1.401550
    125          1           0       15.928754    1.294759    0.785591
    126          1           0       16.210102   -0.290772    1.411525
    127          1           0       18.374411   -0.428501   -0.417672
    128          1           0       17.690997    1.132835   -1.192430
    129          1           0       18.434578    2.289927    0.880716
    130          1           0       18.723579    0.816271    1.773874
    131          1           0       20.536376    0.383561    0.097536
    132          1           0       20.085422    3.379035   -0.623117
    133          1           0       21.253016    2.137235   -1.365121
    134          1           0       19.409343    2.287745   -1.786889
    135          1           0       21.112132    1.427378    2.244369
    136          1           0       21.947647    1.757885    0.929444
    137          1           0       20.703167    2.898495    1.663586
 ---------------------------------------------------------------------

 SCF Done:  E(RCAM-B3LYP) =  -2932.65419304     A.U. after   15 cycles

 Excitation energies and oscillator strengths:

 Excited State   1:      Singlet-A      2.1695 eV  571.49 nm  f=0.1838  <S**2>=0.000
     240 -> 243       -0.24821
     241 -> 242        0.64420
 This state for optimization and/or second-order correction.
 Total Energy, E(TD-HF/TD-KS) =  -2932.57446510
 Copying the excited state density for this state as the 1-particle RhoCI density.

 The electronic state is 1-A.
 Alpha  occ. eigenvalues --  -46.83502 -19.26860 -19.26720 -19.20518 -19.20266
 Alpha  occ. eigenvalues --  -19.19601 -14.40365 -14.39627 -14.39273 -14.38633
 Alpha  occ. eigenvalues --  -10.39396 -10.38614 -10.35657 -10.33527 -10.31949
 Alpha  occ. eigenvalues --  -10.30892 -10.30275 -10.30009 -10.29683 -10.29357
 Alpha  occ. eigenvalues --  -10.28939 -10.28938 -10.28721 -10.28511 -10.28194
 Alpha  occ. eigenvalues --  -10.28172 -10.28132 -10.27946 -10.27908 -10.27781
 Alpha  occ. eigenvalues --  -10.27768 -10.27763 -10.27585 -10.27385 -10.27226
 Alpha  occ. eigenvalues --  -10.27185 -10.27026 -10.26867 -10.26828 -10.26774
 Alpha  occ. eigenvalues --  -10.26677 -10.26624 -10.26605 -10.26579 -10.26543
 Alpha  occ. eigenvalues --  -10.26526 -10.26303 -10.26209 -10.26121 -10.25964
 Alpha  occ. eigenvalues --  -10.25908 -10.25881 -10.25589 -10.25510 -10.25387
 Alpha  occ. eigenvalues --  -10.25353 -10.25191 -10.24793 -10.24746 -10.24614
 Alpha  occ. eigenvalues --  -10.24551 -10.23644 -10.23410 -10.22661 -10.22064
 Alpha  occ. eigenvalues --   -3.12616  -1.87317  -1.86869  -1.86791  -1.19540
 Alpha  occ. eigenvalues --   -1.18165  -1.08781  -1.08421  -1.08183  -1.04913
 Alpha  occ. eigenvalues --   -1.03272  -1.01423  -1.00834  -0.91823  -0.91531
 Alpha  occ. eigenvalues --   -0.91174  -0.89738  -0.89605  -0.89276  -0.89013
 Alpha  occ. eigenvalues --   -0.88869  -0.87839  -0.87412  -0.87150  -0.86505
 Alpha  occ. eigenvalues --   -0.85343  -0.84340  -0.83723  -0.83109  -0.82731
 Alpha  occ. eigenvalues --   -0.82136  -0.81082  -0.80297  -0.79962  -0.78296
 Alpha  occ. eigenvalues --   -0.77734  -0.76773  -0.76340  -0.75933  -0.75622
 Alpha  occ. eigenvalues --   -0.75335  -0.75169  -0.74579  -0.73128  -0.72787
 Alpha  occ. eigenvalues --   -0.71042  -0.70213  -0.69807  -0.69288  -0.68772
 Alpha  occ. eigenvalues --   -0.67532  -0.67460  -0.65198  -0.65006  -0.64933
 Alpha  occ. eigenvalues --   -0.63973  -0.63643  -0.63181  -0.63058  -0.62621
 Alpha  occ. eigenvalues --   -0.61713  -0.60757  -0.60574  -0.59687  -0.58895
 Alpha  occ. eigenvalues --   -0.58200  -0.57440  -0.57143  -0.57047  -0.56734
 Alpha  occ. eigenvalues --   -0.55641  -0.55223  -0.55165  -0.55025  -0.54841
 Alpha  occ. eigenvalues --   -0.54562  -0.54143  -0.54062  -0.53722  -0.53399
 Alpha  occ. eigenvalues --   -0.52889  -0.52530  -0.52400  -0.52077  -0.51926
 Alpha  occ. eigenvalues --   -0.51745  -0.51265  -0.51099  -0.50773  -0.50607
 Alpha  occ. eigenvalues --   -0.50518  -0.50371  -0.50129  -0.50032  -0.49850
 Alpha  occ. eigenvalues --   -0.49821  -0.49229  -0.49152  -0.48403  -0.48277
 Alpha  occ. eigenvalues --   -0.47709  -0.47590  -0.47309  -0.47224  -0.47062
 Alpha  occ. eigenvalues --   -0.46935  -0.46832  -0.46623  -0.46453  -0.46203
 Alpha  occ. eigenvalues --   -0.45901  -0.45711  -0.45593  -0.45471  -0.45433
 Alpha  occ. eigenvalues --   -0.45218  -0.44591  -0.44132  -0.43801  -0.43538
 Alpha  occ. eigenvalues --   -0.43304  -0.43209  -0.43103  -0.42955  -0.42868
 Alpha  occ. eigenvalues --   -0.42488  -0.42331  -0.42235  -0.41983  -0.41779
 Alpha  occ. eigenvalues --   -0.41605  -0.41270  -0.41236  -0.41015  -0.40890
 Alpha  occ. eigenvalues --   -0.40877  -0.40801  -0.40564  -0.40356  -0.40235
 Alpha  occ. eigenvalues --   -0.40189  -0.39787  -0.39631  -0.39233  -0.39171
 Alpha  occ. eigenvalues --   -0.39140  -0.38672  -0.38513  -0.37835  -0.37514
 Alpha  occ. eigenvalues --   -0.37394  -0.37336  -0.37205  -0.37167  -0.36675
 Alpha  occ. eigenvalues --   -0.36591  -0.36218  -0.35847  -0.35672  -0.35391
 Alpha  occ. eigenvalues --   -0.35335  -0.35255  -0.34541  -0.33613  -0.33499
 Alpha  occ. eigenvalues --   -0.33315  -0.32989  -0.31804  -0.31393  -0.30070
 Alpha  occ. eigenvalues --   -0.29446  -0.29358  -0.27326  -0.26811  -0.22875
 Alpha  occ. eigenvalues --   -0.22084
 Alpha virt. eigenvalues --   -0.06608  -0.03226   0.01445   0.03358   0.03922
 Alpha virt. eigenvalues --    0.05810   0.06452   0.06821   0.06914   0.07550
 Alpha virt. eigenvalues --    0.08494   0.10941   0.11598   0.12028   0.12208

 Mulliken charges:
               1
     1  Mg   0.816057
     2  C    0.038014
     3  C   -0.246716
     4  C   -0.192181
     5  C   -0.160909
     6  N   -0.647527
     7  C    0.338687
     8  C   -0.189329
     9  C   -0.118906
    10  C    0.344229
    11  C   -0.255195
    12  C   -0.180796
    13  C   -0.280350
    14  C    0.606352
    15  O   -0.495064
    16  O   -0.466152
    17  N   -0.683990
    18  C    0.410500
    19  C   -0.016670
    20  C    0.031851
    21  C    0.284842
    22  C   -0.387988
    23  C   -0.083937
    24  C   -0.243480
    25  N   -0.726588
    26  C    0.307646
    27  C   -0.038158
    28  C   -0.039679
    29  C    0.318377
    30  C   -0.357319
    31  C   -0.200816
    32  C   -0.296818
    33  N   -0.734452
    34  C    0.342912
    35  C   -0.053211
    36  C    0.094854
    37  C    0.227949
    38  C   -0.369503
    39  C    0.333278
    40  O   -0.476825
    41  C   -0.312926
    42  C    0.634561
    43  O   -0.477293
    44  O   -0.406296
    45  C   -0.079362
    46  C    0.002743
    47  C   -0.150406
    48  C    0.164401
    49  C   -0.372711
    50  C   -0.245189
    51  C   -0.168068
    52  C   -0.161654
    53  C   -0.078457
    54  C   -0.318926
    55  C   -0.167002
    56  C   -0.203895
    57  C   -0.170317
    58  C   -0.053757
    59  C   -0.304562
    60  C   -0.162554
    61  C   -0.169081
    62  C   -0.158991
    63  C   -0.086287
    64  C   -0.314817
    65  C   -0.282855
    66  H    0.049780
    67  H    0.085479
    68  H    0.109824
    69  H    0.118449
    70  H    0.107139
    71  H    0.125567
    72  H    0.062491
    73  H    0.106225
    74  H    0.134045
    75  H    0.111047
    76  H    0.133717
    77  H    0.117050
    78  H    0.122586
    79  H    0.128452
    80  H    0.121833
    81  H    0.099132
    82  H    0.108699
    83  H    0.110882
    84  H    0.130303
    85  H    0.122410
    86  H    0.132514
    87  H    0.107057
    88  H    0.118661
    89  H    0.057887
    90  H    0.115518
    91  H    0.109173
    92  H    0.115730
    93  H    0.148543
    94  H    0.122963
    95  H    0.164131
    96  H    0.115944
    97  H    0.110600
    98  H    0.123718
    99  H    0.142350
   100  H    0.139005
   101  H    0.087413
   102  H    0.122694
   103  H    0.110614
   104  H    0.108658
   105  H    0.081841
   106  H    0.092468
   107  H    0.120653
   108  H    0.109703
   109  H    0.100806
   110  H    0.071105
   111  H    0.086955
   112  H    0.103868
   113  H    0.093742
   114  H    0.107684
   115  H    0.078825
   116  H    0.098530
   117  H    0.073433
   118  H    0.094640
   119  H    0.090369
   120  H    0.081520
   121  H    0.090121
   122  H    0.067179
   123  H    0.111058
   124  H    0.091804
   125  H    0.076594
   126  H    0.090291
   127  H    0.091461
   128  H    0.084828
   129  H    0.088629
   130  H    0.084137
   131  H    0.077969
   132  H    0.094320
   133  H    0.101093
   134  H    0.091956
   135  H    0.098235
   136  H    0.108436
   137  H    0.098175
 Sum of Mulliken charges =   0.00000

 Dipole moment (field-independent basis, Debye):
    X=              2.5883    Y=              5.0397    Z=             -0.5953  Tot=              5.6967
 Quadrupole moment (field-independent basis, Debye-Ang):
   XX=           -336.8908   YY=           -389.4006   ZZ=           -398.2738
   XY=            -24.9236   XZ=             11.2604   YZ=             -1.7263

 Normal termination of Gaussian 09 at Sat Jul  6 10:26:31 2019.
