 Gaussian 09, Revision D.01,
 Gaussian 09:  ES64L-G09RevD.01 24-Apr-2013

 -------------------------------------
 # td=(NStates=1) CAM-B3LYP/6-31G(d,p)
 -------------------------------------

 --
 TD
 --
 Symbolic Z-matrix:
 Charge =  0 Multiplicity = 1

                         Standard orientation:
 ---------------------------------------------------------------------
 Center     Atomic      Atomic             Coordinates (Angstroms)
 Number     Number       Type             X           Y           Z
 ---------------------------------------------------------------------
      1         12           0       -7.133521    0.579801    0.085828
      2          6           0       -4.838965   -1.906135    0.520128
      3          6           0       -4.796083    2.798837    1.111240
      4          6           0       -9.371931    3.150442   -0.344449
      5          6           0       -9.407266   -1.623861   -0.918743
      6          7           0       -5.097120    0.457656    0.712453
      7          6           0       -4.267069   -0.658227    0.830178
      8          6           0       -2.940628   -0.408399    1.338964
      9          6           0       -2.999622    1.073009    1.766447
     10          6           0       -4.344865    1.553358    1.218636
     11          6           0       -3.046593    1.145045    3.207636
     12          6           0       -1.915008   -0.764530    0.266021
     13          6           0       -0.477316   -0.640169    0.635146
     14          6           0        0.462293   -0.674540   -0.564703
     15          8           0        0.238998   -1.018219   -1.633774
     16          8           0        1.786100   -0.357634   -0.169779
     17          7           0       -7.064927    2.619080    0.274742
     18          6           0       -6.084779    3.420563    0.785559
     19          6           0       -6.432453    4.757157    0.807004
     20          6           0       -7.666040    4.889083    0.302888
     21          6           0       -8.059418    3.473388    0.052196
     22          6           0       -5.529789    5.954723    1.176270
     23          6           0       -8.558172    6.044459    0.137638
     24          6           0       -8.419088    7.185282    0.878293
     25          7           0       -9.149353    0.728813   -0.517355
     26          6           0       -9.916484    1.810161   -0.628041
     27          6           0      -11.167526    1.468816   -1.197750
     28          6           0      -11.194619    0.121997   -1.459025
     29          6           0       -9.921720   -0.361969   -0.982593
     30          6           0      -12.233854    2.447201   -1.482721
     31          6           0      -12.300707   -0.765941   -1.939463
     32          6           0      -12.121219   -1.030652   -3.517439
     33          7           0       -7.118076   -1.335639   -0.062328
     34          6           0       -8.219193   -2.181301   -0.540335
     35          6           0       -7.730021   -3.622050   -0.568745
     36          6           0       -6.488269   -3.543548   -0.112368
     37          6           0       -6.191950   -2.222806    0.158457
     38          6           0       -8.492990   -4.874826   -1.031039
     39          6           0       -5.392587   -4.459099    0.272800
     40          8           0       -5.087863   -5.599305    0.228213
     41          6           0       -4.210598   -3.403144    0.636133
     42          6           0       -3.581858   -3.732294    1.954022
     43          8           0       -3.901912   -3.161735    3.027071
     44          8           0       -2.692552   -4.721732    1.864345
     45          6           0       -2.131514   -5.156820    3.011524
     46          6           0        2.744348   -0.634456   -1.221178
     47          6           0        4.066742   -0.520793   -0.532415
     48          6           0        5.033658    0.315232   -0.811331
     49          6           0        5.031289    1.291106   -2.018152
     50          6           0        6.377510    0.425001   -0.112156
     51          6           0        7.591226   -0.157146   -0.846173
     52          6           0        8.856775   -0.133258   -0.149085
     53          6           0       10.014374   -0.686955   -0.920503
     54          6           0        9.947938   -2.171866   -1.272969
     55          6           0       11.257834   -0.397385   -0.143006
     56          6           0       12.726664   -0.506547   -0.744920
     57          6           0       13.931389   -0.162260    0.144199
     58          6           0       15.338511   -0.224558   -0.465422
     59          6           0       15.779186   -1.595082   -1.000154
     60          6           0       16.476545    0.467333    0.436978
     61          6           0       17.866484    0.674616   -0.206333
     62          6           0       18.753429    1.453700    0.645109
     63          6           0       20.176919    1.425062    0.085701
     64          6           0       20.351983    2.145689   -1.210437
     65          6           0       21.109167    1.991030    1.337758
     66          1           0       -4.339682    3.526927    1.639194
     67          1           0      -10.034460    4.066646   -0.371592
     68          1           0      -10.011835   -2.577016   -1.316209
     69          1           0       -2.634520   -0.891640    2.277622
     70          1           0       -2.235952    1.609527    1.308998
     71          1           0       -2.299148    0.524499    3.621947
     72          1           0       -2.918549    2.136979    3.316970
     73          1           0       -3.947134    0.705729    3.584256
     74          1           0       -2.049714   -1.797573   -0.007794
     75          1           0       -2.262444   -0.093783   -0.533795
     76          1           0       -0.264706    0.337304    1.153249
     77          1           0       -0.077320   -1.253789    1.498027
     78          1           0       -6.096042    6.853876    0.541393
     79          1           0       -5.562988    6.275409    2.235857
     80          1           0       -4.448206    5.644087    0.919554
     81          1           0       -9.269543    6.079801   -0.626040
     82          1           0       -9.009080    7.973877    0.718500
     83          1           0       -7.470638    7.299581    1.532013
     84          1           0      -11.706101    3.173970   -2.156974
     85          1           0      -13.129757    1.995530   -1.989646
     86          1           0      -12.488415    2.950388   -0.583758
     87          1           0      -12.138570   -1.762753   -1.366749
     88          1           0      -13.070864   -0.177258   -1.811795
     89          1           0      -12.938140   -1.449155   -4.096213
     90          1           0      -12.107504   -0.085074   -3.883075
     91          1           0      -11.032849   -1.549010   -3.739478
     92          1           0       -9.022310   -4.673233   -2.143968
     93          1           0       -7.942101   -5.856855   -1.047487
     94          1           0       -9.330902   -5.061815   -0.365607
     95          1           0       -3.380194   -3.397821   -0.213717
     96          1           0       -1.711132   -4.219615    3.539342
     97          1           0       -3.021272   -5.609816    3.574913
     98          1           0       -1.503241   -6.074854    2.759650
     99          1           0        2.634642   -1.778293   -1.560458
    100          1           0        2.634190    0.083919   -2.098049
    101          1           0        4.432289   -1.265098    0.283795
    102          1           0        4.063926    1.383184   -2.396382
    103          1           0        5.359181    2.267976   -1.811221
    104          1           0        5.817977    0.935724   -2.774296
    105          1           0        6.323566    1.390038    0.134587
    106          1           0        6.136249   -0.144022    0.865451
    107          1           0        7.445512   -1.147539   -1.257678
    108          1           0        7.707101    0.414439   -1.773334
    109          1           0        9.033836    0.965733    0.226358
    110          1           0        8.745950   -0.926605    0.654456
    111          1           0       10.046006   -0.035596   -1.831799
    112          1           0        9.143249   -2.566232   -1.943876
    113          1           0       10.883868   -2.397085   -1.789535
    114          1           0        9.880018   -2.807935   -0.336341
    115          1           0       11.317534    0.617941    0.239395
    116          1           0       11.208466   -0.945263    0.893402
    117          1           0       12.951008   -1.506181   -1.267770
    118          1           0       12.862757    0.237207   -1.434208
    119          1           0       13.733841    0.907235    0.372640
    120          1           0       13.988981   -0.521974    1.200843
    121          1           0       15.281621    0.378491   -1.480074
    122          1           0       15.776256   -2.472622   -0.262765
    123          1           0       14.948846   -1.923419   -1.769258
    124          1           0       16.593966   -1.701652   -1.546917
    125          1           0       16.191095    1.470710    0.864161
    126          1           0       16.539593   -0.180505    1.452791
    127          1           0       18.312576   -0.392910   -0.436361
    128          1           0       17.771549    1.078987   -1.288634
    129          1           0       18.468421    2.511642    0.859362
    130          1           0       18.716751    0.954047    1.657347
    131          1           0       20.618102    0.448146   -0.037997
    132          1           0       19.887460    3.153348   -1.181113
    133          1           0       21.375007    2.066876   -1.471007
    134          1           0       19.885038    1.604780   -1.941424
    135          1           0       21.000377    1.361647    2.188087
    136          1           0       22.144935    2.009330    1.083639
    137          1           0       20.795597    2.900436    1.683818
 ---------------------------------------------------------------------

 SCF Done:  E(RCAM-B3LYP) =  -2932.74277567     A.U. after   17 cycles

 Excitation energies and oscillator strengths:

 Excited State   1:      Singlet-A      2.1185 eV  585.25 nm  f=0.2264  <S**2>=0.000
     240 -> 242       -0.20319
     240 -> 243       -0.24150
     241 -> 242        0.60743
     241 -> 243       -0.14137
 This state for optimization and/or second-order correction.
 Total Energy, E(TD-HF/TD-KS) =  -2932.66492347
 Copying the excited state density for this state as the 1-particle RhoCI density.

 The electronic state is 1-A.
 Alpha  occ. eigenvalues --  -46.84010 -19.26347 -19.24286 -19.22079 -19.21928
 Alpha  occ. eigenvalues --  -19.19905 -14.40645 -14.39593 -14.39477 -14.39173
 Alpha  occ. eigenvalues --  -10.38799 -10.38744 -10.36358 -10.32398 -10.31769
 Alpha  occ. eigenvalues --  -10.30220 -10.30004 -10.29915 -10.29837 -10.29693
 Alpha  occ. eigenvalues --  -10.29214 -10.28765 -10.28755 -10.28699 -10.28408
 Alpha  occ. eigenvalues --  -10.28265 -10.28249 -10.28240 -10.28077 -10.28068
 Alpha  occ. eigenvalues --  -10.28008 -10.27520 -10.27298 -10.26946 -10.26581
 Alpha  occ. eigenvalues --  -10.26522 -10.26405 -10.26303 -10.26298 -10.26174
 Alpha  occ. eigenvalues --  -10.26147 -10.26127 -10.26079 -10.25938 -10.25831
 Alpha  occ. eigenvalues --  -10.25743 -10.25684 -10.25607 -10.25554 -10.25530
 Alpha  occ. eigenvalues --  -10.25380 -10.25353 -10.25326 -10.25299 -10.25288
 Alpha  occ. eigenvalues --  -10.25200 -10.25044 -10.24876 -10.24830 -10.24627
 Alpha  occ. eigenvalues --  -10.24397 -10.24078 -10.23390 -10.23169 -10.22742
 Alpha  occ. eigenvalues --   -3.13153  -1.87846  -1.87411  -1.87337  -1.19664
 Alpha  occ. eigenvalues --   -1.19131  -1.14247  -1.09563  -1.07376  -1.05387
 Alpha  occ. eigenvalues --   -1.04392  -1.02826  -1.01904  -0.91928  -0.91155
 Alpha  occ. eigenvalues --   -0.90734  -0.90137  -0.90090  -0.89790  -0.89310
 Alpha  occ. eigenvalues --   -0.88735  -0.88092  -0.88004  -0.87362  -0.86591
 Alpha  occ. eigenvalues --   -0.85011  -0.84475  -0.83739  -0.83230  -0.82748
 Alpha  occ. eigenvalues --   -0.81717  -0.81222  -0.80539  -0.79591  -0.78559
 Alpha  occ. eigenvalues --   -0.78002  -0.76878  -0.76767  -0.76411  -0.75561
 Alpha  occ. eigenvalues --   -0.75458  -0.74828  -0.74307  -0.73178  -0.72262
 Alpha  occ. eigenvalues --   -0.71616  -0.70926  -0.70460  -0.69475  -0.68833
 Alpha  occ. eigenvalues --   -0.67597  -0.66442  -0.65694  -0.65200  -0.64291
 Alpha  occ. eigenvalues --   -0.63038  -0.62904  -0.62791  -0.62073  -0.61701
 Alpha  occ. eigenvalues --   -0.61576  -0.61107  -0.60333  -0.60299  -0.59303
 Alpha  occ. eigenvalues --   -0.58856  -0.57943  -0.57568  -0.57287  -0.56761
 Alpha  occ. eigenvalues --   -0.56230  -0.55677  -0.55494  -0.55372  -0.54749
 Alpha  occ. eigenvalues --   -0.54366  -0.54247  -0.54157  -0.53686  -0.53368
 Alpha  occ. eigenvalues --   -0.53222  -0.52895  -0.52538  -0.52154  -0.52057
 Alpha  occ. eigenvalues --   -0.51836  -0.51246  -0.51032  -0.50957  -0.50681
 Alpha  occ. eigenvalues --   -0.50463  -0.50144  -0.49992  -0.49881  -0.49616
 Alpha  occ. eigenvalues --   -0.49446  -0.49121  -0.48615  -0.48572  -0.48377
 Alpha  occ. eigenvalues --   -0.48118  -0.47909  -0.47685  -0.47504  -0.47358
 Alpha  occ. eigenvalues --   -0.47046  -0.46770  -0.46577  -0.46428  -0.46244
 Alpha  occ. eigenvalues --   -0.46052  -0.45880  -0.45641  -0.45555  -0.45342
 Alpha  occ. eigenvalues --   -0.45156  -0.44923  -0.44792  -0.44626  -0.44162
 Alpha  occ. eigenvalues --   -0.43815  -0.43561  -0.43328  -0.43187  -0.43076
 Alpha  occ. eigenvalues --   -0.42923  -0.42646  -0.42489  -0.42422  -0.42248
 Alpha  occ. eigenvalues --   -0.42150  -0.41748  -0.41664  -0.41449  -0.41280
 Alpha  occ. eigenvalues --   -0.41131  -0.41019  -0.40655  -0.40554  -0.40496
 Alpha  occ. eigenvalues --   -0.40102  -0.40057  -0.39955  -0.39730  -0.39294
 Alpha  occ. eigenvalues --   -0.39043  -0.38702  -0.38607  -0.37997  -0.37915
 Alpha  occ. eigenvalues --   -0.37709  -0.37161  -0.36723  -0.36716  -0.36361
 Alpha  occ. eigenvalues --   -0.36115  -0.36052  -0.35863  -0.35662  -0.35602
 Alpha  occ. eigenvalues --   -0.35340  -0.35114  -0.34869  -0.34546  -0.34168
 Alpha  occ. eigenvalues --   -0.33306  -0.32882  -0.32529  -0.31540  -0.30421
 Alpha  occ. eigenvalues --   -0.30213  -0.29746  -0.28680  -0.27723  -0.22720
 Alpha  occ. eigenvalues --   -0.21326
 Alpha virt. eigenvalues --   -0.06214  -0.03145   0.01886   0.03608   0.05757
 Alpha virt. eigenvalues --    0.06102   0.06828   0.07063   0.07627   0.07996
 Alpha virt. eigenvalues --    0.08321   0.10335   0.11193   0.11904   0.12196

 Mulliken charges:
               1
     1  Mg   0.824758
     2  C    0.014942
     3  C   -0.194815
     4  C   -0.187320
     5  C   -0.205041
     6  N   -0.630832
     7  C    0.320496
     8  C   -0.161870
     9  C   -0.151001
    10  C    0.320763
    11  C   -0.289587
    12  C   -0.161880
    13  C   -0.294662
    14  C    0.610528
    15  O   -0.407209
    16  O   -0.511524
    17  N   -0.671495
    18  C    0.260215
    19  C    0.021668
    20  C    0.041069
    21  C    0.301764
    22  C   -0.374220
    23  C   -0.086220
    24  C   -0.232508
    25  N   -0.680753
    26  C    0.328262
    27  C   -0.024869
    28  C    0.052647
    29  C    0.264766
    30  C   -0.370572
    31  C   -0.209456
    32  C   -0.311785
    33  N   -0.722000
    34  C    0.200946
    35  C    0.050430
    36  C    0.019178
    37  C    0.323118
    38  C   -0.381099
    39  C    0.398729
    40  O   -0.416808
    41  C   -0.328862
    42  C    0.612135
    43  O   -0.508130
    44  O   -0.402326
    45  C   -0.084593
    46  C    0.016446
    47  C   -0.114809
    48  C    0.087376
    49  C   -0.356665
    50  C   -0.205096
    51  C   -0.171618
    52  C   -0.145830
    53  C   -0.058088
    54  C   -0.317646
    55  C   -0.168304
    56  C   -0.187140
    57  C   -0.186783
    58  C   -0.048360
    59  C   -0.304499
    60  C   -0.173718
    61  C   -0.166212
    62  C   -0.158172
    63  C   -0.068698
    64  C   -0.301805
    65  C   -0.336440
    66  H    0.055595
    67  H    0.088073
    68  H    0.078811
    69  H    0.119857
    70  H    0.109091
    71  H    0.106625
    72  H    0.111973
    73  H    0.134552
    74  H    0.122046
    75  H    0.119508
    76  H    0.128638
    77  H    0.143447
    78  H    0.106597
    79  H    0.127421
    80  H    0.113133
    81  H    0.108135
    82  H    0.107327
    83  H    0.104779
    84  H    0.118399
    85  H    0.104624
    86  H    0.129289
    87  H    0.105908
    88  H    0.104819
    89  H    0.104050
    90  H    0.120292
    91  H    0.090084
    92  H    0.104633
    93  H    0.149767
    94  H    0.140995
    95  H    0.141380
    96  H    0.118033
    97  H    0.116096
    98  H    0.120684
    99  H    0.106998
   100  H    0.117310
   101  H    0.076813
   102  H    0.105007
   103  H    0.113003
   104  H    0.111804
   105  H    0.114904
   106  H    0.075096
   107  H    0.102005
   108  H    0.084060
   109  H    0.080558
   110  H    0.081421
   111  H    0.078237
   112  H    0.102225
   113  H    0.114558
   114  H    0.099436
   115  H    0.090409
   116  H    0.074060
   117  H    0.082625
   118  H    0.109310
   119  H    0.087228
   120  H    0.085354
   121  H    0.064345
   122  H    0.088945
   123  H    0.077994
   124  H    0.118485
   125  H    0.085483
   126  H    0.068377
   127  H    0.082049
   128  H    0.084581
   129  H    0.092015
   130  H    0.089408
   131  H    0.089440
   132  H    0.097262
   133  H    0.104351
   134  H    0.112385
   135  H    0.100912
   136  H    0.092907
   137  H    0.105058
 Sum of Mulliken charges =   0.00000

 Dipole moment (field-independent basis, Debye):
    X=              0.1415    Y=              4.0828    Z=             -0.6022  Tot=              4.1294
 Quadrupole moment (field-independent basis, Debye-Ang):
   XX=           -341.2096   YY=           -380.8594   ZZ=           -399.5619
   XY=            -22.7209   XZ=              8.5688   YZ=              1.7469

 Normal termination of Gaussian 09 at Fri Jul  5 20:29:44 2019.
