 Gaussian 16, Revision A.03,
 Gaussian 16:  ES64L-G16RevA.03 25-Dec-2016

 -------------------------------------
 # td=(NStates=1) CAM-B3LYP/6-31G(d,p)
 -------------------------------------

 --
 TD
 --
 Symbolic Z-matrix:
 Charge =  0 Multiplicity = 1

                         Standard orientation:
 ---------------------------------------------------------------------
 Center     Atomic      Atomic             Coordinates (Angstroms)
 Number     Number       Type             X           Y           Z
 ---------------------------------------------------------------------
      1         12           0       -7.064806    0.725705    0.012112
      2          6           0       -4.814888   -2.013535    0.427103
      3          6           0       -4.885537    2.871302    1.281737
      4          6           0       -9.373560    3.114624   -0.531942
      5          6           0       -9.457238   -1.674714   -0.873078
      6          7           0       -5.089354    0.465750    0.652805
      7          6           0       -4.362522   -0.703214    0.743265
      8          6           0       -2.950492   -0.428043    1.192058
      9          6           0       -3.045151    1.101748    1.685276
     10          6           0       -4.439534    1.531224    1.129929
     11          6           0       -2.967063    1.220561    3.236059
     12          6           0       -1.874856   -0.647584   -0.009857
     13          6           0       -0.448866   -0.458609    0.542494
     14          6           0        0.599253   -0.637507   -0.636468
     15          8           0        0.210151   -1.042687   -1.694921
     16          8           0        1.842967   -0.420838   -0.146143
     17          7           0       -7.076400    2.685924    0.254073
     18          6           0       -6.016356    3.399623    0.757478
     19          6           0       -6.411060    4.882571    0.834527
     20          6           0       -7.714573    4.840968    0.276533
     21          6           0       -8.143218    3.463763   -0.005950
     22          6           0       -5.494319    5.942495    1.260894
     23          6           0       -8.556952    6.101081    0.198336
     24          6           0       -8.455814    7.291734    0.831727
     25          7           0       -9.016411    0.751764   -0.702095
     26          6           0       -9.791889    1.871112   -0.836462
     27          6           0      -11.177178    1.455636   -1.126297
     28          6           0      -11.201202    0.064774   -1.279921
     29          6           0       -9.862364   -0.371846   -0.931777
     30          6           0      -12.372801    2.412994   -1.356683
     31          6           0      -12.287168   -0.905931   -1.552153
     32          6           0      -12.373898   -1.099466   -3.148087
     33          7           0       -7.230159   -1.315591   -0.164546
     34          6           0       -8.262252   -2.199876   -0.499141
     35          6           0       -7.850754   -3.629257   -0.506660
     36          6           0       -6.505058   -3.520439   -0.186798
     37          6           0       -6.196346   -2.176412    0.031812
     38          6           0       -8.591306   -4.865513   -0.756548
     39          6           0       -5.310278   -4.374388    0.090739
     40          8           0       -5.233937   -5.570981    0.006320
     41          6           0       -4.203270   -3.361762    0.509558
     42          6           0       -3.578563   -3.748200    1.903331
     43          8           0       -3.973171   -3.174654    2.923362
     44          8           0       -2.806031   -4.751659    1.896698
     45          6           0       -2.410020   -5.292202    3.110698
     46          6           0        2.820708   -0.659080   -1.160155
     47          6           0        4.116889   -0.424769   -0.586133
     48          6           0        5.080788    0.342873   -1.018115
     49          6           0        5.195493    1.180409   -2.228685
     50          6           0        6.409921    0.517186   -0.126200
     51          6           0        7.496073   -0.327934   -0.969138
     52          6           0        8.864118   -0.095842   -0.140588
     53          6           0       10.211807   -0.550883   -0.912858
     54          6           0       10.066229   -2.131464   -1.145835
     55          6           0       11.386196   -0.304227   -0.036554
     56          6           0       12.761090   -0.627972   -0.721949
     57          6           0       13.897453   -0.003411    0.212854
     58          6           0       15.370055   -0.275785   -0.389863
     59          6           0       15.740813   -1.696294   -0.671303
     60          6           0       16.478927    0.609619    0.334701
     61          6           0       17.929230    0.520748   -0.237979
     62          6           0       18.950284    1.244780    0.692726
     63          6           0       20.385007    1.377687    0.154025
     64          6           0       20.332881    2.072979   -1.134765
     65          6           0       21.138796    2.028492    1.235117
     66          1           0       -4.185240    3.477220    1.795151
     67          1           0      -10.153143    3.876490   -0.572108
     68          1           0      -10.240217   -2.331070   -0.988397
     69          1           0       -2.781515   -1.103204    1.964090
     70          1           0       -2.073606    1.635314    1.247833
     71          1           0       -1.872784    1.117907    3.485012
     72          1           0       -3.253388    2.238657    3.600508
     73          1           0       -3.714930    0.461653    3.622611
     74          1           0       -1.975637   -1.696096   -0.435712
     75          1           0       -2.112180   -0.032322   -0.865931
     76          1           0       -0.476198    0.426914    1.115321
     77          1           0       -0.266448   -1.202845    1.215702
     78          1           0       -5.755514    6.857594    0.785060
     79          1           0       -5.674766    6.259716    2.452570
     80          1           0       -4.284544    5.413700    1.360877
     81          1           0       -9.349521    5.812490   -0.462782
     82          1           0       -9.224184    7.889302    0.455689
     83          1           0       -7.649909    7.678092    1.428338
     84          1           0      -12.439952    2.788859   -2.485335
     85          1           0      -13.427905    1.816409   -1.447134
     86          1           0      -12.319450    3.378927   -0.680436
     87          1           0      -12.004648   -1.976248   -1.043347
     88          1           0      -13.227265   -0.376160   -1.271469
     89          1           0      -13.138266   -1.937548   -3.335782
     90          1           0      -12.500918   -0.158650   -3.687410
     91          1           0      -11.540374   -1.807445   -3.253165
     92          1           0       -8.992988   -4.705484   -1.715218
     93          1           0       -7.919552   -5.770591   -0.705928
     94          1           0       -9.357908   -4.908182   -0.064716
     95          1           0       -3.236825   -3.467783   -0.304286
     96          1           0       -2.104889   -4.481098    3.931768
     97          1           0       -3.373258   -5.988526    3.603466
     98          1           0       -1.731077   -6.160629    2.703146
     99          1           0        2.836927   -1.633406   -1.693449
    100          1           0        2.492288    0.002488   -1.874686
    101          1           0        4.202102   -0.865238    0.408317
    102          1           0        4.212660    1.244495   -2.739539
    103          1           0        5.827456    2.258003   -2.217158
    104          1           0        5.937228    0.739199   -2.995001
    105          1           0        6.740899    1.631555   -0.180379
    106          1           0        6.376477    0.240758    0.921409
    107          1           0        7.180925   -1.491249   -1.037857
    108          1           0        7.819303   -0.047464   -2.010721
    109          1           0        8.947835    0.920872   -0.124802
    110          1           0        8.764097   -0.542965    0.779688
    111          1           0       10.353898    0.088755   -1.762646
    112          1           0        8.954036   -2.233655   -1.490308
    113          1           0       11.070476   -2.513498   -1.612669
    114          1           0        9.913504   -2.542881   -0.106142
    115          1           0       11.449042    0.770847    0.188607
    116          1           0       11.150901   -0.792434    0.978285
    117          1           0       12.884023   -1.777067   -0.707799
    118          1           0       12.739435   -0.056601   -1.598619
    119          1           0       13.733519    1.063000    0.230373
    120          1           0       13.902798   -0.611356    1.110830
    121          1           0       15.337455    0.308610   -1.355562
    122          1           0       15.575774   -2.326550    0.365968
    123          1           0       14.898292   -2.265008   -1.244592
    124          1           0       16.899031   -1.750921   -0.780697
    125          1           0       16.124310    1.524840    0.520633
    126          1           0       16.539569    0.086320    1.416850
    127          1           0       18.212639   -0.544234   -0.638536
    128          1           0       18.065980    0.894391   -1.218530
    129          1           0       18.366096    2.310590    1.153438
    130          1           0       19.059668    0.778245    1.674675
    131          1           0       20.893784    0.357864    0.147757
    132          1           0       19.817120    2.985184   -1.113222
    133          1           0       21.388264    2.200412   -1.611216
    134          1           0       19.908511    1.473189   -2.025813
    135          1           0       21.162005    1.427773    2.211471
    136          1           0       22.132894    2.061512    0.950380
    137          1           0       20.757898    2.934494    1.593503
 ---------------------------------------------------------------------

 SCF Done:  E(RCAM-B3LYP) =  -2932.65387396     A.U. after   18 cycles

 Excitation energies and oscillator strengths:

 Excited State   1:      Singlet-A      2.0446 eV  606.40 nm  f=0.2392  <S**2>=0.000
     240 -> 243        0.25073
     241 -> 242        0.65692
 This state for optimization and/or second-order correction.
 Total Energy, E(TD-HF/TD-DFT) =  -2932.57873589
 Copying the excited state density for this state as the 1-particle RhoCI density.

 The electronic state is 1-A.
 Alpha  occ. eigenvalues --  -46.83511 -19.28696 -19.27775 -19.22432 -19.20916
 Alpha  occ. eigenvalues --  -19.20221 -14.42202 -14.39268 -14.39199 -14.38540
 Alpha  occ. eigenvalues --  -10.40204 -10.39736 -10.35454 -10.35138 -10.31659
 Alpha  occ. eigenvalues --  -10.31054 -10.30707 -10.30353 -10.30115 -10.29620
 Alpha  occ. eigenvalues --  -10.29440 -10.28880 -10.28862 -10.28430 -10.28271
 Alpha  occ. eigenvalues --  -10.28229 -10.28046 -10.27938 -10.27896 -10.27804
 Alpha  occ. eigenvalues --  -10.27791 -10.27771 -10.27743 -10.27502 -10.27213
 Alpha  occ. eigenvalues --  -10.27163 -10.27030 -10.26820 -10.26750 -10.26719
 Alpha  occ. eigenvalues --  -10.26641 -10.26612 -10.26588 -10.26250 -10.26186
 Alpha  occ. eigenvalues --  -10.26055 -10.26024 -10.25968 -10.25967 -10.25910
 Alpha  occ. eigenvalues --  -10.25907 -10.25693 -10.25688 -10.25621 -10.25574
 Alpha  occ. eigenvalues --  -10.25442 -10.25415 -10.25357 -10.25353 -10.25036
 Alpha  occ. eigenvalues --  -10.25001 -10.24833 -10.24281 -10.24179 -10.23280
 Alpha  occ. eigenvalues --   -3.12680  -1.87380  -1.86903  -1.86884  -1.22833
 Alpha  occ. eigenvalues --   -1.19554  -1.12176  -1.11814  -1.08883  -1.04266
 Alpha  occ. eigenvalues --   -1.03113  -1.02802  -1.00752  -0.92343  -0.91240
 Alpha  occ. eigenvalues --   -0.90516  -0.89639  -0.89440  -0.88691  -0.88043
 Alpha  occ. eigenvalues --   -0.87792  -0.87693  -0.87585  -0.86627  -0.85576
 Alpha  occ. eigenvalues --   -0.84820  -0.84008  -0.83357  -0.82827  -0.82523
 Alpha  occ. eigenvalues --   -0.81689  -0.81186  -0.80773  -0.78962  -0.78089
 Alpha  occ. eigenvalues --   -0.77521  -0.77059  -0.76598  -0.75766  -0.75068
 Alpha  occ. eigenvalues --   -0.74141  -0.73925  -0.73661  -0.73067  -0.72104
 Alpha  occ. eigenvalues --   -0.70812  -0.69819  -0.69103  -0.68998  -0.67653
 Alpha  occ. eigenvalues --   -0.67106  -0.66953  -0.65566  -0.65023  -0.64647
 Alpha  occ. eigenvalues --   -0.64541  -0.63721  -0.62845  -0.62814  -0.62719
 Alpha  occ. eigenvalues --   -0.61540  -0.60891  -0.60014  -0.59534  -0.59140
 Alpha  occ. eigenvalues --   -0.58473  -0.58322  -0.57799  -0.57204  -0.56798
 Alpha  occ. eigenvalues --   -0.56428  -0.55844  -0.55204  -0.55169  -0.54921
 Alpha  occ. eigenvalues --   -0.54692  -0.54448  -0.54062  -0.53925  -0.53422
 Alpha  occ. eigenvalues --   -0.53171  -0.52734  -0.52446  -0.51804  -0.51522
 Alpha  occ. eigenvalues --   -0.51382  -0.51123  -0.50930  -0.50611  -0.50403
 Alpha  occ. eigenvalues --   -0.50323  -0.50079  -0.49960  -0.49614  -0.49454
 Alpha  occ. eigenvalues --   -0.49231  -0.49009  -0.48841  -0.48343  -0.48147
 Alpha  occ. eigenvalues --   -0.47863  -0.47699  -0.47572  -0.47154  -0.47075
 Alpha  occ. eigenvalues --   -0.46953  -0.46552  -0.46210  -0.46136  -0.45882
 Alpha  occ. eigenvalues --   -0.45690  -0.45626  -0.45362  -0.45212  -0.45103
 Alpha  occ. eigenvalues --   -0.45077  -0.44796  -0.44701  -0.44089  -0.43974
 Alpha  occ. eigenvalues --   -0.43873  -0.43533  -0.43286  -0.43053  -0.42934
 Alpha  occ. eigenvalues --   -0.42884  -0.42637  -0.42482  -0.42431  -0.42347
 Alpha  occ. eigenvalues --   -0.42161  -0.41549  -0.41418  -0.41337  -0.41022
 Alpha  occ. eigenvalues --   -0.40921  -0.40645  -0.40580  -0.40512  -0.40392
 Alpha  occ. eigenvalues --   -0.40200  -0.40127  -0.39852  -0.39529  -0.39171
 Alpha  occ. eigenvalues --   -0.38615  -0.38432  -0.38275  -0.38072  -0.37867
 Alpha  occ. eigenvalues --   -0.37763  -0.37695  -0.37336  -0.37034  -0.36940
 Alpha  occ. eigenvalues --   -0.36443  -0.35955  -0.35452  -0.35285  -0.35280
 Alpha  occ. eigenvalues --   -0.34884  -0.34400  -0.34087  -0.33331  -0.32926
 Alpha  occ. eigenvalues --   -0.32815  -0.32720  -0.32112  -0.30505  -0.30324
 Alpha  occ. eigenvalues --   -0.29859  -0.29263  -0.27313  -0.26813  -0.23184
 Alpha  occ. eigenvalues --   -0.20411
 Alpha virt. eigenvalues --   -0.05766  -0.02825   0.01619   0.03693   0.05888
 Alpha virt. eigenvalues --    0.06215   0.06483   0.06569   0.06972   0.07203
 Alpha virt. eigenvalues --    0.07960   0.09940   0.10560   0.11060   0.11132

 Mulliken charges:
               1
     1  Mg   0.810196
     2  C    0.108420
     3  C   -0.185559
     4  C   -0.183984
     5  C   -0.162554
     6  N   -0.643786
     7  C    0.281995
     8  C   -0.160899
     9  C   -0.165342
    10  C    0.339147
    11  C   -0.300567
    12  C   -0.179942
    13  C   -0.266419
    14  C    0.613809
    15  O   -0.449256
    16  O   -0.469100
    17  N   -0.752081
    18  C    0.314131
    19  C    0.074120
    20  C   -0.072732
    21  C    0.381159
    22  C   -0.377334
    23  C   -0.058468
    24  C   -0.242796
    25  N   -0.700769
    26  C    0.338672
    27  C   -0.005859
    28  C    0.087772
    29  C    0.274900
    30  C   -0.371157
    31  C   -0.272291
    32  C   -0.302719
    33  N   -0.702220
    34  C    0.240861
    35  C    0.032953
    36  C   -0.030969
    37  C    0.304520
    38  C   -0.374053
    39  C    0.400981
    40  O   -0.451555
    41  C   -0.333772
    42  C    0.598456
    43  O   -0.495429
    44  O   -0.363480
    45  C   -0.095235
    46  C    0.010987
    47  C   -0.154677
    48  C    0.151518
    49  C   -0.370746
    50  C   -0.225608
    51  C   -0.196260
    52  C   -0.181999
    53  C   -0.075828
    54  C   -0.306013
    55  C   -0.160314
    56  C   -0.184941
    57  C   -0.182054
    58  C   -0.053745
    59  C   -0.307797
    60  C   -0.164448
    61  C   -0.183128
    62  C   -0.149962
    63  C   -0.048477
    64  C   -0.300846
    65  C   -0.306023
    66  H    0.079225
    67  H    0.087291
    68  H    0.054631
    69  H    0.121475
    70  H    0.089173
    71  H    0.105248
    72  H    0.107200
    73  H    0.131606
    74  H    0.104853
    75  H    0.121903
    76  H    0.120732
    77  H    0.139103
    78  H    0.137912
    79  H    0.097635
    80  H    0.091767
    81  H    0.082463
    82  H    0.105770
    83  H    0.104719
    84  H    0.105750
    85  H    0.099232
    86  H    0.112310
    87  H    0.097327
    88  H    0.107124
    89  H    0.091814
    90  H    0.126313
    91  H    0.115823
    92  H    0.131050
    93  H    0.150303
    94  H    0.135751
    95  H    0.129451
    96  H    0.146330
    97  H    0.101302
    98  H    0.130401
    99  H    0.131391
   100  H    0.122041
   101  H    0.098543
   102  H    0.111916
   103  H    0.100709
   104  H    0.121312
   105  H    0.094358
   106  H    0.109931
   107  H    0.084128
   108  H    0.105395
   109  H    0.099395
   110  H    0.099317
   111  H    0.077365
   112  H    0.095269
   113  H    0.103086
   114  H    0.095220
   115  H    0.076229
   116  H    0.075538
   117  H    0.093058
   118  H    0.104044
   119  H    0.094091
   120  H    0.101109
   121  H    0.069828
   122  H    0.060688
   123  H    0.109502
   124  H    0.108273
   125  H    0.100349
   126  H    0.060594
   127  H    0.072264
   128  H    0.102291
   129  H    0.044289
   130  H    0.094194
   131  H    0.090382
   132  H    0.118324
   133  H    0.078432
   134  H    0.096481
   135  H    0.087485
   136  H    0.101199
   137  H    0.107592
 Sum of Mulliken charges =  -0.00000

 Dipole moment (field-independent basis, Debye):
    X=              3.4371    Y=              3.1346    Z=              0.6524  Tot=              4.6974
 Quadrupole moment (field-independent basis, Debye-Ang):
   XX=           -360.6939   YY=           -391.7941   ZZ=           -399.2482
   XY=             -4.6649   XZ=              7.3244   YZ=             -4.7752

 Normal termination of Gaussian 16 at Sun Jun 30 06:26:59 2019.
