 Gaussian 16, Revision A.03,
 Gaussian 16:  ES64L-G16RevA.03 25-Dec-2016

 ----------------------------------------------------------------------
 # td=(NStates=1) iop(3/107=0140000000,3/108=0140000000) CAM-B3LYP/6-31
 G(d,p)
 ----------------------------------------------------------------------

 --
 TD
 --
 Symbolic Z-matrix:
 Charge =  0 Multiplicity = 1

                         Standard orientation:
 ---------------------------------------------------------------------
 Center     Atomic      Atomic             Coordinates (Angstroms)
 Number     Number       Type             X           Y           Z
 ---------------------------------------------------------------------
      1         12           0       -7.145395    0.572137    0.174369
      2          6           0       -4.835100   -1.972872    0.340099
      3          6           0       -4.687499    2.843279    1.061506
      4          6           0       -9.424227    3.162847   -0.283072
      5          6           0       -9.583984   -1.699446   -0.860928
      6          7           0       -5.068176    0.497927    0.682922
      7          6           0       -4.337619   -0.685529    0.710472
      8          6           0       -2.899894   -0.462275    1.032206
      9          6           0       -2.896957    1.041431    1.617360
     10          6           0       -4.311892    1.478536    1.124840
     11          6           0       -2.832392    1.234330    3.165908
     12          6           0       -1.932159   -0.555049   -0.124838
     13          6           0       -0.532018   -0.460184    0.323099
     14          6           0        0.524162   -0.626931   -0.723738
     15          8           0        0.282043   -0.935672   -1.895492
     16          8           0        1.757502   -0.508518   -0.312692
     17          7           0       -7.022776    2.648671    0.319425
     18          6           0       -5.971721    3.393459    0.740135
     19          6           0       -6.327418    4.816162    0.699157
     20          6           0       -7.643099    4.864538    0.245847
     21          6           0       -8.096154    3.487390    0.039732
     22          6           0       -5.392799    5.943072    0.982944
     23          6           0       -8.334985    6.042758    0.154423
     24          6           0       -8.365056    7.190982    0.789219
     25          7           0       -9.050763    0.718925   -0.448381
     26          6           0       -9.845766    1.863470   -0.484222
     27          6           0      -11.207526    1.424744   -0.931493
     28          6           0      -11.250698    0.074443   -1.069168
     29          6           0       -9.835533   -0.355771   -0.752046
     30          6           0      -12.276979    2.447716   -1.312838
     31          6           0      -12.508870   -0.596650   -1.533211
     32          6           0      -12.309561   -1.339207   -2.938320
     33          7           0       -7.246072   -1.369961   -0.234198
     34          6           0       -8.295920   -2.236039   -0.563710
     35          6           0       -7.820234   -3.663431   -0.547746
     36          6           0       -6.491923   -3.536106   -0.151746
     37          6           0       -6.146851   -2.205969    0.049415
     38          6           0       -8.671410   -4.858675   -0.830703
     39          6           0       -5.364620   -4.395941    0.048463
     40          8           0       -5.091025   -5.518165    0.113968
     41          6           0       -4.184149   -3.435795    0.482273
     42          6           0       -3.543242   -3.678145    1.876915
     43          8           0       -3.782869   -3.065064    2.912349
     44          8           0       -2.751095   -4.798220    1.748289
     45          6           0       -2.336350   -5.320953    3.092876
     46          6           0        2.855889   -0.688013   -1.206377
     47          6           0        4.170334   -0.455948   -0.585045
     48          6           0        5.198349    0.439002   -0.873078
     49          6           0        5.087310    1.361377   -2.056729
     50          6           0        6.509333    0.469724   -0.126738
     51          6           0        7.621936   -0.070309   -0.955358
     52          6           0        8.856746   -0.132915   -0.214754
     53          6           0       10.124353   -0.579433   -0.920847
     54          6           0       10.029141   -2.051676   -1.486966
     55          6           0       11.328962   -0.352641    0.062949
     56          6           0       12.653617   -0.481157   -0.701440
     57          6           0       13.894801   -0.088714    0.090964
     58          6           0       15.371384   -0.201656   -0.476688
     59          6           0       15.647034   -1.652005   -0.715239
     60          6           0       16.341736    0.468148    0.382295
     61          6           0       17.674279    0.494887   -0.049624
     62          6           0       18.698587    1.274535    0.823518
     63          6           0       20.154762    1.269990    0.268499
     64          6           0       20.177670    2.204257   -0.910045
     65          6           0       21.198495    1.643842    1.289817
     66          1           0       -4.005885    3.475864    1.460242
     67          1           0      -10.088358    3.903407   -0.446607
     68          1           0      -10.416378   -2.464286   -0.943364
     69          1           0       -2.662890   -0.968946    1.994001
     70          1           0       -2.298768    1.668013    1.306335
     71          1           0       -1.963666    0.871767    3.369936
     72          1           0       -2.978427    2.252716    3.561547
     73          1           0       -3.613111    0.617672    3.537536
     74          1           0       -2.200552   -1.576726   -0.671399
     75          1           0       -2.020298    0.178241   -0.894535
     76          1           0       -0.316136    0.446384    1.049277
     77          1           0       -0.261652   -1.376979    0.949558
     78          1           0       -5.483250    6.777607    0.294252
     79          1           0       -5.471377    6.144696    2.046206
     80          1           0       -4.256458    5.719487    0.817068
     81          1           0       -9.037934    6.028274   -0.768004
     82          1           0       -8.921124    8.060586    0.579699
     83          1           0       -7.563761    7.513868    1.746898
     84          1           0      -11.868792    3.087496   -2.269480
     85          1           0      -13.247674    1.864668   -1.449959
     86          1           0      -12.312098    3.191331   -0.637620
     87          1           0      -12.458538   -1.522714   -0.760628
     88          1           0      -13.351714   -0.150250   -1.379872
     89          1           0      -13.020158   -2.126433   -3.058892
     90          1           0      -12.294045   -0.500704   -3.803850
     91          1           0      -11.233090   -1.749607   -3.008985
     92          1           0       -9.047028   -4.632235   -1.778665
     93          1           0       -8.177700   -5.776013   -0.718368
     94          1           0       -9.440448   -4.858975   -0.096218
     95          1           0       -3.396245   -3.454329   -0.269145
     96          1           0       -1.921659   -4.439818    3.493615
     97          1           0       -3.240788   -5.498639    3.800073
     98          1           0       -1.682568   -5.991607    2.935735
     99          1           0        2.969937   -1.580311   -1.540557
    100          1           0        2.732099    0.070460   -2.181558
    101          1           0        4.367021   -0.950786    0.401382
    102          1           0        4.138022    1.448317   -2.435518
    103          1           0        5.050912    2.433458   -1.711519
    104          1           0        5.908745    1.150618   -2.930843
    105          1           0        6.820742    1.523470    0.251690
    106          1           0        6.432221   -0.181867    0.726983
    107          1           0        7.321732   -1.042353   -1.331720
    108          1           0        7.903948    0.546164   -1.922539
    109          1           0        9.178851    0.817621    0.225347
    110          1           0        8.759616   -1.114877    0.551748
    111          1           0       10.335344    0.007429   -1.874747
    112          1           0        9.160380   -1.975380   -2.132223
    113          1           0       10.921592   -2.328860   -1.820933
    114          1           0        9.797032   -2.660735   -0.653519
    115          1           0       11.275167    0.824974    0.446291
    116          1           0       11.245975   -1.034377    0.741808
    117          1           0       12.911696   -1.493984   -0.789019
    118          1           0       12.754468    0.280649   -1.510910
    119          1           0       13.770368    0.962023    0.175248
    120          1           0       13.951420   -0.769900    1.143584
    121          1           0       15.127994    0.339000   -1.328183
    122          1           0       15.429407   -2.224679    0.293464
    123          1           0       14.810802   -2.050615   -1.480914
    124          1           0       16.658785   -2.113864   -1.012694
    125          1           0       16.009341    1.582699    0.566498
    126          1           0       16.504182   -0.107802    1.455019
    127          1           0       18.041254   -0.468863   -0.296925
    128          1           0       17.491901    1.058758   -1.076228
    129          1           0       18.259401    2.275130    1.025729
    130          1           0       18.757928    0.628732    1.676637
    131          1           0       20.263305    0.136032   -0.108480
    132          1           0       19.569235    3.109255   -0.480142
    133          1           0       21.206203    2.596488   -1.391648
    134          1           0       19.501916    1.929360   -1.863827
    135          1           0       20.928105    0.990600    2.161955
    136          1           0       22.127165    1.623901    0.982760
    137          1           0       21.255501    2.747917    1.550606
 ---------------------------------------------------------------------

 SCF Done:  E(RCAM-B3LYP) =  -2933.43068451     A.U. after   16 cycles

 Excitation energies and oscillator strengths:

 Excited State   1:      Singlet-A      1.9928 eV  622.17 nm  f=0.2783  <S**2>=0.000
     240 -> 243        0.23542
     241 -> 242        0.66658
 This state for optimization and/or second-order correction.
 Total Energy, E(TD-HF/TD-DFT) =  -2933.35745141
 Copying the excited state density for this state as the 1-particle RhoCI density.

 The electronic state is 1-A.
 Alpha  occ. eigenvalues --  -46.79412 -19.22552 -19.21928 -19.17265 -19.16100
 Alpha  occ. eigenvalues --  -19.15151 -14.37868 -14.35374 -14.35153 -14.35013
 Alpha  occ. eigenvalues --  -10.34864 -10.34211 -10.29803 -10.27801 -10.26186
 Alpha  occ. eigenvalues --  -10.25694 -10.25689 -10.25167 -10.25122 -10.25120
 Alpha  occ. eigenvalues --  -10.25034 -10.24696 -10.24436 -10.23953 -10.23889
 Alpha  occ. eigenvalues --  -10.23734 -10.23410 -10.23330 -10.22858 -10.22767
 Alpha  occ. eigenvalues --  -10.22759 -10.22738 -10.22609 -10.22495 -10.22433
 Alpha  occ. eigenvalues --  -10.22409 -10.22288 -10.22247 -10.22145 -10.22116
 Alpha  occ. eigenvalues --  -10.22107 -10.22097 -10.21855 -10.21833 -10.21712
 Alpha  occ. eigenvalues --  -10.21646 -10.21615 -10.21586 -10.21548 -10.21459
 Alpha  occ. eigenvalues --  -10.21433 -10.21378 -10.21335 -10.21289 -10.21273
 Alpha  occ. eigenvalues --  -10.21215 -10.20969 -10.20900 -10.20797 -10.20756
 Alpha  occ. eigenvalues --  -10.20676 -10.20132 -10.19863 -10.19748 -10.18955
 Alpha  occ. eigenvalues --   -3.08090  -1.83022  -1.82581  -1.82484  -1.14428
 Alpha  occ. eigenvalues --   -1.11203  -1.09589  -1.03496  -1.02726  -0.99310
 Alpha  occ. eigenvalues --   -0.97655  -0.97178  -0.96220  -0.87228  -0.86885
 Alpha  occ. eigenvalues --   -0.86802  -0.85866  -0.84864  -0.84564  -0.83881
 Alpha  occ. eigenvalues --   -0.83600  -0.82900  -0.82665  -0.82318  -0.81756
 Alpha  occ. eigenvalues --   -0.80891  -0.79938  -0.78884  -0.78196  -0.77831
 Alpha  occ. eigenvalues --   -0.77247  -0.76689  -0.76249  -0.75839  -0.74355
 Alpha  occ. eigenvalues --   -0.72983  -0.72157  -0.72121  -0.71562  -0.71391
 Alpha  occ. eigenvalues --   -0.70721  -0.70275  -0.69515  -0.69347  -0.67715
 Alpha  occ. eigenvalues --   -0.67247  -0.66445  -0.65688  -0.65250  -0.64235
 Alpha  occ. eigenvalues --   -0.63082  -0.62517  -0.61945  -0.60555  -0.60291
 Alpha  occ. eigenvalues --   -0.59584  -0.58926  -0.58263  -0.58035  -0.57919
 Alpha  occ. eigenvalues --   -0.57140  -0.56348  -0.55918  -0.55460  -0.54890
 Alpha  occ. eigenvalues --   -0.54606  -0.53637  -0.53478  -0.53239  -0.52918
 Alpha  occ. eigenvalues --   -0.52726  -0.52166  -0.51916  -0.51560  -0.51181
 Alpha  occ. eigenvalues --   -0.51058  -0.50572  -0.50394  -0.49948  -0.49669
 Alpha  occ. eigenvalues --   -0.49343  -0.49103  -0.49002  -0.48591  -0.48281
 Alpha  occ. eigenvalues --   -0.48149  -0.48019  -0.47709  -0.47612  -0.47457
 Alpha  occ. eigenvalues --   -0.47134  -0.46958  -0.46825  -0.46556  -0.46251
 Alpha  occ. eigenvalues --   -0.45969  -0.45944  -0.45677  -0.45556  -0.45189
 Alpha  occ. eigenvalues --   -0.44820  -0.44622  -0.44393  -0.44260  -0.43881
 Alpha  occ. eigenvalues --   -0.43709  -0.43605  -0.43380  -0.42946  -0.42760
 Alpha  occ. eigenvalues --   -0.42601  -0.42547  -0.42118  -0.41990  -0.41818
 Alpha  occ. eigenvalues --   -0.41726  -0.41701  -0.41492  -0.41351  -0.41017
 Alpha  occ. eigenvalues --   -0.40698  -0.40422  -0.40255  -0.40076  -0.40011
 Alpha  occ. eigenvalues --   -0.39753  -0.39545  -0.39268  -0.38927  -0.38733
 Alpha  occ. eigenvalues --   -0.38472  -0.38357  -0.38116  -0.38052  -0.37825
 Alpha  occ. eigenvalues --   -0.37685  -0.37595  -0.37560  -0.37480  -0.37356
 Alpha  occ. eigenvalues --   -0.36758  -0.36542  -0.36097  -0.35877  -0.35555
 Alpha  occ. eigenvalues --   -0.35333  -0.35248  -0.35057  -0.34972  -0.34779
 Alpha  occ. eigenvalues --   -0.34169  -0.34037  -0.33820  -0.33686  -0.33637
 Alpha  occ. eigenvalues --   -0.33068  -0.32761  -0.32677  -0.32558  -0.32241
 Alpha  occ. eigenvalues --   -0.32014  -0.31732  -0.31019  -0.30648  -0.30332
 Alpha  occ. eigenvalues --   -0.30056  -0.29389  -0.29111  -0.28294  -0.26866
 Alpha  occ. eigenvalues --   -0.26851  -0.26354  -0.25505  -0.24542  -0.21550
 Alpha  occ. eigenvalues --   -0.19395
 Alpha virt. eigenvalues --   -0.06848  -0.03253   0.00132   0.02934   0.02950
 Alpha virt. eigenvalues --    0.03688   0.04563   0.04632   0.05938   0.06103
 Alpha virt. eigenvalues --    0.06885   0.09184   0.09369   0.09844   0.09960

 Mulliken charges:
               1
     1  Mg   0.821813
     2  C    0.018184
     3  C   -0.170448
     4  C   -0.143437
     5  C   -0.182917
     6  N   -0.598916
     7  C    0.269564
     8  C   -0.167255
     9  C   -0.130454
    10  C    0.318125
    11  C   -0.316716
    12  C   -0.148958
    13  C   -0.256150
    14  C    0.591675
    15  O   -0.497143
    16  O   -0.444388
    17  N   -0.717584
    18  C    0.303192
    19  C    0.032452
    20  C    0.025513
    21  C    0.329392
    22  C   -0.380637
    23  C   -0.098767
    24  C   -0.239683
    25  N   -0.715901
    26  C    0.308378
    27  C   -0.006392
    28  C    0.043194
    29  C    0.330535
    30  C   -0.356932
    31  C   -0.219332
    32  C   -0.308821
    33  N   -0.735022
    34  C    0.244524
    35  C    0.010648
    36  C    0.008889
    37  C    0.321730
    38  C   -0.365580
    39  C    0.344698
    40  O   -0.409207
    41  C   -0.306563
    42  C    0.620767
    43  O   -0.480461
    44  O   -0.460629
    45  C   -0.076581
    46  C    0.055630
    47  C   -0.169371
    48  C    0.128417
    49  C   -0.358407
    50  C   -0.214513
    51  C   -0.159280
    52  C   -0.130509
    53  C   -0.089299
    54  C   -0.314004
    55  C   -0.131828
    56  C   -0.173877
    57  C   -0.186641
    58  C   -0.035822
    59  C   -0.306049
    60  C   -0.122384
    61  C   -0.158879
    62  C   -0.167084
    63  C   -0.037028
    64  C   -0.288637
    65  C   -0.294440
    66  H    0.056455
    67  H    0.071377
    68  H    0.094769
    69  H    0.126965
    70  H    0.089568
    71  H    0.116266
    72  H    0.111006
    73  H    0.128736
    74  H    0.108223
    75  H    0.132173
    76  H    0.120826
    77  H    0.134783
    78  H    0.132143
    79  H    0.131620
    80  H    0.095007
    81  H    0.072433
    82  H    0.111216
    83  H    0.057806
    84  H    0.099150
    85  H    0.100869
    86  H    0.132993
    87  H    0.079589
    88  H    0.106185
    89  H    0.115321
    90  H    0.093247
    91  H    0.110686
    92  H    0.136443
    93  H    0.143965
    94  H    0.134700
    95  H    0.149686
    96  H    0.137116
    97  H    0.130829
    98  H    0.126257
    99  H    0.141509
   100  H    0.096759
   101  H    0.079068
   102  H    0.114936
   103  H    0.107396
   104  H    0.105095
   105  H    0.094192
   106  H    0.103513
   107  H    0.103842
   108  H    0.075927
   109  H    0.090073
   110  H    0.049662
   111  H    0.066294
   112  H    0.108773
   113  H    0.115834
   114  H    0.096520
   115  H    0.058005
   116  H    0.100356
   117  H    0.105204
   118  H    0.088061
   119  H    0.082646
   120  H    0.045604
   121  H    0.091862
   122  H    0.085681
   123  H    0.085661
   124  H    0.100209
   125  H    0.068810
   126  H    0.044606
   127  H    0.093940
   128  H    0.056776
   129  H    0.090105
   130  H    0.089302
   131  H    0.066572
   132  H    0.084042
   133  H    0.079189
   134  H    0.089201
   135  H    0.095348
   136  H    0.117313
   137  H    0.089314
 Sum of Mulliken charges =  -0.00000

 Dipole moment (field-independent basis, Debye):
    X=              1.7572    Y=              2.5940    Z=              1.4848  Tot=              3.4672
 Quadrupole moment (field-independent basis, Debye-Ang):
   XX=           -347.1402   YY=           -389.4614   ZZ=           -401.7365
   XY=             -7.0824   XZ=              4.7211   YZ=             -6.1709

 Normal termination of Gaussian 16 at Sat Sep 14 10:24:51 2019.
