 Gaussian 16, Revision A.03,
 Gaussian 16:  ES64L-G16RevA.03 25-Dec-2016

 ----------------------------------------------------------------------
 # td=(NStates=1) iop(3/107=0140000000,3/108=0140000000) CAM-B3LYP/6-31
 G(d,p)
 ----------------------------------------------------------------------

 --
 TD
 --
 Symbolic Z-matrix:
 Charge =  0 Multiplicity = 1

                         Standard orientation:
 ---------------------------------------------------------------------
 Center     Atomic      Atomic             Coordinates (Angstroms)
 Number     Number       Type             X           Y           Z
 ---------------------------------------------------------------------
      1         12           0       -7.107793    0.560477    0.152417
      2          6           0       -4.767388   -1.949343    0.456766
      3          6           0       -4.854166    2.884491    1.184175
      4          6           0       -9.466091    3.056110   -0.462094
      5          6           0       -9.505003   -1.771896   -0.911446
      6          7           0       -5.131956    0.456546    0.786198
      7          6           0       -4.291820   -0.706618    0.814090
      8          6           0       -2.930949   -0.348488    1.253687
      9          6           0       -3.042101    1.035912    1.776839
     10          6           0       -4.326485    1.503615    1.137728
     11          6           0       -2.905740    1.219848    3.209663
     12          6           0       -1.860703   -0.621352    0.016878
     13          6           0       -0.387108   -0.452585    0.598309
     14          6           0        0.552048   -0.529564   -0.561092
     15          8           0        0.338880   -0.850501   -1.724474
     16          8           0        1.815235   -0.306842   -0.250639
     17          7           0       -7.177365    2.628252    0.299001
     18          6           0       -6.083010    3.356929    0.763596
     19          6           0       -6.445384    4.666676    0.792641
     20          6           0       -7.770052    4.801119    0.246838
     21          6           0       -8.228061    3.426772   -0.054291
     22          6           0       -5.612689    5.949842    1.245860
     23          6           0       -8.608406    6.036981    0.183991
     24          6           0       -8.544366    7.218700    0.738664
     25          7           0       -9.124791    0.634941   -0.515912
     26          6           0       -9.930012    1.743083   -0.676390
     27          6           0      -11.174668    1.327889   -1.103507
     28          6           0      -11.227746   -0.051494   -1.297800
     29          6           0       -9.825645   -0.405743   -0.932442
     30          6           0      -12.326040    2.296792   -1.405698
     31          6           0      -12.349918   -0.913878   -1.709480
     32          6           0      -12.305553   -1.110985   -3.185909
     33          7           0       -7.163738   -1.398289   -0.142759
     34          6           0       -8.182060   -2.273599   -0.490087
     35          6           0       -7.673323   -3.689909   -0.509526
     36          6           0       -6.351636   -3.607490   -0.167797
     37          6           0       -6.085585   -2.193844    0.067651
     38          6           0       -8.488049   -4.892388   -0.849687
     39          6           0       -5.163801   -4.337596    0.093199
     40          8           0       -4.917301   -5.554283    0.077347
     41          6           0       -4.056255   -3.214473    0.582472
     42          6           0       -3.557702   -3.689916    1.948519
     43          8           0       -3.925860   -3.092244    2.951344
     44          8           0       -2.679435   -4.691824    1.895063
     45          6           0       -2.382904   -5.123246    3.223551
     46          6           0        2.811474   -0.564234   -1.290226
     47          6           0        4.109084   -0.410019   -0.577386
     48          6           0        5.083114    0.410131   -0.974024
     49          6           0        5.060642    1.355669   -2.209277
     50          6           0        6.477406    0.498366   -0.248132
     51          6           0        7.703249    0.113290   -1.019533
     52          6           0        8.886653   -0.144252   -0.202334
     53          6           0       10.174474   -0.573799   -0.937059
     54          6           0       10.096050   -2.019989   -1.324156
     55          6           0       11.344568   -0.248611   -0.032828
     56          6           0       12.629533   -0.339491   -0.756804
     57          6           0       13.912402   -0.190526    0.055775
     58          6           0       15.326035   -0.171487   -0.577149
     59          6           0       15.636554   -1.588086   -1.163895
     60          6           0       16.440811    0.305003    0.506480
     61          6           0       17.893794    0.517516   -0.099210
     62          6           0       18.719237    1.214499    0.837167
     63          6           0       20.144937    1.268147    0.376103
     64          6           0       20.351007    2.161323   -0.906241
     65          6           0       21.167962    1.760078    1.370970
     66          1           0       -4.114064    3.571354    1.605812
     67          1           0      -10.212025    3.797605   -0.888601
     68          1           0      -10.277934   -2.417178   -1.232714
     69          1           0       -2.762411   -1.150645    2.240470
     70          1           0       -2.404137    1.703650    1.164166
     71          1           0       -1.931186    0.891766    3.472445
     72          1           0       -2.997569    2.252975    3.529954
     73          1           0       -3.666077    0.474888    3.743933
     74          1           0       -1.978840   -1.613727   -0.302310
     75          1           0       -2.075172    0.236932   -0.694277
     76          1           0       -0.061201    0.651504    1.028558
     77          1           0       -0.198552   -1.346221    1.439833
     78          1           0       -6.063113    6.811167    0.659256
     79          1           0       -5.950284    6.079182    2.205705
     80          1           0       -4.421725    5.813128    1.135675
     81          1           0       -9.559505    5.991371   -0.381759
     82          1           0       -9.404742    7.954333    0.733746
     83          1           0       -7.756708    7.660353    1.467817
     84          1           0      -11.954780    3.070636   -2.161657
     85          1           0      -13.170555    1.634122   -1.770781
     86          1           0      -12.686369    2.960164   -0.553447
     87          1           0      -12.348872   -1.993377   -1.261884
     88          1           0      -13.368641   -0.523032   -1.414620
     89          1           0      -13.065679   -1.892328   -3.489581
     90          1           0      -12.769456   -0.265261   -4.061219
     91          1           0      -11.251319   -1.530245   -3.694224
     92          1           0       -8.860985   -4.754242   -1.859475
     93          1           0       -7.837330   -5.831197   -0.727884
     94          1           0       -9.289611   -4.898261   -0.042916
     95          1           0       -3.130793   -3.444601   -0.278372
     96          1           0       -1.721533   -4.338484    3.794225
     97          1           0       -3.245142   -5.340689    3.804779
     98          1           0       -1.843409   -6.240253    3.296709
     99          1           0        2.689727   -1.451300   -1.777782
    100          1           0        2.526967    0.155323   -2.158477
    101          1           0        4.356248   -1.138292    0.117561
    102          1           0        4.207921    1.531831   -2.778908
    103          1           0        5.419903    2.356778   -1.771814
    104          1           0        5.836363    1.209234   -2.959798
    105          1           0        6.517559    1.627479    0.112943
    106          1           0        6.523210   -0.113533    0.687398
    107          1           0        7.441965   -0.951970   -1.452185
    108          1           0        7.827765    0.772373   -2.008427
    109          1           0        9.170679    0.825465    0.347153
    110          1           0        8.636482   -0.722998    0.586112
    111          1           0       10.046227   -0.119354   -1.752169
    112          1           0        9.097931   -2.025346   -1.758224
    113          1           0       10.884092   -2.364720   -1.914692
    114          1           0        9.937562   -2.690287   -0.425662
    115          1           0       11.265683    0.871867    0.351104
    116          1           0       11.648586   -1.238802    0.452487
    117          1           0       12.839478   -1.314396   -1.268220
    118          1           0       12.607379    0.405734   -1.726464
    119          1           0       13.813884    0.760497    0.800353
    120          1           0       13.952847   -1.111768    0.837603
    121          1           0       15.142507    0.484599   -1.512535
    122          1           0       15.757083   -2.474400   -0.376659
    123          1           0       14.907283   -1.877121   -1.763949
    124          1           0       16.642048   -1.682970   -1.664592
    125          1           0       16.118523    1.189437    0.876592
    126          1           0       16.251811   -0.485361    1.227307
    127          1           0       17.987865   -0.473432   -0.338594
    128          1           0       17.597807    1.102331   -1.137847
    129          1           0       18.234567    2.210876    1.044458
    130          1           0       18.577893    0.659056    1.912389
    131          1           0       20.322103    0.200515    0.097496
    132          1           0       20.008315    3.133551   -0.704329
    133          1           0       21.307209    2.145487   -1.236473
    134          1           0       19.515799    1.684860   -1.735737
    135          1           0       21.213184    0.989211    2.126836
    136          1           0       22.232461    2.121876    0.940544
    137          1           0       20.877422    2.848686    1.717333
 ---------------------------------------------------------------------

 SCF Done:  E(RCAM-B3LYP) =  -2933.46852590     A.U. after   16 cycles

 Excitation energies and oscillator strengths:

 Excited State   1:      Singlet-A      1.9756 eV  627.58 nm  f=0.2191  <S**2>=0.000
     240 -> 243        0.24215
     241 -> 242        0.66146
 This state for optimization and/or second-order correction.
 Total Energy, E(TD-HF/TD-DFT) =  -2933.39592421
 Copying the excited state density for this state as the 1-particle RhoCI density.

 The electronic state is 1-A.
 Alpha  occ. eigenvalues --  -46.79744 -19.23913 -19.20975 -19.16732 -19.16090
 Alpha  occ. eigenvalues --  -19.15315 -14.38027 -14.36193 -14.34556 -14.34386
 Alpha  occ. eigenvalues --  -10.35114 -10.33598 -10.30632 -10.28636 -10.27073
 Alpha  occ. eigenvalues --  -10.26852 -10.26551 -10.26128 -10.25975 -10.25353
 Alpha  occ. eigenvalues --  -10.24949 -10.24865 -10.24621 -10.24543 -10.24381
 Alpha  occ. eigenvalues --  -10.24331 -10.24277 -10.24204 -10.24162 -10.23957
 Alpha  occ. eigenvalues --  -10.23748 -10.23373 -10.23176 -10.23110 -10.22950
 Alpha  occ. eigenvalues --  -10.22845 -10.22741 -10.22731 -10.22698 -10.22608
 Alpha  occ. eigenvalues --  -10.22600 -10.22465 -10.22436 -10.22434 -10.22344
 Alpha  occ. eigenvalues --  -10.22121 -10.22070 -10.22003 -10.21954 -10.21921
 Alpha  occ. eigenvalues --  -10.21882 -10.21855 -10.21601 -10.21538 -10.21489
 Alpha  occ. eigenvalues --  -10.21286 -10.21178 -10.20996 -10.20970 -10.20433
 Alpha  occ. eigenvalues --  -10.20241 -10.20181 -10.19992 -10.19745 -10.19713
 Alpha  occ. eigenvalues --   -3.08341  -1.83288  -1.82799  -1.82759  -1.14640
 Alpha  occ. eigenvalues --   -1.13398  -1.04816  -1.04541  -1.02274  -0.99257
 Alpha  occ. eigenvalues --   -0.98565  -0.98011  -0.97068  -0.87770  -0.87378
 Alpha  occ. eigenvalues --   -0.85608  -0.85214  -0.84931  -0.84230  -0.83538
 Alpha  occ. eigenvalues --   -0.83234  -0.83035  -0.82377  -0.82028  -0.81526
 Alpha  occ. eigenvalues --   -0.80733  -0.79240  -0.78575  -0.78209  -0.77375
 Alpha  occ. eigenvalues --   -0.77139  -0.76442  -0.76085  -0.75759  -0.73945
 Alpha  occ. eigenvalues --   -0.72206  -0.71685  -0.71572  -0.71042  -0.70848
 Alpha  occ. eigenvalues --   -0.70387  -0.70182  -0.69961  -0.69477  -0.68185
 Alpha  occ. eigenvalues --   -0.67531  -0.66332  -0.64638  -0.64366  -0.63923
 Alpha  occ. eigenvalues --   -0.62245  -0.62045  -0.61075  -0.60996  -0.60364
 Alpha  occ. eigenvalues --   -0.60153  -0.59306  -0.58900  -0.58671  -0.58244
 Alpha  occ. eigenvalues --   -0.56828  -0.56601  -0.56197  -0.55473  -0.54834
 Alpha  occ. eigenvalues --   -0.54419  -0.53747  -0.53284  -0.52583  -0.52437
 Alpha  occ. eigenvalues --   -0.51942  -0.51633  -0.51424  -0.51174  -0.51062
 Alpha  occ. eigenvalues --   -0.50950  -0.50363  -0.50146  -0.49906  -0.49505
 Alpha  occ. eigenvalues --   -0.49240  -0.48983  -0.48616  -0.48442  -0.48046
 Alpha  occ. eigenvalues --   -0.47777  -0.47503  -0.47176  -0.46712  -0.46506
 Alpha  occ. eigenvalues --   -0.46408  -0.46329  -0.46279  -0.46104  -0.45827
 Alpha  occ. eigenvalues --   -0.45691  -0.45562  -0.45261  -0.45078  -0.45015
 Alpha  occ. eigenvalues --   -0.44717  -0.44572  -0.44194  -0.43829  -0.43679
 Alpha  occ. eigenvalues --   -0.43128  -0.42817  -0.42613  -0.42417  -0.42386
 Alpha  occ. eigenvalues --   -0.42211  -0.41819  -0.41775  -0.41683  -0.41526
 Alpha  occ. eigenvalues --   -0.41441  -0.41379  -0.41277  -0.41031  -0.40973
 Alpha  occ. eigenvalues --   -0.40542  -0.40507  -0.40361  -0.40117  -0.39947
 Alpha  occ. eigenvalues --   -0.39636  -0.39352  -0.39182  -0.39105  -0.38964
 Alpha  occ. eigenvalues --   -0.38797  -0.38466  -0.38132  -0.37960  -0.37838
 Alpha  occ. eigenvalues --   -0.37652  -0.37518  -0.37188  -0.36937  -0.36861
 Alpha  occ. eigenvalues --   -0.36787  -0.36389  -0.36256  -0.36156  -0.35792
 Alpha  occ. eigenvalues --   -0.35411  -0.35343  -0.35098  -0.34862  -0.34503
 Alpha  occ. eigenvalues --   -0.34246  -0.34118  -0.33858  -0.33673  -0.33429
 Alpha  occ. eigenvalues --   -0.33189  -0.32885  -0.32690  -0.32658  -0.32324
 Alpha  occ. eigenvalues --   -0.32005  -0.31869  -0.31347  -0.30670  -0.30566
 Alpha  occ. eigenvalues --   -0.30129  -0.29720  -0.29579  -0.28306  -0.27714
 Alpha  occ. eigenvalues --   -0.27441  -0.26670  -0.25549  -0.24143  -0.21605
 Alpha  occ. eigenvalues --   -0.19876
 Alpha virt. eigenvalues --   -0.07092  -0.04257  -0.00720   0.02243   0.03227
 Alpha virt. eigenvalues --    0.03593   0.04429   0.04771   0.05397   0.05889
 Alpha virt. eigenvalues --    0.06099   0.08316   0.08892   0.09386   0.09748

 Mulliken charges:
               1
     1  Mg   0.811384
     2  C    0.126982
     3  C   -0.207313
     4  C   -0.168040
     5  C   -0.155932
     6  N   -0.615542
     7  C    0.317058
     8  C   -0.198605
     9  C   -0.101091
    10  C    0.290262
    11  C   -0.297751
    12  C   -0.149423
    13  C   -0.261788
    14  C    0.606060
    15  O   -0.497974
    16  O   -0.460077
    17  N   -0.761786
    18  C    0.373150
    19  C   -0.009034
    20  C   -0.018480
    21  C    0.355506
    22  C   -0.365770
    23  C   -0.056269
    24  C   -0.267744
    25  N   -0.690951
    26  C    0.317562
    27  C   -0.003274
    28  C    0.074987
    29  C    0.304717
    30  C   -0.373737
    31  C   -0.264669
    32  C   -0.282968
    33  N   -0.728263
    34  C    0.252415
    35  C   -0.018053
    36  C    0.124308
    37  C    0.277640
    38  C   -0.376973
    39  C    0.313689
    40  O   -0.477844
    41  C   -0.370138
    42  C    0.648494
    43  O   -0.484768
    44  O   -0.411736
    45  C   -0.091859
    46  C    0.009593
    47  C   -0.130450
    48  C    0.134674
    49  C   -0.369884
    50  C   -0.225930
    51  C   -0.163180
    52  C   -0.178508
    53  C   -0.018336
    54  C   -0.322692
    55  C   -0.149845
    56  C   -0.192983
    57  C   -0.151784
    58  C   -0.071918
    59  C   -0.311733
    60  C   -0.193093
    61  C   -0.161557
    62  C   -0.147594
    63  C   -0.049224
    64  C   -0.300614
    65  C   -0.295898
    66  H    0.073032
    67  H    0.088147
    68  H    0.079530
    69  H    0.098860
    70  H    0.102108
    71  H    0.120771
    72  H    0.113971
    73  H    0.116112
    74  H    0.135657
    75  H    0.124193
    76  H    0.121419
    77  H    0.127842
    78  H    0.126163
    79  H    0.144462
    80  H    0.097177
    81  H    0.084353
    82  H    0.096568
    83  H    0.088000
    84  H    0.113541
    85  H    0.102903
    86  H    0.113900
    87  H    0.110678
    88  H    0.117731
    89  H    0.098080
    90  H    0.074017
    91  H    0.095420
    92  H    0.134745
    93  H    0.141863
    94  H    0.127139
    95  H    0.124542
    96  H    0.116120
    97  H    0.149362
    98  H    0.100249
    99  H    0.140527
   100  H    0.112427
   101  H    0.091038
   102  H    0.120611
   103  H    0.101152
   104  H    0.124271
   105  H    0.087602
   106  H    0.093563
   107  H    0.082080
   108  H    0.079130
   109  H    0.068183
   110  H    0.100795
   111  H    0.090774
   112  H    0.098291
   113  H    0.112437
   114  H    0.091282
   115  H    0.094016
   116  H    0.104071
   117  H    0.092383
   118  H    0.048448
   119  H    0.058499
   120  H    0.057994
   121  H    0.076633
   122  H    0.073156
   123  H    0.115974
   124  H    0.097774
   125  H    0.099053
   126  H    0.097164
   127  H    0.113612
   128  H    0.080533
   129  H    0.089668
   130  H    0.070030
   131  H    0.085074
   132  H    0.109902
   133  H    0.114552
   134  H    0.060947
   135  H    0.105198
   136  H    0.081742
   137  H    0.085348
 Sum of Mulliken charges =  -0.00000

 Dipole moment (field-independent basis, Debye):
    X=              1.2314    Y=              2.3909    Z=              1.1502  Tot=              2.9250
 Quadrupole moment (field-independent basis, Debye-Ang):
   XX=           -350.0189   YY=           -398.4289   ZZ=           -398.0956
   XY=             -7.9984   XZ=              7.1099   YZ=             -2.3396

 Normal termination of Gaussian 16 at Sun Sep 22 02:30:44 2019.
