 Gaussian 09, Revision D.01,
 Gaussian 09:  ES64L-G09RevD.01 24-Apr-2013

 -------------------------------------
 # td=(NStates=1) CAM-B3LYP/6-31G(d,p)
 -------------------------------------

 --
 TD
 --
 Symbolic Z-matrix:
 Charge =  0 Multiplicity = 1

                         Standard orientation:
 ---------------------------------------------------------------------
 Center     Atomic      Atomic             Coordinates (Angstroms)
 Number     Number       Type             X           Y           Z
 ---------------------------------------------------------------------
      1         12           0       -7.041778    0.648439    0.187327
      2          6           0       -4.879543   -2.040786    0.611012
      3          6           0       -4.848466    2.733700    1.145585
      4          6           0       -9.390639    3.103196   -0.385284
      5          6           0       -9.464334   -1.751433   -0.893808
      6          7           0       -5.103869    0.343837    0.739963
      7          6           0       -4.346239   -0.783313    0.871290
      8          6           0       -2.878607   -0.432912    1.227314
      9          6           0       -3.025727    1.062186    1.635958
     10          6           0       -4.410140    1.495160    1.081907
     11          6           0       -2.990839    1.220514    3.128085
     12          6           0       -1.907272   -0.635760   -0.000992
     13          6           0       -0.527531   -0.401685    0.393668
     14          6           0        0.474583   -0.621317   -0.681291
     15          8           0        0.260255   -0.959679   -1.815831
     16          8           0        1.774570   -0.453053   -0.220426
     17          7           0       -7.042252    2.621596    0.318647
     18          6           0       -6.041214    3.376706    0.703652
     19          6           0       -6.416191    4.824887    0.707033
     20          6           0       -7.704609    4.929334    0.408771
     21          6           0       -8.114540    3.528075    0.118259
     22          6           0       -5.410387    5.852677    1.142553
     23          6           0       -8.558535    6.054643    0.148825
     24          6           0       -8.380185    7.190967    0.823874
     25          7           0       -9.129590    0.615307   -0.499209
     26          6           0       -9.890688    1.779502   -0.623254
     27          6           0      -11.268400    1.417554   -0.977272
     28          6           0      -11.223092    0.095058   -1.132400
     29          6           0       -9.901887   -0.411689   -0.870270
     30          6           0      -12.247607    2.548137   -1.463238
     31          6           0      -12.334657   -0.739398   -1.662925
     32          6           0      -12.281935   -1.007001   -3.174725
     33          7           0       -7.236503   -1.337338   -0.070966
     34          6           0       -8.182594   -2.210790   -0.567934
     35          6           0       -7.775631   -3.610448   -0.552371
     36          6           0       -6.497499   -3.504308   -0.119804
     37          6           0       -6.170911   -2.162444    0.205549
     38          6           0       -8.582983   -4.741518   -0.959284
     39          6           0       -5.359390   -4.425431    0.172794
     40          8           0       -5.289704   -5.636934    0.136099
     41          6           0       -4.132193   -3.311057    0.592501
     42          6           0       -3.617524   -3.695551    1.956328
     43          8           0       -3.848610   -3.119702    2.968816
     44          8           0       -2.884144   -4.858484    1.816523
     45          6           0       -2.417881   -5.322947    3.048683
     46          6           0        2.673632   -0.549007   -1.328328
     47          6           0        4.054565   -0.390591   -0.605492
     48          6           0        5.060987    0.351614   -1.100264
     49          6           0        5.021582    1.179725   -2.239485
     50          6           0        6.367119    0.426416   -0.319575
     51          6           0        7.578086   -0.198596   -1.110640
     52          6           0        8.828584   -0.152884   -0.284209
     53          6           0       10.225940   -0.578162   -1.000600
     54          6           0       10.251159   -2.043158   -1.386665
     55          6           0       11.392969   -0.355839   -0.009944
     56          6           0       12.862252   -0.535444   -0.675417
     57          6           0       14.029640   -0.183865    0.186919
     58          6           0       15.346571   -0.102474   -0.518809
     59          6           0       15.813019   -1.452277   -1.074134
     60          6           0       16.390618    0.413593    0.393363
     61          6           0       17.787764    0.701149   -0.137322
     62          6           0       18.854181    1.254252    0.885053
     63          6           0       20.313174    1.294840    0.434501
     64          6           0       20.360966    2.181508   -0.865785
     65          6           0       21.263876    1.712752    1.469251
     66          1           0       -3.953539    3.315825    1.467199
     67          1           0       -9.945072    3.906638   -0.564108
     68          1           0      -10.227256   -2.316072   -1.352965
     69          1           0       -2.561043   -1.068488    1.892601
     70          1           0       -2.249884    1.860613    1.211429
     71          1           0       -2.120074    0.745542    3.689393
     72          1           0       -3.135870    2.198194    3.590440
     73          1           0       -3.730565    0.651023    3.602424
     74          1           0       -2.164947   -1.637906   -0.365533
     75          1           0       -2.151884   -0.058851   -0.876295
     76          1           0       -0.281483    0.587815    1.045708
     77          1           0       -0.228200   -1.167257    1.238046
     78          1           0       -5.783849    6.681858    0.732672
     79          1           0       -5.434529    6.299861    2.209398
     80          1           0       -4.381319    5.616191    1.257272
     81          1           0       -9.413309    6.006887   -0.522903
     82          1           0       -8.959188    8.112269    0.683702
     83          1           0       -7.538830    7.357200    1.499787
     84          1           0      -11.760348    3.230991   -2.245838
     85          1           0      -13.309380    2.159236   -1.469943
     86          1           0      -12.313045    3.268942   -0.684120
     87          1           0      -12.611778   -1.600671   -1.164584
     88          1           0      -13.271525   -0.101596   -1.437058
     89          1           0      -13.174284   -1.815112   -3.530350
     90          1           0      -12.576758   -0.131316   -3.808900
     91          1           0      -11.243827   -1.459758   -3.410521
     92          1           0       -8.897332   -4.572546   -1.964187
     93          1           0       -7.799741   -5.529547   -0.969684
     94          1           0       -9.399636   -4.824123   -0.233468
     95          1           0       -3.375539   -3.532846   -0.315968
     96          1           0       -1.629224   -4.861739    3.633156
     97          1           0       -3.305750   -5.449613    3.904339
     98          1           0       -1.989517   -6.360892    2.818520
     99          1           0        2.823242   -1.493599   -1.897821
    100          1           0        2.335131    0.241046   -2.049905
    101          1           0        4.265718   -0.987059    0.215299
    102          1           0        4.000068    1.284464   -2.728286
    103          1           0        5.326658    2.091181   -2.287284
    104          1           0        5.680890    0.759207   -2.953749
    105          1           0        6.650829    1.560915    0.044855
    106          1           0        6.276262    0.037622    0.700679
    107          1           0        7.340581   -1.326926   -1.536984
    108          1           0        7.665675    0.503356   -1.997572
    109          1           0        9.208809    0.764253    0.310403
    110          1           0        8.555539   -0.831381    0.340249
    111          1           0       10.217053   -0.006969   -1.807173
    112          1           0        9.499408   -2.203525   -2.080973
    113          1           0       11.271136   -2.176317   -1.766942
    114          1           0       10.318496   -2.875594   -0.544077
    115          1           0       11.360345    0.560774    0.682623
    116          1           0       11.349189   -1.088637    0.995176
    117          1           0       12.952197   -1.628155   -1.266496
    118          1           0       12.520936    0.313429   -1.610295
    119          1           0       13.937779    0.727129    0.742255
    120          1           0       14.150980   -0.956899    1.055733
    121          1           0       15.214996    0.688450   -1.387416
    122          1           0       16.017415   -2.081065   -0.273744
    123          1           0       15.090334   -1.783680   -1.762586
    124          1           0       16.657928   -1.421856   -1.678748
    125          1           0       16.069373    1.311594    1.092621
    126          1           0       16.210275   -0.324005    1.226907
    127          1           0       18.066514   -0.344115   -0.449925
    128          1           0       17.771020    1.436878   -0.981384
    129          1           0       18.414295    2.254527    1.160555
    130          1           0       18.890469    0.794699    1.867781
    131          1           0       20.580676    0.317943    0.196244
    132          1           0       20.107128    3.161955   -0.713458
    133          1           0       21.402191    2.247098   -1.195792
    134          1           0       19.756527    1.876148   -1.850157
    135          1           0       21.221832    1.045297    2.311111
    136          1           0       22.255875    1.846060    1.084862
    137          1           0       20.844272    2.676370    1.858092
 ---------------------------------------------------------------------

 SCF Done:  E(RCAM-B3LYP) =  -2932.68205028     A.U. after   16 cycles

 Excitation energies and oscillator strengths:

 Excited State   1:      Singlet-A      2.0516 eV  604.34 nm  f=0.2827  <S**2>=0.000
     240 -> 243        0.24884
     241 -> 242        0.65789
 This state for optimization and/or second-order correction.
 Total Energy, E(TD-HF/TD-KS) =  -2932.60665696
 Copying the excited state density for this state as the 1-particle RhoCI density.

 The electronic state is 1-A.
 Alpha  occ. eigenvalues --  -46.84252 -19.26891 -19.25867 -19.22273 -19.22188
 Alpha  occ. eigenvalues --  -19.21655 -14.41228 -14.40508 -14.39517 -14.38771
 Alpha  occ. eigenvalues --  -10.39610 -10.39266 -10.36661 -10.31993 -10.31700
 Alpha  occ. eigenvalues --  -10.31203 -10.30431 -10.30172 -10.29795 -10.29640
 Alpha  occ. eigenvalues --  -10.29353 -10.29008 -10.28908 -10.28907 -10.28846
 Alpha  occ. eigenvalues --  -10.28503 -10.27992 -10.27883 -10.27660 -10.27494
 Alpha  occ. eigenvalues --  -10.27399 -10.27369 -10.27337 -10.27270 -10.27177
 Alpha  occ. eigenvalues --  -10.27149 -10.27038 -10.26820 -10.26767 -10.26755
 Alpha  occ. eigenvalues --  -10.26616 -10.26069 -10.25956 -10.25896 -10.25862
 Alpha  occ. eigenvalues --  -10.25801 -10.25794 -10.25562 -10.25527 -10.25520
 Alpha  occ. eigenvalues --  -10.25493 -10.25408 -10.25371 -10.25156 -10.25090
 Alpha  occ. eigenvalues --  -10.25083 -10.24948 -10.24896 -10.24738 -10.24289
 Alpha  occ. eigenvalues --  -10.24138 -10.24006 -10.23961 -10.23264 -10.22667
 Alpha  occ. eigenvalues --   -3.13395  -1.88091  -1.87624  -1.87601  -1.19018
 Alpha  occ. eigenvalues --   -1.18196  -1.12202  -1.11327  -1.09570  -1.04750
 Alpha  occ. eigenvalues --   -1.04139  -1.02942  -1.02174  -0.92990  -0.91343
 Alpha  occ. eigenvalues --   -0.91237  -0.91074  -0.90755  -0.89402  -0.89165
 Alpha  occ. eigenvalues --   -0.88897  -0.88144  -0.87854  -0.87406  -0.86082
 Alpha  occ. eigenvalues --   -0.84965  -0.84459  -0.83577  -0.82898  -0.82531
 Alpha  occ. eigenvalues --   -0.81510  -0.81037  -0.80601  -0.80039  -0.79203
 Alpha  occ. eigenvalues --   -0.78830  -0.76878  -0.76582  -0.76244  -0.75776
 Alpha  occ. eigenvalues --   -0.75624  -0.75260  -0.74272  -0.73313  -0.72541
 Alpha  occ. eigenvalues --   -0.71666  -0.70425  -0.69201  -0.68884  -0.68396
 Alpha  occ. eigenvalues --   -0.67670  -0.66503  -0.66082  -0.65752  -0.64343
 Alpha  occ. eigenvalues --   -0.64223  -0.63453  -0.63099  -0.62515  -0.62363
 Alpha  occ. eigenvalues --   -0.61998  -0.61240  -0.60813  -0.60224  -0.59699
 Alpha  occ. eigenvalues --   -0.59068  -0.58827  -0.57967  -0.57490  -0.56728
 Alpha  occ. eigenvalues --   -0.56208  -0.55882  -0.55471  -0.54863  -0.54511
 Alpha  occ. eigenvalues --   -0.54487  -0.54307  -0.53981  -0.53512  -0.53319
 Alpha  occ. eigenvalues --   -0.52825  -0.52743  -0.52503  -0.52351  -0.52169
 Alpha  occ. eigenvalues --   -0.51865  -0.51508  -0.51321  -0.50865  -0.50787
 Alpha  occ. eigenvalues --   -0.50570  -0.50356  -0.50239  -0.50002  -0.49608
 Alpha  occ. eigenvalues --   -0.49558  -0.49099  -0.48780  -0.48700  -0.48679
 Alpha  occ. eigenvalues --   -0.48329  -0.48044  -0.47800  -0.47633  -0.47422
 Alpha  occ. eigenvalues --   -0.47406  -0.46874  -0.46623  -0.46374  -0.46267
 Alpha  occ. eigenvalues --   -0.45793  -0.45521  -0.45272  -0.45144  -0.45068
 Alpha  occ. eigenvalues --   -0.44738  -0.44662  -0.44613  -0.44469  -0.44464
 Alpha  occ. eigenvalues --   -0.44326  -0.44169  -0.44042  -0.43774  -0.43505
 Alpha  occ. eigenvalues --   -0.43134  -0.43097  -0.42707  -0.42691  -0.42549
 Alpha  occ. eigenvalues --   -0.42307  -0.42108  -0.42003  -0.41644  -0.41455
 Alpha  occ. eigenvalues --   -0.41423  -0.41405  -0.41125  -0.40767  -0.40570
 Alpha  occ. eigenvalues --   -0.40295  -0.40094  -0.39901  -0.39390  -0.38809
 Alpha  occ. eigenvalues --   -0.38672  -0.38417  -0.38059  -0.37925  -0.37885
 Alpha  occ. eigenvalues --   -0.37586  -0.37261  -0.37158  -0.37113  -0.36456
 Alpha  occ. eigenvalues --   -0.36373  -0.36250  -0.36025  -0.35949  -0.35837
 Alpha  occ. eigenvalues --   -0.35380  -0.34795  -0.34539  -0.34300  -0.33373
 Alpha  occ. eigenvalues --   -0.33000  -0.32838  -0.32177  -0.31541  -0.30269
 Alpha  occ. eigenvalues --   -0.29953  -0.28747  -0.28634  -0.28234  -0.23498
 Alpha  occ. eigenvalues --   -0.20791
 Alpha virt. eigenvalues --   -0.06011  -0.02891   0.01437   0.03760   0.05411
 Alpha virt. eigenvalues --    0.05475   0.06219   0.06449   0.07262   0.07726
 Alpha virt. eigenvalues --    0.08362   0.10886   0.11458   0.11619   0.11970

 Mulliken charges:
               1
     1  Mg   0.818167
     2  C    0.057238
     3  C   -0.202661
     4  C   -0.130165
     5  C   -0.165853
     6  N   -0.682408
     7  C    0.307525
     8  C   -0.113749
     9  C   -0.144428
    10  C    0.347507
    11  C   -0.318456
    12  C   -0.177026
    13  C   -0.271951
    14  C    0.628077
    15  O   -0.465075
    16  O   -0.489491
    17  N   -0.685181
    18  C    0.328755
    19  C    0.018025
    20  C    0.052781
    21  C    0.206231
    22  C   -0.366568
    23  C   -0.070388
    24  C   -0.246954
    25  N   -0.664758
    26  C    0.246577
    27  C    0.040891
    28  C   -0.006866
    29  C    0.311482
    30  C   -0.369428
    31  C   -0.247960
    32  C   -0.288177
    33  N   -0.721570
    34  C    0.252924
    35  C    0.054223
    36  C   -0.040355
    37  C    0.362174
    38  C   -0.370726
    39  C    0.374872
    40  O   -0.437161
    41  C   -0.381712
    42  C    0.656435
    43  O   -0.449715
    44  O   -0.443463
    45  C   -0.090253
    46  C    0.021495
    47  C   -0.156043
    48  C    0.151127
    49  C   -0.366894
    50  C   -0.233253
    51  C   -0.190101
    52  C   -0.164114
    53  C   -0.052469
    54  C   -0.300069
    55  C   -0.181847
    56  C   -0.149537
    57  C   -0.164805
    58  C   -0.053539
    59  C   -0.312240
    60  C   -0.171718
    61  C   -0.169414
    62  C   -0.178349
    63  C   -0.045814
    64  C   -0.321898
    65  C   -0.310040
    66  H    0.070611
    67  H    0.052248
    68  H    0.083648
    69  H    0.110125
    70  H    0.088933
    71  H    0.096136
    72  H    0.109891
    73  H    0.133101
    74  H    0.117355
    75  H    0.126807
    76  H    0.135720
    77  H    0.131676
    78  H    0.123227
    79  H    0.100740
    80  H    0.125787
    81  H    0.109086
    82  H    0.104681
    83  H    0.103110
    84  H    0.127742
    85  H    0.114653
    86  H    0.126122
    87  H    0.115252
    88  H    0.083162
    89  H    0.065531
    90  H    0.116628
    91  H    0.101465
    92  H    0.135340
    93  H    0.146216
    94  H    0.139412
    95  H    0.158473
    96  H    0.124103
    97  H    0.100529
    98  H    0.113784
    99  H    0.131289
   100  H    0.118284
   101  H    0.091343
   102  H    0.091455
   103  H    0.126937
   104  H    0.122428
   105  H    0.077022
   106  H    0.097670
   107  H    0.086168
   108  H    0.085473
   109  H    0.080191
   110  H    0.113295
   111  H    0.100538
   112  H    0.103183
   113  H    0.096021
   114  H    0.089960
   115  H    0.084252
   116  H    0.052589
   117  H    0.085878
   118  H    0.050961
   119  H    0.107082
   120  H    0.078555
   121  H    0.064709
   122  H    0.105251
   123  H    0.104672
   124  H    0.111330
   125  H    0.056409
   126  H    0.076318
   127  H    0.091336
   128  H    0.101168
   129  H    0.079552
   130  H    0.081379
   131  H    0.097249
   132  H    0.113283
   133  H    0.088581
   134  H    0.087383
   135  H    0.106127
   136  H    0.107730
   137  H    0.093791
 Sum of Mulliken charges =   0.00000

 Dipole moment (field-independent basis, Debye):
    X=              1.0740    Y=              4.6154    Z=              0.5584  Tot=              4.7715
 Quadrupole moment (field-independent basis, Debye-Ang):
   XX=           -349.9037   YY=           -388.2070   ZZ=           -397.2427
   XY=            -28.0635   XZ=             10.7539   YZ=             -0.2152

 Normal termination of Gaussian 09 at Fri Jul  5 10:55:54 2019.
