 Gaussian 09, Revision D.01,
 Gaussian 09:  ES64L-G09RevD.01 24-Apr-2013

 -------------------------------------
 # td=(NStates=1) CAM-B3LYP/6-31G(d,p)
 -------------------------------------

 --
 TD
 --
 Symbolic Z-matrix:
 Charge =  0 Multiplicity = 1

                         Standard orientation:
 ---------------------------------------------------------------------
 Center     Atomic      Atomic             Coordinates (Angstroms)
 Number     Number       Type             X           Y           Z
 ---------------------------------------------------------------------
      1         12           0       -7.177690    0.584294    0.220487
      2          6           0       -4.879781   -1.883939    0.464192
      3          6           0       -4.817708    2.859172    1.145880
      4          6           0       -9.492404    3.067847   -0.423189
      5          6           0       -9.537823   -1.742390   -0.838421
      6          7           0       -5.092991    0.486219    0.703977
      7          6           0       -4.357172   -0.672985    0.666652
      8          6           0       -2.866763   -0.373645    1.132353
      9          6           0       -2.953482    1.161908    1.554736
     10          6           0       -4.408182    1.500249    1.076873
     11          6           0       -2.862527    1.343009    3.004259
     12          6           0       -1.852606   -0.550267    0.005997
     13          6           0       -0.407104   -0.413064    0.490109
     14          6           0        0.452614   -0.691351   -0.642281
     15          8           0        0.321973   -1.111341   -1.756345
     16          8           0        1.804907   -0.343582   -0.279603
     17          7           0       -7.185986    2.622155    0.219043
     18          6           0       -6.084243    3.329840    0.669219
     19          6           0       -6.435173    4.757636    0.768254
     20          6           0       -7.734303    4.883086    0.282809
     21          6           0       -8.239802    3.443060   -0.074488
     22          6           0       -5.646508    5.910427    1.106901
     23          6           0       -8.630813    6.081732    0.035646
     24          6           0       -8.537152    7.249777    0.783036
     25          7           0       -9.140791    0.704317   -0.478648
     26          6           0       -9.934003    1.726349   -0.577305
     27          6           0      -11.295664    1.404849   -1.021768
     28          6           0      -11.309657    0.034407   -1.136442
     29          6           0       -9.980596   -0.431709   -0.835933
     30          6           0      -12.481961    2.403641   -1.211113
     31          6           0      -12.354804   -0.876717   -1.665558
     32          6           0      -12.294762   -1.227062   -3.155636
     33          7           0       -7.243110   -1.436640   -0.068413
     34          6           0       -8.341179   -2.246675   -0.387685
     35          6           0       -7.878071   -3.624094   -0.394048
     36          6           0       -6.484361   -3.551120   -0.116081
     37          6           0       -6.167114   -2.173248    0.203371
     38          6           0       -8.662015   -4.798872   -0.623315
     39          6           0       -5.323775   -4.437159    0.185810
     40          8           0       -5.070334   -5.547628    0.189290
     41          6           0       -4.173956   -3.194219    0.469482
     42          6           0       -3.449656   -3.628758    1.774022
     43          8           0       -3.586463   -3.014389    2.846634
     44          8           0       -2.753339   -4.739224    1.742494
     45          6           0       -2.190459   -5.226085    2.903442
     46          6           0        2.855735   -0.600641   -1.242680
     47          6           0        4.146577   -0.399631   -0.554532
     48          6           0        5.175725    0.371521   -0.934072
     49          6           0        5.107083    1.352406   -2.180771
     50          6           0        6.477180    0.420601   -0.240986
     51          6           0        7.677856   -0.219458   -1.005509
     52          6           0        8.849882   -0.216011   -0.155506
     53          6           0       10.179505   -0.629497   -0.911536
     54          6           0       10.167053   -2.121446   -1.382797
     55          6           0       11.453272   -0.379075    0.050585
     56          6           0       12.767255   -0.521988   -0.684563
     57          6           0       14.038505   -0.168354    0.218956
     58          6           0       15.398287   -0.265562   -0.506326
     59          6           0       15.685028   -1.757119   -0.633586
     60          6           0       16.422590    0.406678    0.408613
     61          6           0       17.840227    0.556060   -0.171424
     62          6           0       18.736457    1.369056    0.870333
     63          6           0       20.228511    1.382026    0.286537
     64          6           0       20.413036    2.202964   -1.023011
     65          6           0       21.183251    2.019932    1.362627
     66          1           0       -4.087964    3.544801    1.258266
     67          1           0      -10.138290    3.820609   -0.502191
     68          1           0      -10.294066   -2.394106   -1.151758
     69          1           0       -2.679764   -1.032326    2.047156
     70          1           0       -2.273412    1.591565    0.983147
     71          1           0       -1.789535    1.278737    3.458541
     72          1           0       -3.316736    2.297393    3.325067
     73          1           0       -3.393074    0.596445    3.613537
     74          1           0       -1.892213   -1.555244   -0.521763
     75          1           0       -1.807544    0.117638   -0.859535
     76          1           0       -0.204953    0.577752    0.679214
     77          1           0       -0.422096   -1.252911    1.405299
     78          1           0       -5.985980    6.816569    0.443769
     79          1           0       -5.660843    6.271959    2.258975
     80          1           0       -4.523168    5.779840    0.781437
     81          1           0       -9.278693    5.920312   -0.994630
     82          1           0       -9.051162    8.036607    0.304877
     83          1           0       -7.934101    7.382056    1.566917
     84          1           0      -12.496686    3.083218   -1.935637
     85          1           0      -13.279328    1.749882   -1.293681
     86          1           0      -12.576154    2.914127   -0.190473
     87          1           0      -12.426711   -1.773699   -1.247689
     88          1           0      -13.238662   -0.468705   -1.363800
     89          1           0      -12.954008   -2.312310   -3.340985
     90          1           0      -12.620315   -0.378034   -3.694925
     91          1           0      -10.990029   -1.448021   -3.246984
     92          1           0       -9.366051   -4.637804   -1.680764
     93          1           0       -7.977401   -5.746429   -0.923627
     94          1           0       -9.327474   -5.146562    0.284750
     95          1           0       -3.431584   -3.490964   -0.211341
     96          1           0       -1.249403   -4.552198    3.211379
     97          1           0       -2.931534   -5.370121    3.742533
     98          1           0       -1.696789   -6.053008    2.531038
     99          1           0        2.659851   -1.573866   -1.637283
    100          1           0        2.826554    0.034522   -2.025285
    101          1           0        4.015846   -0.863249    0.261713
    102          1           0        4.041572    1.205687   -2.590413
    103          1           0        5.459101    2.317102   -1.854408
    104          1           0        5.711449    0.998284   -3.183482
    105          1           0        6.636292    1.425613    0.061061
    106          1           0        6.310095   -0.273518    0.593772
    107          1           0        7.590735   -1.228498   -1.422805
    108          1           0        7.811220    0.439037   -1.715112
    109          1           0        9.101967    0.756406    0.201521
    110          1           0        8.687195   -0.875167    0.665330
    111          1           0       10.303055   -0.040047   -1.796846
    112          1           0        9.310744   -2.221587   -2.156328
    113          1           0       11.144554   -2.104152   -1.729475
    114          1           0        9.822476   -2.688221   -0.520324
    115          1           0       11.325928    0.594241    0.501032
    116          1           0       11.298866   -1.189726    0.700164
    117          1           0       12.870713   -1.699158   -1.040782
    118          1           0       12.987556    0.116099   -1.675258
    119          1           0       13.896679    0.989678    0.494357
    120          1           0       14.240182   -0.877163    0.984706
    121          1           0       15.534860    0.039429   -1.488867
    122          1           0       15.880133   -2.295606    0.373803
    123          1           0       15.046203   -2.270306   -1.287483
    124          1           0       16.700518   -1.854452   -1.049646
    125          1           0       16.349576    1.473866    0.601946
    126          1           0       16.664865   -0.094150    1.439242
    127          1           0       18.526792   -0.282382   -0.406070
    128          1           0       17.844995    1.249087   -1.063133
    129          1           0       18.227616    2.460458    0.700508
    130          1           0       18.673754    0.954087    1.804248
    131          1           0       20.522344    0.349345    0.066462
    132          1           0       19.879873    3.273908   -0.967793
    133          1           0       21.352931    2.338635   -1.474530
    134          1           0       19.857089    1.749973   -1.890573
    135          1           0       21.148664    1.491630    2.273553
    136          1           0       22.087086    1.989941    0.776344
    137          1           0       20.843982    3.126010    1.381912
 ---------------------------------------------------------------------

 SCF Done:  E(RCAM-B3LYP) =  -2932.63144741     A.U. after   17 cycles

 Excitation energies and oscillator strengths:

 Excited State   1:      Singlet-A      2.2619 eV  548.14 nm  f=0.1999  <S**2>=0.000
     240 -> 242        0.18376
     240 -> 243       -0.24757
     241 -> 242        0.60556
     241 -> 243        0.16949
 This state for optimization and/or second-order correction.
 Total Energy, E(TD-HF/TD-KS) =  -2932.54832438
 Copying the excited state density for this state as the 1-particle RhoCI density.

 The electronic state is 1-A.
 Alpha  occ. eigenvalues --  -46.84820 -19.26329 -19.23110 -19.21988 -19.21910
 Alpha  occ. eigenvalues --  -19.18730 -14.41978 -14.39747 -14.39460 -14.39312
 Alpha  occ. eigenvalues --  -10.39234 -10.38229 -10.35628 -10.31572 -10.31416
 Alpha  occ. eigenvalues --  -10.31406 -10.30240 -10.29988 -10.29957 -10.29077
 Alpha  occ. eigenvalues --  -10.28815 -10.28713 -10.28606 -10.28439 -10.28423
 Alpha  occ. eigenvalues --  -10.28415 -10.28287 -10.28271 -10.28201 -10.27882
 Alpha  occ. eigenvalues --  -10.27811 -10.27514 -10.27513 -10.27220 -10.27171
 Alpha  occ. eigenvalues --  -10.27073 -10.26920 -10.26749 -10.26656 -10.26605
 Alpha  occ. eigenvalues --  -10.26589 -10.26401 -10.26371 -10.26011 -10.25896
 Alpha  occ. eigenvalues --  -10.25635 -10.25623 -10.25560 -10.25416 -10.25400
 Alpha  occ. eigenvalues --  -10.25377 -10.25230 -10.25215 -10.25190 -10.25100
 Alpha  occ. eigenvalues --  -10.24812 -10.24803 -10.24596 -10.24378 -10.24215
 Alpha  occ. eigenvalues --  -10.24038 -10.23980 -10.23414 -10.23386 -10.23378
 Alpha  occ. eigenvalues --   -3.13788  -1.88502  -1.88029  -1.87950  -1.19594
 Alpha  occ. eigenvalues --   -1.16586  -1.16258  -1.07518  -1.06870  -1.05708
 Alpha  occ. eigenvalues --   -1.03612  -1.03044  -1.02014  -0.92711  -0.91471
 Alpha  occ. eigenvalues --   -0.91045  -0.90240  -0.90066  -0.88881  -0.88768
 Alpha  occ. eigenvalues --   -0.88193  -0.87718  -0.87578  -0.87193  -0.86676
 Alpha  occ. eigenvalues --   -0.85348  -0.84317  -0.83833  -0.83205  -0.82845
 Alpha  occ. eigenvalues --   -0.82392  -0.81383  -0.80692  -0.79417  -0.78225
 Alpha  occ. eigenvalues --   -0.78066  -0.76492  -0.76219  -0.75394  -0.75103
 Alpha  occ. eigenvalues --   -0.74880  -0.74704  -0.73950  -0.72829  -0.71949
 Alpha  occ. eigenvalues --   -0.71862  -0.70346  -0.69653  -0.68510  -0.67675
 Alpha  occ. eigenvalues --   -0.67046  -0.66360  -0.65973  -0.65632  -0.64424
 Alpha  occ. eigenvalues --   -0.63606  -0.63560  -0.62618  -0.62452  -0.62256
 Alpha  occ. eigenvalues --   -0.62206  -0.61039  -0.60891  -0.59860  -0.59272
 Alpha  occ. eigenvalues --   -0.59107  -0.58443  -0.57781  -0.57030  -0.56532
 Alpha  occ. eigenvalues --   -0.56373  -0.56070  -0.55477  -0.55421  -0.55152
 Alpha  occ. eigenvalues --   -0.54923  -0.54490  -0.54110  -0.53968  -0.53582
 Alpha  occ. eigenvalues --   -0.53191  -0.52732  -0.52576  -0.52433  -0.52069
 Alpha  occ. eigenvalues --   -0.51784  -0.51249  -0.50948  -0.50913  -0.50646
 Alpha  occ. eigenvalues --   -0.50212  -0.49975  -0.49876  -0.49804  -0.49729
 Alpha  occ. eigenvalues --   -0.49709  -0.49308  -0.49020  -0.48787  -0.48682
 Alpha  occ. eigenvalues --   -0.48358  -0.48274  -0.48058  -0.47651  -0.47371
 Alpha  occ. eigenvalues --   -0.47051  -0.46883  -0.46836  -0.46142  -0.46053
 Alpha  occ. eigenvalues --   -0.45857  -0.45817  -0.45553  -0.45345  -0.45249
 Alpha  occ. eigenvalues --   -0.45020  -0.44868  -0.44724  -0.44476  -0.44360
 Alpha  occ. eigenvalues --   -0.43938  -0.43549  -0.43440  -0.43185  -0.43101
 Alpha  occ. eigenvalues --   -0.42975  -0.42927  -0.42787  -0.42718  -0.42500
 Alpha  occ. eigenvalues --   -0.42270  -0.41859  -0.41664  -0.41567  -0.41420
 Alpha  occ. eigenvalues --   -0.41169  -0.41049  -0.40656  -0.40558  -0.40258
 Alpha  occ. eigenvalues --   -0.40119  -0.39888  -0.39620  -0.39400  -0.38625
 Alpha  occ. eigenvalues --   -0.38498  -0.38360  -0.38287  -0.37760  -0.37565
 Alpha  occ. eigenvalues --   -0.37320  -0.37227  -0.37045  -0.36709  -0.36405
 Alpha  occ. eigenvalues --   -0.35761  -0.35693  -0.35477  -0.34894  -0.34866
 Alpha  occ. eigenvalues --   -0.34734  -0.34520  -0.34094  -0.33747  -0.32936
 Alpha  occ. eigenvalues --   -0.32764  -0.32406  -0.31966  -0.31426  -0.29281
 Alpha  occ. eigenvalues --   -0.29031  -0.28926  -0.28445  -0.28000  -0.23607
 Alpha  occ. eigenvalues --   -0.21505
 Alpha virt. eigenvalues --   -0.05718  -0.03213   0.01584   0.03852   0.04674
 Alpha virt. eigenvalues --    0.05059   0.06742   0.06813   0.07444   0.07688
 Alpha virt. eigenvalues --    0.08345   0.10205   0.10953   0.11464   0.12133

 Mulliken charges:
               1
     1  Mg   0.822388
     2  C    0.173678
     3  C   -0.176311
     4  C   -0.151178
     5  C   -0.153125
     6  N   -0.617225
     7  C    0.261097
     8  C   -0.174574
     9  C   -0.102913
    10  C    0.321361
    11  C   -0.322151
    12  C   -0.203446
    13  C   -0.245324
    14  C    0.605301
    15  O   -0.452197
    16  O   -0.544311
    17  N   -0.733959
    18  C    0.323240
    19  C    0.057508
    20  C   -0.004383
    21  C    0.313053
    22  C   -0.399137
    23  C   -0.104141
    24  C   -0.223292
    25  N   -0.671688
    26  C    0.326234
    27  C   -0.019922
    28  C    0.032442
    29  C    0.237157
    30  C   -0.352394
    31  C   -0.234825
    32  C   -0.267083
    33  N   -0.737007
    34  C    0.276695
    35  C    0.063689
    36  C   -0.056199
    37  C    0.284517
    38  C   -0.395635
    39  C    0.383044
    40  O   -0.381521
    41  C   -0.382806
    42  C    0.579518
    43  O   -0.514061
    44  O   -0.407899
    45  C   -0.070997
    46  C    0.042737
    47  C   -0.101010
    48  C    0.097618
    49  C   -0.351610
    50  C   -0.236343
    51  C   -0.156779
    52  C   -0.169459
    53  C   -0.106924
    54  C   -0.303367
    55  C   -0.163964
    56  C   -0.183752
    57  C   -0.142495
    58  C   -0.071755
    59  C   -0.323220
    60  C   -0.151813
    61  C   -0.205348
    62  C   -0.170931
    63  C   -0.073305
    64  C   -0.321323
    65  C   -0.293809
    66  H    0.078606
    67  H    0.064936
    68  H    0.089566
    69  H    0.145947
    70  H    0.105359
    71  H    0.097064
    72  H    0.111859
    73  H    0.134684
    74  H    0.121768
    75  H    0.114789
    76  H    0.152962
    77  H    0.140995
    78  H    0.122600
    79  H    0.109857
    80  H    0.101742
    81  H    0.102900
    82  H    0.108808
    83  H    0.115856
    84  H    0.131976
    85  H    0.118722
    86  H    0.113897
    87  H    0.116811
    88  H    0.103051
    89  H    0.077095
    90  H    0.124991
    91  H    0.072762
    92  H    0.086061
    93  H    0.127516
    94  H    0.128111
    95  H    0.150996
    96  H    0.090814
    97  H    0.136154
    98  H    0.131551
    99  H    0.119698
   100  H    0.096747
   101  H    0.076896
   102  H    0.104710
   103  H    0.121372
   104  H    0.094692
   105  H    0.104116
   106  H    0.095389
   107  H    0.096755
   108  H    0.104989
   109  H    0.085893
   110  H    0.087549
   111  H    0.083624
   112  H    0.089361
   113  H    0.113358
   114  H    0.102220
   115  H    0.094685
   116  H    0.107336
   117  H    0.071055
   118  H    0.078039
   119  H    0.070469
   120  H    0.102423
   121  H    0.092572
   122  H    0.087125
   123  H    0.113171
   124  H    0.098120
   125  H    0.094716
   126  H    0.076794
   127  H    0.085628
   128  H    0.089265
   129  H    0.071565
   130  H    0.100518
   131  H    0.090653
   132  H    0.081626
   133  H    0.113717
   134  H    0.096374
   135  H    0.104727
   136  H    0.102100
   137  H    0.094781
 Sum of Mulliken charges =   0.00000

 Dipole moment (field-independent basis, Debye):
    X=             -0.4789    Y=              4.4969    Z=              0.3683  Tot=              4.5373
 Quadrupole moment (field-independent basis, Debye-Ang):
   XX=           -326.8588   YY=           -385.0275   ZZ=           -400.9246
   XY=            -23.1552   XZ=              1.6564   YZ=             -5.5535

 Normal termination of Gaussian 09 at Thu Jul  4 17:44:10 2019.
