 Gaussian 09, Revision D.01,
 Gaussian 09:  ES64L-G09RevD.01 24-Apr-2013

 -------------------------------------
 # td=(NStates=1) CAM-B3LYP/6-31G(d,p)
 -------------------------------------

 --
 TD
 --
 Symbolic Z-matrix:
 Charge =  0 Multiplicity = 1

                         Standard orientation:
 ---------------------------------------------------------------------
 Center     Atomic      Atomic             Coordinates (Angstroms)
 Number     Number       Type             X           Y           Z
 ---------------------------------------------------------------------
      1         12           0       -7.070816    0.589807    0.006223
      2          6           0       -4.830137   -1.946360    0.390616
      3          6           0       -4.656773    2.899945    1.092364
      4          6           0       -9.309105    3.122169   -0.423907
      5          6           0       -9.569673   -1.685075   -1.023754
      6          7           0       -5.045378    0.438718    0.755955
      7          6           0       -4.281902   -0.723463    0.799792
      8          6           0       -2.932906   -0.404274    1.198633
      9          6           0       -3.053791    0.949922    1.762614
     10          6           0       -4.276685    1.439768    1.133908
     11          6           0       -3.082188    1.006102    3.288960
     12          6           0       -1.884711   -0.615332    0.088611
     13          6           0       -0.460895   -0.480662    0.561621
     14          6           0        0.452378   -0.658108   -0.595869
     15          8           0        0.154540   -0.909446   -1.720760
     16          8           0        1.739533   -0.480166   -0.165168
     17          7           0       -6.950896    2.559267    0.365941
     18          6           0       -5.867841    3.425006    0.854871
     19          6           0       -6.375312    4.799452    0.978086
     20          6           0       -7.639759    4.885900    0.480073
     21          6           0       -8.032065    3.501300    0.086629
     22          6           0       -5.293760    5.896315    1.299803
     23          6           0       -8.464349    6.047616    0.360305
     24          6           0       -8.507243    7.148130    1.107465
     25          7           0       -9.046927    0.712367   -0.699298
     26          6           0       -9.671896    1.846751   -0.832076
     27          6           0      -11.141448    1.580298   -1.270686
     28          6           0      -11.155626    0.214424   -1.395229
     29          6           0       -9.888693   -0.373402   -1.094658
     30          6           0      -12.177855    2.704148   -1.574467
     31          6           0      -12.360246   -0.545916   -1.894600
     32          6           0      -12.417261   -0.972550   -3.419152
     33          7           0       -7.258117   -1.350797   -0.186790
     34          6           0       -8.357295   -2.229486   -0.632622
     35          6           0       -7.823152   -3.602253   -0.549791
     36          6           0       -6.550419   -3.488657   -0.191013
     37          6           0       -6.194904   -2.168141   -0.043858
     38          6           0       -8.748284   -4.826032   -0.833886
     39          6           0       -5.471722   -4.340096    0.097451
     40          8           0       -5.306855   -5.557403    0.114135
     41          6           0       -4.214423   -3.367492    0.517542
     42          6           0       -3.773601   -3.771983    1.823906
     43          8           0       -4.050558   -3.213917    2.955698
     44          8           0       -3.029398   -4.883466    1.804270
     45          6           0       -2.526456   -5.378710    3.131897
     46          6           0        2.747045   -0.535418   -1.191475
     47          6           0        4.056240   -0.427194   -0.464879
     48          6           0        5.114328    0.349185   -0.852994
     49          6           0        5.176551    1.251310   -1.984581
     50          6           0        6.366622    0.311753    0.027011
     51          6           0        7.652106   -0.168689   -0.792236
     52          6           0        8.913923   -0.214550    0.061190
     53          6           0       10.205560   -0.689305   -0.669343
     54          6           0       10.077834   -2.128076   -1.082077
     55          6           0       11.436548   -0.387884    0.278574
     56          6           0       12.806249   -0.447651   -0.656119
     57          6           0       13.956523   -0.190146    0.229543
     58          6           0       15.366063   -0.153566   -0.484882
     59          6           0       15.678378   -1.516500   -0.956570
     60          6           0       16.371363    0.399791    0.418192
     61          6           0       17.792521    0.540053   -0.317473
     62          6           0       18.873037    1.290265    0.692058
     63          6           0       20.265608    1.374042   -0.039402
     64          6           0       20.373705    2.118957   -1.318553
     65          6           0       21.433637    1.838493    1.013499
     66          1           0       -3.991771    3.647838    1.378182
     67          1           0      -10.023526    3.822594   -0.651076
     68          1           0      -10.350348   -2.401770   -1.180734
     69          1           0       -2.775449   -1.167619    1.921046
     70          1           0       -2.251164    1.697682    1.455868
     71          1           0       -2.020498    0.759451    3.587107
     72          1           0       -3.349310    2.116514    3.738554
     73          1           0       -3.723769    0.409304    3.767089
     74          1           0       -2.233424   -1.464888   -0.285018
     75          1           0       -2.137774    0.073252   -0.725470
     76          1           0       -0.315884    0.561857    0.917889
     77          1           0       -0.243784   -1.027876    1.318055
     78          1           0       -5.684742    6.857208    0.848443
     79          1           0       -5.086961    6.090915    2.406307
     80          1           0       -4.256942    5.742488    0.797505
     81          1           0       -9.287538    6.027306   -0.552994
     82          1           0       -9.250103    8.000123    0.893935
     83          1           0       -7.914656    7.317319    1.895230
     84          1           0      -11.856400    3.575464   -2.468835
     85          1           0      -13.010376    2.163232   -1.850371
     86          1           0      -12.313315    3.297526   -0.676518
     87          1           0      -12.227256   -1.388314   -1.240146
     88          1           0      -13.291740   -0.195903   -1.583160
     89          1           0      -13.195414   -1.766091   -3.704357
     90          1           0      -12.069089   -0.087673   -3.913373
     91          1           0      -11.550120   -1.609784   -3.514087
     92          1           0       -9.381773   -4.826369   -1.713268
     93          1           0       -8.026337   -5.732074   -0.775764
     94          1           0       -9.521891   -5.033095   -0.213677
     95          1           0       -3.402340   -3.316309   -0.182831
     96          1           0       -1.673443   -4.815709    3.490481
     97          1           0       -3.511172   -5.569977    3.742853
     98          1           0       -2.215104   -6.503994    2.854050
     99          1           0        2.637111   -1.350878   -1.848919
    100          1           0        2.567947    0.359262   -1.910445
    101          1           0        4.108156   -1.053866    0.396263
    102          1           0        4.425517    1.571680   -2.477896
    103          1           0        5.776619    2.133659   -1.781971
    104          1           0        5.738392    0.740656   -2.693222
    105          1           0        6.808210    1.363140    0.353627
    106          1           0        6.156240   -0.284181    1.008505
    107          1           0        7.363878   -1.286905   -1.198135
    108          1           0        8.049455    0.386828   -1.688949
    109          1           0        9.132892    0.820658    0.439896
    110          1           0        8.765522   -0.775220    1.126185
    111          1           0       10.370569   -0.142153   -1.577772
    112          1           0        9.275338   -1.994662   -2.004859
    113          1           0       11.137854   -2.543783   -1.564221
    114          1           0        9.925228   -2.859967   -0.313571
    115          1           0       11.217877    0.696390    0.567155
    116          1           0       11.729967   -1.073765    1.014865
    117          1           0       12.989464   -1.554689   -1.052590
    118          1           0       12.886402    0.213390   -1.526841
    119          1           0       13.778979    0.702966    0.753656
    120          1           0       13.984359   -0.919033    1.056735
    121          1           0       15.088820    0.448020   -1.432874
    122          1           0       15.802887   -2.235357   -0.263977
    123          1           0       15.008958   -1.949289   -1.542256
    124          1           0       16.502233   -1.540870   -1.596539
    125          1           0       16.372377    1.550710    0.664528
    126          1           0       16.387100   -0.169328    1.177040
    127          1           0       18.239738   -0.507142   -0.515886
    128          1           0       17.831843    0.952278   -1.302311
    129          1           0       18.488721    2.345059    0.958617
    130          1           0       18.967072    0.619295    1.685908
    131          1           0       20.648942    0.319669   -0.204484
    132          1           0       20.226366    3.164664   -1.162436
    133          1           0       21.353073    2.334852   -1.633402
    134          1           0       19.614954    1.805436   -2.120455
    135          1           0       21.272872    1.367641    2.028699
    136          1           0       22.394577    1.781783    0.480170
    137          1           0       21.274754    3.046265    1.156151
 ---------------------------------------------------------------------

 SCF Done:  E(RCAM-B3LYP) =  -2932.64895903     A.U. after   18 cycles

 Excitation energies and oscillator strengths:

 Excited State   1:      Singlet-A      2.1189 eV  585.15 nm  f=0.2390  <S**2>=0.000
     240 -> 242        0.12567
     240 -> 243       -0.22672
     241 -> 242        0.64238
     241 -> 243        0.11018
 This state for optimization and/or second-order correction.
 Total Energy, E(TD-HF/TD-KS) =  -2932.57109232
 Copying the excited state density for this state as the 1-particle RhoCI density.

 The electronic state is 1-A.
 Alpha  occ. eigenvalues --  -46.83602 -19.25856 -19.25802 -19.21645 -19.20070
 Alpha  occ. eigenvalues --  -19.18860 -14.42464 -14.39455 -14.39312 -14.39020
 Alpha  occ. eigenvalues --  -10.39151 -10.38494 -10.34938 -10.33029 -10.32542
 Alpha  occ. eigenvalues --  -10.31585 -10.31285 -10.30414 -10.30212 -10.28984
 Alpha  occ. eigenvalues --  -10.28897 -10.28859 -10.28614 -10.28563 -10.28551
 Alpha  occ. eigenvalues --  -10.28534 -10.28306 -10.28272 -10.27899 -10.27897
 Alpha  occ. eigenvalues --  -10.27818 -10.27770 -10.27729 -10.27568 -10.27493
 Alpha  occ. eigenvalues --  -10.27410 -10.27049 -10.26781 -10.26739 -10.26654
 Alpha  occ. eigenvalues --  -10.26581 -10.26518 -10.26338 -10.26330 -10.26325
 Alpha  occ. eigenvalues --  -10.26286 -10.26157 -10.26073 -10.26023 -10.26004
 Alpha  occ. eigenvalues --  -10.25785 -10.25769 -10.25716 -10.25594 -10.25440
 Alpha  occ. eigenvalues --  -10.25419 -10.25402 -10.25312 -10.25056 -10.24272
 Alpha  occ. eigenvalues --  -10.24164 -10.24037 -10.23662 -10.23326 -10.21210
 Alpha  occ. eigenvalues --   -3.12730  -1.87426  -1.87011  -1.86880  -1.18458
 Alpha  occ. eigenvalues --   -1.15888  -1.10291  -1.09992  -1.06431  -1.04061
 Alpha  occ. eigenvalues --   -1.02913  -1.02033  -0.99725  -0.92324  -0.91627
 Alpha  occ. eigenvalues --   -0.91121  -0.90892  -0.89464  -0.89069  -0.89039
 Alpha  occ. eigenvalues --   -0.88155  -0.87331  -0.87267  -0.87076  -0.86565
 Alpha  occ. eigenvalues --   -0.84816  -0.84378  -0.83223  -0.83075  -0.82204
 Alpha  occ. eigenvalues --   -0.81703  -0.81390  -0.81034  -0.80429  -0.79170
 Alpha  occ. eigenvalues --   -0.77805  -0.77007  -0.76795  -0.76299  -0.76077
 Alpha  occ. eigenvalues --   -0.74991  -0.74883  -0.74012  -0.73663  -0.72335
 Alpha  occ. eigenvalues --   -0.71830  -0.71057  -0.70443  -0.69247  -0.68584
 Alpha  occ. eigenvalues --   -0.67302  -0.66136  -0.65896  -0.65153  -0.64343
 Alpha  occ. eigenvalues --   -0.64149  -0.63937  -0.63916  -0.62634  -0.61923
 Alpha  occ. eigenvalues --   -0.61758  -0.61151  -0.60391  -0.59848  -0.59609
 Alpha  occ. eigenvalues --   -0.58913  -0.58447  -0.57608  -0.57276  -0.57032
 Alpha  occ. eigenvalues --   -0.56759  -0.56014  -0.55115  -0.54851  -0.54738
 Alpha  occ. eigenvalues --   -0.54520  -0.54294  -0.53270  -0.53234  -0.52906
 Alpha  occ. eigenvalues --   -0.52481  -0.52240  -0.52004  -0.51787  -0.51600
 Alpha  occ. eigenvalues --   -0.51445  -0.51139  -0.50935  -0.50643  -0.50492
 Alpha  occ. eigenvalues --   -0.50188  -0.50130  -0.50006  -0.49888  -0.49381
 Alpha  occ. eigenvalues --   -0.49099  -0.48994  -0.48899  -0.48684  -0.48497
 Alpha  occ. eigenvalues --   -0.48103  -0.47914  -0.47800  -0.47640  -0.47404
 Alpha  occ. eigenvalues --   -0.47166  -0.47053  -0.46777  -0.46343  -0.45756
 Alpha  occ. eigenvalues --   -0.45646  -0.45496  -0.45392  -0.45089  -0.44801
 Alpha  occ. eigenvalues --   -0.44526  -0.44484  -0.44334  -0.44165  -0.44073
 Alpha  occ. eigenvalues --   -0.43871  -0.43680  -0.43581  -0.43220  -0.43003
 Alpha  occ. eigenvalues --   -0.42860  -0.42723  -0.42503  -0.42328  -0.42212
 Alpha  occ. eigenvalues --   -0.41996  -0.41864  -0.41832  -0.41533  -0.41368
 Alpha  occ. eigenvalues --   -0.41148  -0.40990  -0.40827  -0.40572  -0.40432
 Alpha  occ. eigenvalues --   -0.40098  -0.39662  -0.39500  -0.39434  -0.39311
 Alpha  occ. eigenvalues --   -0.39211  -0.38937  -0.38872  -0.38378  -0.38278
 Alpha  occ. eigenvalues --   -0.38050  -0.37262  -0.37171  -0.37032  -0.36370
 Alpha  occ. eigenvalues --   -0.36305  -0.36172  -0.35987  -0.35887  -0.35441
 Alpha  occ. eigenvalues --   -0.35309  -0.34694  -0.34546  -0.34352  -0.32956
 Alpha  occ. eigenvalues --   -0.32350  -0.31751  -0.31683  -0.30693  -0.29913
 Alpha  occ. eigenvalues --   -0.29527  -0.29016  -0.28331  -0.27928  -0.23668
 Alpha  occ. eigenvalues --   -0.20789
 Alpha virt. eigenvalues --   -0.05929  -0.03103   0.00954   0.03824   0.05803
 Alpha virt. eigenvalues --    0.05992   0.06186   0.06379   0.06910   0.07281
 Alpha virt. eigenvalues --    0.08085   0.10750   0.11093   0.11378   0.11532

 Mulliken charges:
               1
     1  Mg   0.809246
     2  C    0.027293
     3  C   -0.218802
     4  C   -0.164716
     5  C   -0.175716
     6  N   -0.602848
     7  C    0.298449
     8  C   -0.180112
     9  C   -0.154609
    10  C    0.356647
    11  C   -0.290095
    12  C   -0.151650
    13  C   -0.256817
    14  C    0.620756
    15  O   -0.458322
    16  O   -0.497826
    17  N   -0.709829
    18  C    0.324638
    19  C    0.017839
    20  C    0.053585
    21  C    0.292812
    22  C   -0.378087
    23  C   -0.088117
    24  C   -0.233568
    25  N   -0.690918
    26  C    0.327744
    27  C   -0.011304
    28  C   -0.016938
    29  C    0.311027
    30  C   -0.342736
    31  C   -0.242777
    32  C   -0.322283
    33  N   -0.745140
    34  C    0.203869
    35  C    0.032969
    36  C    0.072354
    37  C    0.324107
    38  C   -0.379889
    39  C    0.329065
    40  O   -0.469692
    41  C   -0.321158
    42  C    0.630080
    43  O   -0.538735
    44  O   -0.451964
    45  C   -0.076300
    46  C    0.015848
    47  C   -0.153806
    48  C    0.139571
    49  C   -0.363742
    50  C   -0.224528
    51  C   -0.177414
    52  C   -0.164353
    53  C   -0.055992
    54  C   -0.279454
    55  C   -0.172912
    56  C   -0.194336
    57  C   -0.177193
    58  C   -0.068610
    59  C   -0.310151
    60  C   -0.128670
    61  C   -0.209509
    62  C   -0.169851
    63  C   -0.043584
    64  C   -0.314159
    65  C   -0.315248
    66  H    0.069632
    67  H    0.070952
    68  H    0.098838
    69  H    0.129917
    70  H    0.099074
    71  H    0.105801
    72  H    0.084468
    73  H    0.149533
    74  H    0.115372
    75  H    0.114373
    76  H    0.138348
    77  H    0.143953
    78  H    0.120542
    79  H    0.122514
    80  H    0.119303
    81  H    0.087542
    82  H    0.104028
    83  H    0.106602
    84  H    0.087063
    85  H    0.125038
    86  H    0.130744
    87  H    0.095665
    88  H    0.107075
    89  H    0.111972
    90  H    0.126118
    91  H    0.110543
    92  H    0.117902
    93  H    0.134677
    94  H    0.136223
    95  H    0.164357
    96  H    0.141065
    97  H    0.149146
    98  H    0.116198
    99  H    0.139990
   100  H    0.099891
   101  H    0.095297
   102  H    0.118734
   103  H    0.113358
   104  H    0.135299
   105  H    0.086189
   106  H    0.101599
   107  H    0.078889
   108  H    0.097772
   109  H    0.080823
   110  H    0.068359
   111  H    0.094429
   112  H    0.081110
   113  H    0.068398
   114  H    0.112706
   115  H    0.088203
   116  H    0.106466
   117  H    0.076677
   118  H    0.090053
   119  H    0.091017
   120  H    0.073019
   121  H    0.065333
   122  H    0.103032
   123  H    0.105489
   124  H    0.101321
   125  H    0.083793
   126  H    0.097700
   127  H    0.081185
   128  H    0.101984
   129  H    0.084658
   130  H    0.078064
   131  H    0.085906
   132  H    0.100684
   133  H    0.108309
   134  H    0.098781
   135  H    0.105965
   136  H    0.107607
   137  H    0.063894
 Sum of Mulliken charges =   0.00000

 Dipole moment (field-independent basis, Debye):
    X=              2.8345    Y=              5.5223    Z=              0.4707  Tot=              6.2251
 Quadrupole moment (field-independent basis, Debye-Ang):
   XX=           -361.4573   YY=           -386.9859   ZZ=           -396.7557
   XY=            -26.3981   XZ=              3.4907   YZ=             -3.3043

 Normal termination of Gaussian 09 at Tue Jul  2 23:48:47 2019.
