 Gaussian 16, Revision A.03,
 Gaussian 16:  ES64L-G16RevA.03 25-Dec-2016

 ----------------------------------------------------------------------
 # td=(NStates=1) iop(3/107=0140000000,3/108=0140000000) CAM-B3LYP/6-31
 G(d,p)
 ----------------------------------------------------------------------

 --
 TD
 --
 Symbolic Z-matrix:
 Charge =  0 Multiplicity = 1

                         Standard orientation:
 ---------------------------------------------------------------------
 Center     Atomic      Atomic             Coordinates (Angstroms)
 Number     Number       Type             X           Y           Z
 ---------------------------------------------------------------------
      1         12           0       -7.186205    0.603121   -0.046942
      2          6           0       -4.783069   -1.961560    0.553713
      3          6           0       -4.768161    2.848784    1.102945
      4          6           0       -9.431774    3.126121   -0.376118
      5          6           0       -9.543761   -1.706755   -1.010335
      6          7           0       -5.195702    0.500395    0.737651
      7          6           0       -4.364049   -0.712589    0.821285
      8          6           0       -2.929389   -0.428542    1.232118
      9          6           0       -3.052343    1.003107    1.817746
     10          6           0       -4.365230    1.510788    1.234870
     11          6           0       -2.925715    1.171016    3.260686
     12          6           0       -1.910838   -0.673836    0.071232
     13          6           0       -0.553912   -0.394789    0.363442
     14          6           0        0.545736   -0.598715   -0.627024
     15          8           0        0.261553   -1.040816   -1.815558
     16          8           0        1.783506   -0.497795   -0.211197
     17          7           0       -7.168326    2.536349    0.283296
     18          6           0       -6.077501    3.325689    0.894700
     19          6           0       -6.385802    4.764403    0.885969
     20          6           0       -7.698478    4.774379    0.461640
     21          6           0       -8.165410    3.454486    0.080607
     22          6           0       -5.414955    5.931183    1.277602
     23          6           0       -8.502265    5.985032    0.022571
     24          6           0       -8.326570    7.214506    0.694208
     25          7           0       -9.116377    0.620491   -0.682228
     26          6           0       -9.806933    1.816840   -0.667367
     27          6           0      -11.175408    1.510249   -1.094110
     28          6           0      -11.303845    0.202257   -1.335646
     29          6           0       -9.897523   -0.357766   -1.009050
     30          6           0      -12.303605    2.529812   -1.284897
     31          6           0      -12.478506   -0.783943   -1.661515
     32          6           0      -12.408658   -1.193518   -3.164920
     33          7           0       -7.213940   -1.366366   -0.221187
     34          6           0       -8.283865   -2.219043   -0.712309
     35          6           0       -7.788758   -3.595656   -0.529750
     36          6           0       -6.562358   -3.588611   -0.087101
     37          6           0       -6.154352   -2.185485    0.144129
     38          6           0       -8.665337   -4.799503   -0.895790
     39          6           0       -5.395674   -4.489233    0.224734
     40          8           0       -5.043781   -5.613087    0.255621
     41          6           0       -4.236286   -3.310261    0.571526
     42          6           0       -3.592188   -3.638614    1.903008
     43          8           0       -3.732398   -3.127095    2.990651
     44          8           0       -2.703257   -4.700665    1.748809
     45          6           0       -2.044618   -5.168035    3.018855
     46          6           0        2.794497   -0.574003   -1.259189
     47          6           0        4.103912   -0.337482   -0.506213
     48          6           0        5.169694    0.404725   -0.909909
     49          6           0        5.090986    1.187618   -2.198415
     50          6           0        6.421960    0.432642   -0.087767
     51          6           0        7.683942   -0.130688   -0.835978
     52          6           0        8.978003   -0.143621   -0.039651
     53          6           0       10.186031   -0.662221   -0.785861
     54          6           0       10.117922   -2.104414   -1.279800
     55          6           0       11.407497   -0.321847    0.046482
     56          6           0       12.749737   -0.451224   -0.713005
     57          6           0       14.020131   -0.127374    0.201827
     58          6           0       15.391908   -0.119365   -0.505528
     59          6           0       15.702986   -1.498367   -1.102707
     60          6           0       16.385349    0.432605    0.467981
     61          6           0       17.737871    0.443181   -0.125813
     62          6           0       18.840332    1.326305    0.717443
     63          6           0       20.303996    1.317238    0.093816
     64          6           0       20.255298    2.227023   -1.161529
     65          6           0       21.220277    1.798737    1.260891
     66          1           0       -4.086819    3.393549    1.612681
     67          1           0      -10.123602    3.905006   -0.779025
     68          1           0      -10.278523   -2.352325   -1.498418
     69          1           0       -2.625392   -1.064990    2.062776
     70          1           0       -2.426139    1.651280    1.264983
     71          1           0       -2.026451    0.609293    3.525404
     72          1           0       -3.093290    2.237253    3.646611
     73          1           0       -3.886032    0.672543    3.758160
     74          1           0       -2.018600   -1.678442   -0.096154
     75          1           0       -2.330215   -0.029906   -0.710055
     76          1           0       -0.384521    0.725015    0.591134
     77          1           0       -0.225953   -0.942035    1.291195
     78          1           0       -5.873011    6.763578    0.618655
     79          1           0       -5.530693    6.176283    2.312646
     80          1           0       -4.298737    5.457891    1.063643
     81          1           0       -9.396398    5.721070   -0.576721
     82          1           0       -9.016089    7.963554    0.414087
     83          1           0       -7.494346    7.681821    1.349568
     84          1           0      -12.204793    3.485704   -1.953535
     85          1           0      -13.189801    2.103741   -1.756491
     86          1           0      -12.568347    3.007768   -0.360183
     87          1           0      -12.328670   -1.564365   -0.997681
     88          1           0      -13.388964   -0.522469   -1.364373
     89          1           0      -13.244731   -1.698834   -3.443890
     90          1           0      -12.445892   -0.096143   -3.844352
     91          1           0      -11.409771   -1.532977   -3.421442
     92          1           0       -9.052569   -4.784993   -1.786396
     93          1           0       -8.075632   -5.611542   -0.649152
     94          1           0       -9.416394   -5.208351   -0.019794
     95          1           0       -3.482978   -3.737528   -0.291107
     96          1           0       -1.265601   -4.470199    3.202755
     97          1           0       -2.667347   -5.442125    3.852852
     98          1           0       -1.406474   -6.108533    2.637577
     99          1           0        2.536835   -1.651227   -1.640668
    100          1           0        2.534362    0.045886   -2.048631
    101          1           0        4.189660   -0.803107    0.374763
    102          1           0        4.174551    1.186003   -2.608926
    103          1           0        5.404373    2.239554   -2.058611
    104          1           0        5.576456    0.873208   -3.051914
    105          1           0        6.630670    1.434744    0.169127
    106          1           0        6.158601   -0.077704    0.779582
    107          1           0        7.357804   -1.120978   -1.019582
    108          1           0        7.950366    0.481650   -1.592331
    109          1           0        9.195973    0.886230    0.290937
    110          1           0        8.906434   -0.864248    1.013010
    111          1           0       10.149910   -0.189794   -1.748303
    112          1           0        9.212841   -2.241219   -1.990615
    113          1           0       11.031162   -2.341365   -1.675946
    114          1           0       10.036917   -2.766942   -0.269736
    115          1           0       11.459786    0.750430    0.393442
    116          1           0       11.411110   -0.876275    0.958222
    117          1           0       13.106932   -1.394883   -1.232324
    118          1           0       12.710605    0.277354   -1.689340
    119          1           0       13.826764    0.895973    0.691897
    120          1           0       13.840516   -0.703763    1.095002
    121          1           0       15.208687    0.502090   -1.390604
    122          1           0       15.713492   -2.208525   -0.308738
    123          1           0       14.917037   -1.979908   -1.742083
    124          1           0       16.692330   -1.439571   -1.539220
    125          1           0       15.938362    1.541125    0.515258
    126          1           0       16.431296    0.067603    1.357506
    127          1           0       18.198536   -0.493677   -0.249609
    128          1           0       17.857820    0.775191   -1.240578
    129          1           0       18.457708    2.346720    0.912123
    130          1           0       18.868644    0.777688    1.862551
    131          1           0       20.530846    0.170552   -0.211705
    132          1           0       19.692410    3.149440   -0.918274
    133          1           0       21.245156    2.329691   -1.395087
    134          1           0       19.722826    1.772657   -1.834971
    135          1           0       21.189659    1.172226    2.135512
    136          1           0       22.175068    1.832943    0.909628
    137          1           0       20.724618    2.726787    1.584883
 ---------------------------------------------------------------------

 SCF Done:  E(RCAM-B3LYP) =  -2933.48572928     A.U. after   16 cycles

 Excitation energies and oscillator strengths:

 Excited State   1:      Singlet-A      1.9131 eV  648.06 nm  f=0.2731  <S**2>=0.000
     240 -> 243        0.19522
     241 -> 242        0.67812
 This state for optimization and/or second-order correction.
 Total Energy, E(TD-HF/TD-DFT) =  -2933.41542251
 Copying the excited state density for this state as the 1-particle RhoCI density.

 The electronic state is 1-A.
 Alpha  occ. eigenvalues --  -46.78336 -19.22697 -19.20171 -19.18232 -19.15843
 Alpha  occ. eigenvalues --  -19.14700 -14.37644 -14.35641 -14.35371 -14.35194
 Alpha  occ. eigenvalues --  -10.34203 -10.33403 -10.32258 -10.27887 -10.26725
 Alpha  occ. eigenvalues --  -10.26296 -10.26279 -10.25998 -10.25375 -10.25143
 Alpha  occ. eigenvalues --  -10.24716 -10.24716 -10.24440 -10.24340 -10.24291
 Alpha  occ. eigenvalues --  -10.24215 -10.23575 -10.23530 -10.23249 -10.23119
 Alpha  occ. eigenvalues --  -10.23098 -10.22986 -10.22868 -10.22760 -10.22701
 Alpha  occ. eigenvalues --  -10.22609 -10.22529 -10.22507 -10.22504 -10.22357
 Alpha  occ. eigenvalues --  -10.22222 -10.22061 -10.22052 -10.21959 -10.21831
 Alpha  occ. eigenvalues --  -10.21821 -10.21633 -10.21446 -10.21202 -10.21201
 Alpha  occ. eigenvalues --  -10.21142 -10.21128 -10.21064 -10.21037 -10.20996
 Alpha  occ. eigenvalues --  -10.20927 -10.20804 -10.20786 -10.20734 -10.20422
 Alpha  occ. eigenvalues --  -10.20203 -10.19910 -10.19638 -10.19277 -10.18580
 Alpha  occ. eigenvalues --   -3.07257  -1.82173  -1.81753  -1.81670  -1.13532
 Alpha  occ. eigenvalues --   -1.10374  -1.09464  -1.01844  -0.99664  -0.99183
 Alpha  occ. eigenvalues --   -0.96750  -0.96271  -0.95273  -0.86934  -0.86533
 Alpha  occ. eigenvalues --   -0.85931  -0.85607  -0.84800  -0.83619  -0.83245
 Alpha  occ. eigenvalues --   -0.82846  -0.82587  -0.82478  -0.82161  -0.81657
 Alpha  occ. eigenvalues --   -0.80428  -0.78956  -0.78463  -0.78194  -0.77210
 Alpha  occ. eigenvalues --   -0.76948  -0.75679  -0.75145  -0.75116  -0.73993
 Alpha  occ. eigenvalues --   -0.73027  -0.72707  -0.72702  -0.71700  -0.71061
 Alpha  occ. eigenvalues --   -0.70925  -0.70481  -0.69949  -0.69132  -0.68362
 Alpha  occ. eigenvalues --   -0.67270  -0.66454  -0.65874  -0.64910  -0.63867
 Alpha  occ. eigenvalues --   -0.62597  -0.62374  -0.61293  -0.60715  -0.60233
 Alpha  occ. eigenvalues --   -0.59710  -0.59504  -0.59313  -0.58015  -0.57333
 Alpha  occ. eigenvalues --   -0.57165  -0.56735  -0.55857  -0.55437  -0.55187
 Alpha  occ. eigenvalues --   -0.55050  -0.53744  -0.53346  -0.52773  -0.52609
 Alpha  occ. eigenvalues --   -0.51889  -0.51613  -0.51257  -0.51188  -0.50840
 Alpha  occ. eigenvalues --   -0.50299  -0.50193  -0.49884  -0.49785  -0.49005
 Alpha  occ. eigenvalues --   -0.48896  -0.48728  -0.48543  -0.48363  -0.48238
 Alpha  occ. eigenvalues --   -0.48068  -0.47647  -0.47293  -0.47086  -0.46904
 Alpha  occ. eigenvalues --   -0.46860  -0.46631  -0.46557  -0.46290  -0.45927
 Alpha  occ. eigenvalues --   -0.45838  -0.45651  -0.45035  -0.44946  -0.44784
 Alpha  occ. eigenvalues --   -0.44748  -0.44707  -0.44563  -0.44249  -0.43980
 Alpha  occ. eigenvalues --   -0.43790  -0.43571  -0.43192  -0.43073  -0.42755
 Alpha  occ. eigenvalues --   -0.42552  -0.42224  -0.42160  -0.41940  -0.41837
 Alpha  occ. eigenvalues --   -0.41376  -0.41319  -0.41237  -0.41204  -0.40993
 Alpha  occ. eigenvalues --   -0.40582  -0.40184  -0.40092  -0.39999  -0.39690
 Alpha  occ. eigenvalues --   -0.39648  -0.39606  -0.39370  -0.39023  -0.38665
 Alpha  occ. eigenvalues --   -0.38522  -0.38396  -0.38262  -0.38117  -0.37920
 Alpha  occ. eigenvalues --   -0.37723  -0.37542  -0.37224  -0.36971  -0.36911
 Alpha  occ. eigenvalues --   -0.36809  -0.36532  -0.36446  -0.35939  -0.35677
 Alpha  occ. eigenvalues --   -0.35536  -0.35250  -0.34940  -0.34885  -0.34633
 Alpha  occ. eigenvalues --   -0.34473  -0.34184  -0.33840  -0.33559  -0.33507
 Alpha  occ. eigenvalues --   -0.33077  -0.32844  -0.32633  -0.32463  -0.32302
 Alpha  occ. eigenvalues --   -0.32187  -0.31556  -0.31506  -0.30291  -0.30197
 Alpha  occ. eigenvalues --   -0.29889  -0.29350  -0.28683  -0.28473  -0.27621
 Alpha  occ. eigenvalues --   -0.27126  -0.26660  -0.26579  -0.24865  -0.22266
 Alpha  occ. eigenvalues --   -0.19392
 Alpha virt. eigenvalues --   -0.07117  -0.03644  -0.00109   0.01602   0.03365
 Alpha virt. eigenvalues --    0.04074   0.04099   0.04911   0.04989   0.05726
 Alpha virt. eigenvalues --    0.06619   0.09108   0.09402   0.10010   0.10013

 Mulliken charges:
               1
     1  Mg   0.810046
     2  C    0.181633
     3  C   -0.171319
     4  C   -0.164036
     5  C   -0.159909
     6  N   -0.592459
     7  C    0.256450
     8  C   -0.177616
     9  C   -0.122266
    10  C    0.280061
    11  C   -0.299717
    12  C   -0.129734
    13  C   -0.252462
    14  C    0.589331
    15  O   -0.528565
    16  O   -0.446630
    17  N   -0.702096
    18  C    0.243574
    19  C    0.039826
    20  C   -0.004150
    21  C    0.336693
    22  C   -0.356756
    23  C   -0.097776
    24  C   -0.247856
    25  N   -0.694151
    26  C    0.305365
    27  C    0.004531
    28  C    0.018056
    29  C    0.288985
    30  C   -0.391907
    31  C   -0.221701
    32  C   -0.297865
    33  N   -0.725515
    34  C    0.255297
    35  C   -0.022462
    36  C    0.051959
    37  C    0.245981
    38  C   -0.361949
    39  C    0.384945
    40  O   -0.404917
    41  C   -0.398367
    42  C    0.628755
    43  O   -0.481115
    44  O   -0.477989
    45  C   -0.084633
    46  C    0.012325
    47  C   -0.124747
    48  C    0.126891
    49  C   -0.376683
    50  C   -0.239070
    51  C   -0.166715
    52  C   -0.154709
    53  C   -0.051279
    54  C   -0.296955
    55  C   -0.170468
    56  C   -0.182988
    57  C   -0.186744
    58  C   -0.055597
    59  C   -0.322887
    60  C   -0.126557
    61  C   -0.200730
    62  C   -0.166663
    63  C   -0.073680
    64  C   -0.290103
    65  C   -0.300044
    66  H    0.063271
    67  H    0.097571
    68  H    0.090431
    69  H    0.117274
    70  H    0.106550
    71  H    0.118151
    72  H    0.108709
    73  H    0.112615
    74  H    0.128591
    75  H    0.116444
    76  H    0.116498
    77  H    0.123757
    78  H    0.124024
    79  H    0.141287
    80  H    0.104977
    81  H    0.097750
    82  H    0.101786
    83  H    0.111295
    84  H    0.097379
    85  H    0.115873
    86  H    0.126773
    87  H    0.117288
    88  H    0.107735
    89  H    0.119166
    90  H    0.063567
    91  H    0.122687
    92  H    0.132415
    93  H    0.141121
    94  H    0.097406
    95  H    0.153139
    96  H    0.129092
    97  H    0.145068
    98  H    0.105387
    99  H    0.131605
   100  H    0.135488
   101  H    0.083472
   102  H    0.111679
   103  H    0.107085
   104  H    0.127034
   105  H    0.101322
   106  H    0.102291
   107  H    0.110369
   108  H    0.105150
   109  H    0.087165
   110  H    0.037775
   111  H    0.083385
   112  H    0.098784
   113  H    0.120497
   114  H    0.068497
   115  H    0.094389
   116  H    0.098544
   117  H    0.086156
   118  H    0.058607
   119  H    0.063961
   120  H    0.092155
   121  H    0.095194
   122  H    0.104125
   123  H    0.098073
   124  H    0.101799
   125  H    0.078448
   126  H    0.103499
   127  H    0.108828
   128  H    0.070346
   129  H    0.090733
   130  H    0.036068
   131  H    0.060187
   132  H    0.097060
   133  H    0.106876
   134  H    0.118561
   135  H    0.108216
   136  H    0.102443
   137  H    0.100887
 Sum of Mulliken charges =  -0.00000

 Dipole moment (field-independent basis, Debye):
    X=              1.6567    Y=              4.2741    Z=              0.3478  Tot=              4.5972
 Quadrupole moment (field-independent basis, Debye-Ang):
   XX=           -324.8353   YY=           -389.9104   ZZ=           -397.7160
   XY=            -12.8227   XZ=              8.4134   YZ=             -0.0129

 Normal termination of Gaussian 16 at Sun Sep  8 05:36:20 2019.
