 Gaussian 16, Revision A.03,
 Gaussian 16:  ES64L-G16RevA.03 25-Dec-2016

 ----------------------------------------------------------------------
 # td=(NStates=1) iop(3/107=0140000000,3/108=0140000000) CAM-B3LYP/6-31
 G(d,p)
 ----------------------------------------------------------------------

 --
 TD
 --
 Symbolic Z-matrix:
 Charge =  0 Multiplicity = 1

                         Standard orientation:
 ---------------------------------------------------------------------
 Center     Atomic      Atomic             Coordinates (Angstroms)
 Number     Number       Type             X           Y           Z
 ---------------------------------------------------------------------
      1         12           0       -7.058459    0.661040    0.082825
      2          6           0       -4.849573   -1.947787    0.467985
      3          6           0       -4.639175    2.857205    1.007246
      4          6           0       -9.247452    3.224298   -0.418560
      5          6           0       -9.576335   -1.642108   -0.900351
      6          7           0       -5.108949    0.453224    0.676992
      7          6           0       -4.402275   -0.636422    0.777847
      8          6           0       -2.930960   -0.381365    1.241646
      9          6           0       -3.075666    0.999168    1.715802
     10          6           0       -4.314230    1.507644    1.086233
     11          6           0       -3.040446    1.118373    3.251732
     12          6           0       -1.963456   -0.647581    0.005228
     13          6           0       -0.493064   -0.548715    0.595758
     14          6           0        0.571812   -0.618051   -0.599885
     15          8           0        0.186610   -0.850883   -1.756267
     16          8           0        1.709233   -0.475543   -0.175705
     17          7           0       -6.967122    2.619248    0.192944
     18          6           0       -5.896004    3.304816    0.583589
     19          6           0       -6.265475    4.811818    0.786428
     20          6           0       -7.623457    4.871596    0.420882
     21          6           0       -8.061953    3.580593    0.041389
     22          6           0       -5.365815    5.977420    1.049121
     23          6           0       -8.471100    6.118754    0.119718
     24          6           0       -8.302212    7.204957    0.795459
     25          7           0       -9.066162    0.694959   -0.556325
     26          6           0       -9.816170    1.866568   -0.636572
     27          6           0      -11.238333    1.588557   -1.187389
     28          6           0      -11.277620    0.205866   -1.201595
     29          6           0       -9.966573   -0.359890   -0.804555
     30          6           0      -12.215165    2.490172   -1.345905
     31          6           0      -12.399021   -0.686323   -1.715153
     32          6           0      -12.451313   -1.008884   -3.118485
     33          7           0       -7.349563   -1.371039   -0.098079
     34          6           0       -8.328090   -2.150288   -0.551562
     35          6           0       -7.907490   -3.568451   -0.552739
     36          6           0       -6.529896   -3.556693   -0.100060
     37          6           0       -6.260017   -2.126425    0.056627
     38          6           0       -8.741088   -4.686720   -0.814693
     39          6           0       -5.397765   -4.377833    0.211214
     40          8           0       -5.246357   -5.537255    0.094638
     41          6           0       -4.214593   -3.329234    0.601804
     42          6           0       -3.538585   -3.692384    1.937181
     43          8           0       -3.723783   -3.049803    2.918072
     44          8           0       -2.678407   -4.746274    1.759005
     45          6           0       -2.127580   -5.263343    2.970361
     46          6           0        2.735251   -0.844397   -1.182972
     47          6           0        4.108581   -0.716055   -0.486820
     48          6           0        5.058753    0.095743   -0.965553
     49          6           0        5.100488    1.017027   -2.064863
     50          6           0        6.388636    0.050845   -0.154869
     51          6           0        7.620389   -0.570418   -0.931168
     52          6           0        8.858295   -0.455795   -0.163357
     53          6           0       10.170588   -0.782425   -0.917884
     54          6           0       10.357909   -2.245725   -1.291298
     55          6           0       11.404859   -0.356067   -0.006652
     56          6           0       12.827872   -0.563943   -0.748374
     57          6           0       13.946877   -0.116275    0.203822
     58          6           0       15.363009   -0.248394   -0.412732
     59          6           0       15.652090   -1.659446   -0.933613
     60          6           0       16.412339    0.351914    0.418089
     61          6           0       17.790660    0.695688   -0.289120
     62          6           0       18.800195    1.385618    0.789659
     63          6           0       20.099323    1.608849    0.271613
     64          6           0       20.162802    2.487155   -1.098960
     65          6           0       21.070590    2.322444    1.247097
     66          1           0       -3.888696    3.607507    1.269549
     67          1           0       -9.898995    3.957560   -0.679879
     68          1           0      -10.345244   -2.387149   -1.112260
     69          1           0       -2.788769   -1.193297    2.080232
     70          1           0       -2.134722    1.657516    1.374569
     71          1           0       -2.105717    0.760594    3.594249
     72          1           0       -3.181400    2.116338    3.821633
     73          1           0       -3.939339    0.474870    3.682084
     74          1           0       -2.118849   -1.499781   -0.553629
     75          1           0       -2.040703    0.191433   -0.734921
     76          1           0       -0.246463    0.243884    1.119525
     77          1           0       -0.372823   -1.424976    1.255729
     78          1           0       -5.648442    6.779841    0.527573
     79          1           0       -5.538707    6.029448    2.219917
     80          1           0       -4.296235    5.669373    0.870464
     81          1           0       -9.292285    6.180976   -0.500080
     82          1           0       -8.991897    8.026252    0.637097
     83          1           0       -7.495220    7.410675    1.584448
     84          1           0      -12.064095    3.093091   -2.275201
     85          1           0      -13.189736    2.071380   -1.475243
     86          1           0      -12.395023    3.188210   -0.470063
     87          1           0      -12.447946   -1.415739   -0.983345
     88          1           0      -13.243831   -0.063297   -1.324555
     89          1           0      -13.406228   -1.339726   -3.429379
     90          1           0      -12.162855   -0.074822   -3.593862
     91          1           0      -11.609541   -1.691943   -3.411081
     92          1           0       -9.232574   -4.804489   -1.811844
     93          1           0       -8.480771   -5.708616   -0.606509
     94          1           0       -9.627269   -4.723091    0.115870
     95          1           0       -3.480994   -3.550554   -0.214026
     96          1           0       -1.372731   -4.463896    3.306295
     97          1           0       -3.066367   -5.467683    3.536298
     98          1           0       -1.717007   -6.069797    2.572986
     99          1           0        2.574698   -1.886285   -1.437600
    100          1           0        2.419963   -0.162804   -1.947193
    101          1           0        4.282057   -1.294828    0.375741
    102          1           0        4.268544    1.178354   -2.474333
    103          1           0        5.359938    2.066920   -1.690403
    104          1           0        5.923674    0.837009   -2.959990
    105          1           0        6.773762    1.178582    0.162672
    106          1           0        6.438307   -0.515390    0.815894
    107          1           0        7.472013   -1.621806   -1.252897
    108          1           0        7.885865   -0.129667   -1.795836
    109          1           0        8.932139    0.431975    0.139372
    110          1           0        8.988847   -0.985139    0.848701
    111          1           0       10.223653   -0.107113   -1.816961
    112          1           0        9.318619   -2.495580   -1.783239
    113          1           0       11.069739   -2.625731   -1.949124
    114          1           0       10.516158   -2.892045   -0.480190
    115          1           0       11.345138    0.773090    0.107666
    116          1           0       11.455634   -0.866153    0.970259
    117          1           0       12.995225   -1.871043   -0.862405
    118          1           0       13.011125    0.023358   -1.731553
    119          1           0       13.815533    1.013624    0.577622
    120          1           0       13.825658   -0.750468    1.159571
    121          1           0       15.578204    0.242784   -1.453153
    122          1           0       15.927271   -2.375856   -0.132723
    123          1           0       15.063221   -2.338135   -1.794964
    124          1           0       16.617837   -1.568162   -1.568259
    125          1           0       16.090410    1.344668    1.047961
    126          1           0       16.606993   -0.391207    1.228296
    127          1           0       18.228064   -0.253412   -0.712168
    128          1           0       17.654458    1.462505   -1.076290
    129          1           0       18.274959    2.268922    1.119847
    130          1           0       18.795874    0.907709    1.670445
    131          1           0       20.535238    0.552991    0.003374
    132          1           0       19.547119    3.581092   -0.643347
    133          1           0       21.451882    2.943805   -1.275560
    134          1           0       19.531106    1.910767   -1.884612
    135          1           0       21.143310    1.919480    2.321087
    136          1           0       22.088796    2.396196    0.835377
    137          1           0       20.515922    3.353835    1.378929
 ---------------------------------------------------------------------

 SCF Done:  E(RCAM-B3LYP) =  -2933.43574844     A.U. after   15 cycles

 Excitation energies and oscillator strengths:

 Excited State   1:      Singlet-A      2.0452 eV  606.22 nm  f=0.2618  <S**2>=0.000
     240 -> 243       -0.22572
     241 -> 242        0.66866
 This state for optimization and/or second-order correction.
 Total Energy, E(TD-HF/TD-DFT) =  -2933.36058852
 Copying the excited state density for this state as the 1-particle RhoCI density.

 The electronic state is 1-A.
 Alpha  occ. eigenvalues --  -46.79147 -19.23436 -19.20990 -19.16680 -19.15124
 Alpha  occ. eigenvalues --  -19.14615 -14.37104 -14.35365 -14.34956 -14.34415
 Alpha  occ. eigenvalues --  -10.33851 -10.33233 -10.29130 -10.28287 -10.26117
 Alpha  occ. eigenvalues --  -10.26105 -10.26042 -10.25740 -10.25358 -10.25077
 Alpha  occ. eigenvalues --  -10.24282 -10.24136 -10.23888 -10.23805 -10.23573
 Alpha  occ. eigenvalues --  -10.23451 -10.23413 -10.23339 -10.23247 -10.23120
 Alpha  occ. eigenvalues --  -10.23071 -10.22744 -10.22644 -10.22500 -10.22472
 Alpha  occ. eigenvalues --  -10.22416 -10.22395 -10.22373 -10.22322 -10.22238
 Alpha  occ. eigenvalues --  -10.22232 -10.22209 -10.22200 -10.22193 -10.22070
 Alpha  occ. eigenvalues --  -10.22026 -10.22020 -10.21872 -10.21503 -10.21454
 Alpha  occ. eigenvalues --  -10.21430 -10.21425 -10.21403 -10.21381 -10.21295
 Alpha  occ. eigenvalues --  -10.21230 -10.21209 -10.20818 -10.20388 -10.20366
 Alpha  occ. eigenvalues --  -10.20042 -10.19906 -10.19671 -10.19609 -10.19307
 Alpha  occ. eigenvalues --   -3.07893  -1.82824  -1.82382  -1.82298  -1.17425
 Alpha  occ. eigenvalues --   -1.12596  -1.07367  -1.05421  -1.02438  -1.00206
 Alpha  occ. eigenvalues --   -0.98499  -0.96899  -0.94905  -0.86934  -0.85481
 Alpha  occ. eigenvalues --   -0.85383  -0.84926  -0.84527  -0.84389  -0.84102
 Alpha  occ. eigenvalues --   -0.83694  -0.83032  -0.82112  -0.81416  -0.80920
 Alpha  occ. eigenvalues --   -0.80141  -0.79481  -0.79446  -0.78756  -0.77535
 Alpha  occ. eigenvalues --   -0.76888  -0.76556  -0.74731  -0.74559  -0.73441
 Alpha  occ. eigenvalues --   -0.73162  -0.72534  -0.71805  -0.70902  -0.70414
 Alpha  occ. eigenvalues --   -0.70078  -0.69560  -0.68815  -0.67860  -0.66710
 Alpha  occ. eigenvalues --   -0.66358  -0.65667  -0.65059  -0.64659  -0.63272
 Alpha  occ. eigenvalues --   -0.63071  -0.61710  -0.60305  -0.60142  -0.59646
 Alpha  occ. eigenvalues --   -0.59475  -0.59231  -0.58454  -0.57960  -0.57724
 Alpha  occ. eigenvalues --   -0.57114  -0.56946  -0.56262  -0.55474  -0.54849
 Alpha  occ. eigenvalues --   -0.54566  -0.54258  -0.54015  -0.53444  -0.52811
 Alpha  occ. eigenvalues --   -0.52145  -0.51804  -0.51395  -0.50991  -0.50642
 Alpha  occ. eigenvalues --   -0.50571  -0.50078  -0.49703  -0.49540  -0.49089
 Alpha  occ. eigenvalues --   -0.48978  -0.48698  -0.48536  -0.47953  -0.47716
 Alpha  occ. eigenvalues --   -0.47705  -0.47406  -0.47148  -0.46879  -0.46699
 Alpha  occ. eigenvalues --   -0.46541  -0.46475  -0.46233  -0.46018  -0.45873
 Alpha  occ. eigenvalues --   -0.45795  -0.45257  -0.45070  -0.44947  -0.44651
 Alpha  occ. eigenvalues --   -0.44415  -0.44344  -0.43861  -0.43830  -0.43762
 Alpha  occ. eigenvalues --   -0.43341  -0.43098  -0.42908  -0.42752  -0.42449
 Alpha  occ. eigenvalues --   -0.42378  -0.42254  -0.42070  -0.41966  -0.41563
 Alpha  occ. eigenvalues --   -0.41523  -0.41414  -0.41411  -0.41218  -0.40892
 Alpha  occ. eigenvalues --   -0.40679  -0.40301  -0.39854  -0.39793  -0.39679
 Alpha  occ. eigenvalues --   -0.39457  -0.39121  -0.39086  -0.38940  -0.38781
 Alpha  occ. eigenvalues --   -0.38417  -0.38368  -0.38029  -0.37908  -0.37649
 Alpha  occ. eigenvalues --   -0.37578  -0.37405  -0.37310  -0.36729  -0.36678
 Alpha  occ. eigenvalues --   -0.36123  -0.36015  -0.35970  -0.35826  -0.35671
 Alpha  occ. eigenvalues --   -0.35468  -0.35064  -0.34993  -0.34789  -0.34481
 Alpha  occ. eigenvalues --   -0.34435  -0.34238  -0.33968  -0.33642  -0.32918
 Alpha  occ. eigenvalues --   -0.32676  -0.32632  -0.32411  -0.32295  -0.32216
 Alpha  occ. eigenvalues --   -0.32190  -0.32016  -0.31630  -0.30511  -0.30228
 Alpha  occ. eigenvalues --   -0.29363  -0.29113  -0.29013  -0.27526  -0.27270
 Alpha  occ. eigenvalues --   -0.25917  -0.25638  -0.25184  -0.24749  -0.21257
 Alpha  occ. eigenvalues --   -0.18732
 Alpha virt. eigenvalues --   -0.05888  -0.02965   0.00942   0.02669   0.03292
 Alpha virt. eigenvalues --    0.04716   0.05178   0.05462   0.05728   0.06377
 Alpha virt. eigenvalues --    0.07532   0.07574   0.09057   0.09071   0.09909

 Mulliken charges:
               1
     1  Mg   0.805008
     2  C    0.050222
     3  C   -0.197996
     4  C   -0.184404
     5  C   -0.179703
     6  N   -0.646455
     7  C    0.310192
     8  C   -0.156787
     9  C   -0.145683
    10  C    0.359119
    11  C   -0.302017
    12  C   -0.160536
    13  C   -0.264863
    14  C    0.568180
    15  O   -0.519320
    16  O   -0.388860
    17  N   -0.723575
    18  C    0.351608
    19  C   -0.033121
    20  C    0.018005
    21  C    0.312303
    22  C   -0.353821
    23  C   -0.043522
    24  C   -0.242492
    25  N   -0.648313
    26  C    0.244311
    27  C    0.109476
    28  C   -0.038859
    29  C    0.313856
    30  C   -0.428707
    31  C   -0.222873
    32  C   -0.295703
    33  N   -0.701369
    34  C    0.285177
    35  C    0.042606
    36  C    0.022290
    37  C    0.283404
    38  C   -0.406197
    39  C    0.329583
    40  O   -0.428819
    41  C   -0.328514
    42  C    0.610382
    43  O   -0.450748
    44  O   -0.465855
    45  C   -0.071149
    46  C   -0.025065
    47  C   -0.143612
    48  C    0.172097
    49  C   -0.353627
    50  C   -0.238104
    51  C   -0.172153
    52  C   -0.145909
    53  C   -0.069825
    54  C   -0.302366
    55  C   -0.179147
    56  C   -0.155576
    57  C   -0.156652
    58  C   -0.039087
    59  C   -0.312929
    60  C   -0.164074
    61  C   -0.203372
    62  C   -0.148118
    63  C   -0.048307
    64  C   -0.260472
    65  C   -0.298693
    66  H    0.080156
    67  H    0.066872
    68  H    0.087301
    69  H    0.122809
    70  H    0.081082
    71  H    0.118897
    72  H    0.098461
    73  H    0.109718
    74  H    0.130892
    75  H    0.110551
    76  H    0.121653
    77  H    0.117509
    78  H    0.139615
    79  H    0.120322
    80  H    0.111966
    81  H    0.094684
    82  H    0.092099
    83  H    0.095534
    84  H    0.117029
    85  H    0.119019
    86  H    0.120172
    87  H    0.109411
    88  H    0.086185
    89  H    0.114690
    90  H    0.111557
    91  H    0.106787
    92  H    0.122018
    93  H    0.149501
    94  H    0.079414
    95  H    0.151291
    96  H    0.117692
    97  H    0.133487
    98  H    0.138330
    99  H    0.142523
   100  H    0.146069
   101  H    0.102993
   102  H    0.121068
   103  H    0.116065
   104  H    0.108216
   105  H    0.067712
   106  H    0.102381
   107  H    0.095995
   108  H    0.101705
   109  H    0.098949
   110  H    0.065669
   111  H    0.075713
   112  H    0.069351
   113  H    0.116249
   114  H    0.105907
   115  H    0.082299
   116  H    0.093505
   117  H    0.054230
   118  H    0.090160
   119  H    0.070303
   120  H    0.083124
   121  H    0.074924
   122  H    0.096091
   123  H    0.092771
   124  H    0.084919
   125  H    0.071676
   126  H    0.086973
   127  H    0.096180
   128  H    0.101688
   129  H    0.083671
   130  H    0.104465
   131  H    0.070398
   132  H    0.051485
   133  H    0.067967
   134  H    0.112113
   135  H    0.088730
   136  H    0.105406
   137  H    0.083188
 Sum of Mulliken charges =  -0.00000

 Dipole moment (field-independent basis, Debye):
    X=              2.9542    Y=              4.4860    Z=              1.0250  Tot=              5.4683
 Quadrupole moment (field-independent basis, Debye-Ang):
   XX=           -348.5696   YY=           -388.3285   ZZ=           -397.4981
   XY=            -33.9802   XZ=             11.1121   YZ=             -3.3127

 Normal termination of Gaussian 16 at Tue Sep  3 22:46:17 2019.
