 Gaussian 09, Revision D.01,
 Gaussian 09:  ES64L-G09RevD.01 24-Apr-2013

 -------------------------------------
 # td=(NStates=1) CAM-B3LYP/6-31G(d,p)
 -------------------------------------

 --
 TD
 --
 Symbolic Z-matrix:
 Charge =  0 Multiplicity = 1

                         Standard orientation:
 ---------------------------------------------------------------------
 Center     Atomic      Atomic             Coordinates (Angstroms)
 Number     Number       Type             X           Y           Z
 ---------------------------------------------------------------------
      1         12           0       -7.183745    0.564180    0.064979
      2          6           0       -4.873527   -1.943196    0.495704
      3          6           0       -4.811409    2.836463    1.078788
      4          6           0       -9.536789    3.011534   -0.383122
      5          6           0       -9.533230   -1.800936   -0.868950
      6          7           0       -5.152306    0.522217    0.638353
      7          6           0       -4.384691   -0.673528    0.782107
      8          6           0       -2.929662   -0.317470    1.233209
      9          6           0       -3.132869    1.056474    1.701074
     10          6           0       -4.397429    1.487620    1.070786
     11          6           0       -3.016487    1.317965    3.156639
     12          6           0       -1.894544   -0.536656    0.084537
     13          6           0       -0.531164   -0.349576    0.466183
     14          6           0        0.498658   -0.578962   -0.632557
     15          8           0        0.162607   -0.983831   -1.831217
     16          8           0        1.761995   -0.327952   -0.308387
     17          7           0       -7.170555    2.601734    0.367255
     18          6           0       -5.998586    3.373582    0.770465
     19          6           0       -6.476610    4.732708    0.722905
     20          6           0       -7.750905    4.896862    0.344972
     21          6           0       -8.118365    3.511996   -0.051579
     22          6           0       -5.460446    5.965594    1.088639
     23          6           0       -8.586221    6.047788    0.117543
     24          6           0       -8.700886    7.212555    0.895542
     25          7           0       -9.151777    0.638267   -0.579090
     26          6           0       -9.830118    1.812126   -0.698274
     27          6           0      -11.260958    1.390746   -1.097471
     28          6           0      -11.249693    0.066633   -1.209937
     29          6           0       -9.946742   -0.436090   -0.849416
     30          6           0      -12.282687    2.464033   -1.265727
     31          6           0      -12.466089   -0.807946   -1.688372
     32          6           0      -12.310959   -1.240765   -3.163329
     33          7           0       -7.238004   -1.457355   -0.249290
     34          6           0       -8.243227   -2.344651   -0.446267
     35          6           0       -7.837194   -3.743991   -0.532786
     36          6           0       -6.419918   -3.568025   -0.090889
     37          6           0       -6.173330   -2.189624   -0.078136
     38          6           0       -8.585765   -4.875622   -0.886666
     39          6           0       -5.337009   -4.396988    0.281086
     40          8           0       -5.235772   -5.618528    0.325137
     41          6           0       -4.149910   -3.266602    0.648560
     42          6           0       -3.561870   -3.661729    1.952366
     43          8           0       -3.606042   -3.068668    3.012931
     44          8           0       -2.757962   -4.713505    1.920485
     45          6           0       -2.075703   -5.123194    3.021277
     46          6           0        2.787673   -0.544860   -1.225118
     47          6           0        4.110095   -0.394352   -0.517247
     48          6           0        5.189473    0.425965   -0.958813
     49          6           0        5.142657    1.169080   -2.284549
     50          6           0        6.443202    0.426298   -0.266135
     51          6           0        7.551762   -0.191147   -0.927855
     52          6           0        8.907153   -0.060396   -0.119312
     53          6           0       10.216832   -0.506930   -0.993802
     54          6           0       10.014907   -1.917271   -1.392834
     55          6           0       11.483397   -0.285930   -0.023116
     56          6           0       12.767640   -0.349067   -0.793275
     57          6           0       13.973711   -0.156558    0.123043
     58          6           0       15.445240   -0.319817   -0.369717
     59          6           0       15.752644   -1.692721   -0.852344
     60          6           0       16.613323    0.286027    0.464179
     61          6           0       17.969657    0.457962   -0.166745
     62          6           0       18.940486    1.151527    0.756489
     63          6           0       20.313621    1.304467    0.267313
     64          6           0       20.309962    2.189669   -0.960044
     65          6           0       21.202587    1.975532    1.350044
     66          1           0       -4.296557    3.664471    1.438925
     67          1           0      -10.039606    3.909231   -0.562388
     68          1           0      -10.331559   -2.635648   -1.231095
     69          1           0       -2.674006   -1.127256    2.019494
     70          1           0       -2.196087    1.643015    1.268000
     71          1           0       -2.114079    1.103698    3.421742
     72          1           0       -3.245844    2.313609    3.577712
     73          1           0       -3.538398    0.432407    3.811230
     74          1           0       -2.067991   -1.592535   -0.319804
     75          1           0       -2.221968    0.204912   -0.671103
     76          1           0       -0.638100    0.706136    0.869191
     77          1           0       -0.345566   -0.937514    1.409010
     78          1           0       -5.912802    6.879754    0.771837
     79          1           0       -5.395405    5.912058    2.206678
     80          1           0       -4.444362    5.761138    0.748917
     81          1           0       -9.128763    6.065739   -0.798827
     82          1           0       -9.564892    7.991286    0.550765
     83          1           0       -7.998016    7.482800    1.749858
     84          1           0      -12.045387    3.202859   -1.933158
     85          1           0      -13.142453    1.839079   -1.567321
     86          1           0      -12.393725    3.109970   -0.422006
     87          1           0      -12.775406   -1.584766   -1.125721
     88          1           0      -13.372321   -0.083278   -1.632068
     89          1           0      -13.092874   -2.146100   -3.567949
     90          1           0      -12.182462   -0.598107   -3.921410
     91          1           0      -11.412044   -1.910810   -3.168441
     92          1           0       -9.222122   -4.589715   -1.732060
     93          1           0       -7.883033   -5.868598   -0.980070
     94          1           0       -9.388624   -5.193372   -0.140026
     95          1           0       -3.534374   -3.445184   -0.235253
     96          1           0       -1.423795   -4.227995    3.562745
     97          1           0       -2.718082   -5.487148    3.899779
     98          1           0       -1.326894   -6.003065    2.783457
     99          1           0        2.709341   -1.651102   -1.757979
    100          1           0        2.677931   -0.011487   -2.053336
    101          1           0        4.095141   -1.119367    0.359866
    102          1           0        4.053758    1.659621   -2.753288
    103          1           0        5.683478    2.124583   -2.064148
    104          1           0        5.768243    0.798215   -2.919858
    105          1           0        6.784039    1.366227   -0.198060
    106          1           0        6.536299   -0.259769    0.818909
    107          1           0        7.282120   -1.232343   -1.019390
    108          1           0        7.835084    0.152293   -2.063036
    109          1           0        9.115890    0.953983    0.244345
    110          1           0        8.811976   -0.667260    0.740077
    111          1           0       10.275945    0.092139   -1.898801
    112          1           0        9.184209   -2.026459   -2.259241
    113          1           0       10.872711   -2.475199   -1.947737
    114          1           0       10.009845   -2.527903   -0.558171
    115          1           0       11.422650    0.717953    0.379952
    116          1           0       11.663054   -1.139991    0.657085
    117          1           0       12.885929   -1.440173   -0.873469
    118          1           0       12.884397    0.298843   -1.826857
    119          1           0       14.027434    0.855989    0.441531
    120          1           0       13.820485   -0.924740    1.042085
    121          1           0       15.517639    0.368349   -1.197692
    122          1           0       15.705880   -2.394518    0.006622
    123          1           0       14.908770   -2.208848   -1.514906
    124          1           0       16.801852   -1.922518   -1.408221
    125          1           0       16.466990    1.468876    0.817665
    126          1           0       16.482010   -0.190000    1.383155
    127          1           0       18.233121   -0.432743   -0.446886
    128          1           0       17.944688    0.986909   -1.266552
    129          1           0       18.444765    2.139061    0.919867
    130          1           0       18.977528    0.753224    1.826766
    131          1           0       20.696282    0.381907   -0.059202
    132          1           0       20.262706    3.342950   -0.688063
    133          1           0       21.236009    1.982621   -1.496153
    134          1           0       19.696918    2.056551   -1.834547
    135          1           0       21.161867    1.224723    2.259186
    136          1           0       22.157879    2.040348    1.029909
    137          1           0       20.949411    3.084019    1.651596
 ---------------------------------------------------------------------

 SCF Done:  E(RCAM-B3LYP) =  -2932.54516190     A.U. after   16 cycles

 Excitation energies and oscillator strengths:

 Excited State   1:      Singlet-A      1.7801 eV  696.50 nm  f=0.3502  <S**2>=0.000
     240 -> 243        0.15509
     241 -> 242        0.68920
 This state for optimization and/or second-order correction.
 Total Energy, E(TD-HF/TD-KS) =  -2932.47974414
 Copying the excited state density for this state as the 1-particle RhoCI density.

 The electronic state is 1-A.
 Alpha  occ. eigenvalues --  -46.85068 -19.27808 -19.25868 -19.20406 -19.20217
 Alpha  occ. eigenvalues --  -19.19624 -14.43683 -14.39865 -14.39580 -14.38917
 Alpha  occ. eigenvalues --  -10.40633 -10.39044 -10.34847 -10.32639 -10.32153
 Alpha  occ. eigenvalues --  -10.31643 -10.31436 -10.30830 -10.30286 -10.29514
 Alpha  occ. eigenvalues --  -10.29347 -10.29117 -10.28867 -10.28769 -10.28761
 Alpha  occ. eigenvalues --  -10.28624 -10.28527 -10.28509 -10.28490 -10.28461
 Alpha  occ. eigenvalues --  -10.28254 -10.28171 -10.27889 -10.27880 -10.27801
 Alpha  occ. eigenvalues --  -10.27356 -10.27219 -10.27191 -10.26868 -10.26830
 Alpha  occ. eigenvalues --  -10.26737 -10.26624 -10.26563 -10.26320 -10.26204
 Alpha  occ. eigenvalues --  -10.26190 -10.26150 -10.26071 -10.26051 -10.25922
 Alpha  occ. eigenvalues --  -10.25832 -10.25765 -10.25761 -10.25724 -10.25701
 Alpha  occ. eigenvalues --  -10.25568 -10.25518 -10.25387 -10.25369 -10.25345
 Alpha  occ. eigenvalues --  -10.24819 -10.24693 -10.24689 -10.24641 -10.24469
 Alpha  occ. eigenvalues --   -3.14018  -1.88735  -1.88262  -1.88179  -1.20029
 Alpha  occ. eigenvalues --   -1.19281  -1.10001  -1.08388  -1.06295  -1.05363
 Alpha  occ. eigenvalues --   -1.05022  -1.03029  -1.01838  -0.92727  -0.92608
 Alpha  occ. eigenvalues --   -0.92137  -0.91153  -0.90094  -0.89609  -0.88957
 Alpha  occ. eigenvalues --   -0.88489  -0.88211  -0.87992  -0.87409  -0.87180
 Alpha  occ. eigenvalues --   -0.86055  -0.84567  -0.83944  -0.83474  -0.82553
 Alpha  occ. eigenvalues --   -0.82432  -0.81752  -0.81201  -0.80711  -0.78892
 Alpha  occ. eigenvalues --   -0.78017  -0.77490  -0.76393  -0.76287  -0.75622
 Alpha  occ. eigenvalues --   -0.75369  -0.74825  -0.74446  -0.74160  -0.72545
 Alpha  occ. eigenvalues --   -0.71810  -0.70417  -0.69917  -0.69263  -0.68425
 Alpha  occ. eigenvalues --   -0.67374  -0.67164  -0.65773  -0.65124  -0.64712
 Alpha  occ. eigenvalues --   -0.64351  -0.64007  -0.63976  -0.63332  -0.62226
 Alpha  occ. eigenvalues --   -0.61883  -0.61468  -0.60834  -0.60058  -0.59515
 Alpha  occ. eigenvalues --   -0.59023  -0.58859  -0.58300  -0.57840  -0.56981
 Alpha  occ. eigenvalues --   -0.56786  -0.56133  -0.55769  -0.55605  -0.55244
 Alpha  occ. eigenvalues --   -0.55156  -0.54449  -0.53855  -0.53815  -0.53596
 Alpha  occ. eigenvalues --   -0.53215  -0.53103  -0.52601  -0.52240  -0.51771
 Alpha  occ. eigenvalues --   -0.51402  -0.51243  -0.51014  -0.50687  -0.50457
 Alpha  occ. eigenvalues --   -0.50384  -0.50355  -0.50053  -0.49805  -0.49743
 Alpha  occ. eigenvalues --   -0.49448  -0.49202  -0.48904  -0.48806  -0.48723
 Alpha  occ. eigenvalues --   -0.48439  -0.48169  -0.48106  -0.48032  -0.47572
 Alpha  occ. eigenvalues --   -0.47085  -0.46926  -0.46735  -0.46482  -0.46223
 Alpha  occ. eigenvalues --   -0.45995  -0.45915  -0.45526  -0.45382  -0.45039
 Alpha  occ. eigenvalues --   -0.44748  -0.44246  -0.44112  -0.43944  -0.43764
 Alpha  occ. eigenvalues --   -0.43663  -0.43632  -0.43521  -0.43319  -0.43085
 Alpha  occ. eigenvalues --   -0.42958  -0.42858  -0.42620  -0.42319  -0.42204
 Alpha  occ. eigenvalues --   -0.42154  -0.42005  -0.41572  -0.41472  -0.41145
 Alpha  occ. eigenvalues --   -0.40886  -0.40739  -0.40617  -0.40378  -0.40205
 Alpha  occ. eigenvalues --   -0.39796  -0.39538  -0.39500  -0.39346  -0.39230
 Alpha  occ. eigenvalues --   -0.38999  -0.38757  -0.38563  -0.38318  -0.37760
 Alpha  occ. eigenvalues --   -0.37239  -0.37125  -0.36981  -0.36775  -0.36621
 Alpha  occ. eigenvalues --   -0.36391  -0.36310  -0.35985  -0.35287  -0.35258
 Alpha  occ. eigenvalues --   -0.35221  -0.34596  -0.33901  -0.33332  -0.33186
 Alpha  occ. eigenvalues --   -0.33103  -0.32623  -0.32272  -0.31638  -0.29365
 Alpha  occ. eigenvalues --   -0.29010  -0.28674  -0.28331  -0.28078  -0.24198
 Alpha  occ. eigenvalues --   -0.20290
 Alpha virt. eigenvalues --   -0.07625  -0.01978   0.00759   0.02791   0.03776
 Alpha virt. eigenvalues --    0.04544   0.05509   0.05759   0.06112   0.06741
 Alpha virt. eigenvalues --    0.08137   0.10332   0.10793   0.10905   0.11264

 Mulliken charges:
               1
     1  Mg   0.822840
     2  C    0.050213
     3  C   -0.180667
     4  C   -0.175321
     5  C   -0.184893
     6  N   -0.612536
     7  C    0.262743
     8  C   -0.171052
     9  C   -0.140601
    10  C    0.391029
    11  C   -0.299918
    12  C   -0.153747
    13  C   -0.255763
    14  C    0.611708
    15  O   -0.514008
    16  O   -0.433203
    17  N   -0.669179
    18  C    0.316845
    19  C   -0.032348
    20  C    0.061790
    21  C    0.193972
    22  C   -0.366536
    23  C   -0.111512
    24  C   -0.241922
    25  N   -0.718653
    26  C    0.369728
    27  C    0.004735
    28  C    0.008291
    29  C    0.314700
    30  C   -0.361882
    31  C   -0.222429
    32  C   -0.302015
    33  N   -0.669719
    34  C    0.227263
    35  C    0.099632
    36  C   -0.015020
    37  C    0.295547
    38  C   -0.415476
    39  C    0.327198
    40  O   -0.470324
    41  C   -0.351781
    42  C    0.629954
    43  O   -0.491552
    44  O   -0.399465
    45  C   -0.072242
    46  C    0.029304
    47  C   -0.142046
    48  C    0.107576
    49  C   -0.360436
    50  C   -0.186926
    51  C   -0.183811
    52  C   -0.179000
    53  C   -0.063075
    54  C   -0.302230
    55  C   -0.164230
    56  C   -0.171009
    57  C   -0.174496
    58  C   -0.059715
    59  C   -0.310326
    60  C   -0.170866
    61  C   -0.165252
    62  C   -0.147799
    63  C   -0.056793
    64  C   -0.313678
    65  C   -0.301077
    66  H    0.072472
    67  H    0.076728
    68  H    0.084702
    69  H    0.128751
    70  H    0.089994
    71  H    0.128331
    72  H    0.113704
    73  H    0.107907
    74  H    0.114234
    75  H    0.110387
    76  H    0.120047
    77  H    0.134254
    78  H    0.126292
    79  H    0.120349
    80  H    0.122507
    81  H    0.115992
    82  H    0.101147
    83  H    0.114282
    84  H    0.128736
    85  H    0.106052
    86  H    0.126820
    87  H    0.120709
    88  H    0.086376
    89  H    0.063271
    90  H    0.127695
    91  H    0.102783
    92  H    0.125496
    93  H    0.140877
    94  H    0.127731
    95  H    0.181837
    96  H    0.086301
    97  H    0.118572
    98  H    0.111390
    99  H    0.099591
   100  H    0.122347
   101  H    0.095635
   102  H    0.104759
   103  H    0.103695
   104  H    0.146534
   105  H    0.106418
   106  H    0.077997
   107  H    0.109871
   108  H    0.058740
   109  H    0.088837
   110  H    0.099303
   111  H    0.090221
   112  H    0.092985
   113  H    0.083228
   114  H    0.110910
   115  H    0.095536
   116  H    0.094037
   117  H    0.098942
   118  H    0.074411
   119  H    0.095789
   120  H    0.054228
   121  H    0.089287
   122  H    0.094557
   123  H    0.089779
   124  H    0.086930
   125  H    0.045493
   126  H    0.100840
   127  H    0.105146
   128  H    0.071477
   129  H    0.087025
   130  H    0.077408
   131  H    0.098057
   132  H    0.085014
   133  H    0.092511
   134  H    0.105001
   135  H    0.083950
   136  H    0.113852
   137  H    0.094393
 Sum of Mulliken charges =   0.00000

 Dipole moment (field-independent basis, Debye):
    X=              3.2446    Y=              6.3876    Z=              0.2818  Tot=              7.1699
 Quadrupole moment (field-independent basis, Debye-Ang):
   XX=           -339.8023   YY=           -391.9177   ZZ=           -401.2967
   XY=            -35.3165   XZ=              5.2261   YZ=             -0.7176

 Normal termination of Gaussian 09 at Tue Jul  2 23:48:50 2019.
