 Gaussian 16, Revision A.03,
 Gaussian 16:  ES64L-G16RevA.03 25-Dec-2016

 ----------------------------------------------------------------------
 # td=(NStates=1) iop(3/107=0140000000,3/108=0140000000) CAM-B3LYP/6-31
 G(d,p)
 ----------------------------------------------------------------------

 --
 TD
 --
 Symbolic Z-matrix:
 Charge =  0 Multiplicity = 1

                         Standard orientation:
 ---------------------------------------------------------------------
 Center     Atomic      Atomic             Coordinates (Angstroms)
 Number     Number       Type             X           Y           Z
 ---------------------------------------------------------------------
      1         12           0       -7.149178    0.626928    0.156820
      2          6           0       -4.910987   -1.970999    0.542321
      3          6           0       -4.847684    2.896155    1.202230
      4          6           0       -9.487177    3.130286   -0.368575
      5          6           0       -9.490380   -1.639704   -0.997591
      6          7           0       -5.133887    0.433438    0.756297
      7          6           0       -4.362391   -0.668533    0.850404
      8          6           0       -2.960758   -0.420363    1.352030
      9          6           0       -3.013905    1.117313    1.617267
     10          6           0       -4.374373    1.548427    1.226779
     11          6           0       -2.816031    1.360063    3.180302
     12          6           0       -1.913275   -0.670731    0.229745
     13          6           0       -0.448324   -0.519044    0.611394
     14          6           0        0.554491   -0.948290   -0.548564
     15          8           0        0.172563   -1.407707   -1.586983
     16          8           0        1.804194   -0.604151   -0.167352
     17          7           0       -7.069408    2.698932    0.328259
     18          6           0       -6.019392    3.462670    0.776818
     19          6           0       -6.342329    4.834607    0.747516
     20          6           0       -7.759304    4.851637    0.347009
     21          6           0       -8.198908    3.536712    0.113532
     22          6           0       -5.403288    5.931263    1.292734
     23          6           0       -8.653873    6.017519    0.128613
     24          6           0       -8.484232    7.265613    0.652157
     25          7           0       -9.100060    0.662597   -0.592451
     26          6           0       -9.834034    1.832376   -0.731132
     27          6           0      -11.176433    1.443041   -1.240104
     28          6           0      -11.231880    0.111190   -1.379193
     29          6           0       -9.908778   -0.402530   -1.027477
     30          6           0      -12.279866    2.553417   -1.368442
     31          6           0      -12.345644   -0.738214   -1.981667
     32          6           0      -12.058755   -1.052166   -3.446178
     33          7           0       -7.267091   -1.367159   -0.128925
     34          6           0       -8.229588   -2.241880   -0.577434
     35          6           0       -7.776430   -3.603174   -0.502538
     36          6           0       -6.460639   -3.494740   -0.124241
     37          6           0       -6.171224   -2.101760    0.173402
     38          6           0       -8.685041   -4.717174   -0.992278
     39          6           0       -5.387665   -4.340628    0.274876
     40          8           0       -5.312602   -5.568786    0.292155
     41          6           0       -4.186568   -3.402492    0.640636
     42          6           0       -3.451142   -3.648641    1.989928
     43          8           0       -3.779548   -3.029911    2.978998
     44          8           0       -2.766903   -4.778124    1.917046
     45          6           0       -2.338380   -5.251753    3.123301
     46          6           0        2.794671   -0.872543   -1.218669
     47          6           0        4.098931   -0.726031   -0.586069
     48          6           0        5.027525    0.116367   -1.084703
     49          6           0        4.953464    0.949731   -2.360210
     50          6           0        6.298462    0.221033   -0.267084
     51          6           0        7.632645   -0.259108   -0.984577
     52          6           0        8.909298   -0.226308   -0.116715
     53          6           0       10.242848   -0.635481   -0.829014
     54          6           0       10.272219   -2.102148   -1.093102
     55          6           0       11.414068   -0.089385    0.010958
     56          6           0       12.788919   -0.367219   -0.753562
     57          6           0       13.971453    0.062915    0.177833
     58          6           0       15.404730   -0.149404   -0.475253
     59          6           0       15.638471   -1.585361   -0.865588
     60          6           0       16.508761    0.519049    0.426381
     61          6           0       17.844650    0.693336   -0.252406
     62          6           0       18.805742    1.483058    0.622746
     63          6           0       20.313182    1.387401    0.163216
     64          6           0       20.386191    2.139914   -1.164509
     65          6           0       21.278611    1.942120    1.225381
     66          1           0       -3.966055    3.564751    1.345405
     67          1           0      -10.201767    3.823117   -0.378332
     68          1           0      -10.035053   -2.431846   -1.431213
     69          1           0       -2.847484   -0.810932    2.105428
     70          1           0       -2.277213    1.535160    1.032363
     71          1           0       -1.853465    1.003501    3.476798
     72          1           0       -3.134332    2.393116    3.417845
     73          1           0       -3.664663    1.058677    3.595181
     74          1           0       -2.181451   -1.638593   -0.038844
     75          1           0       -2.158636    0.041253   -0.550914
     76          1           0       -0.368593    0.589796    0.868921
     77          1           0       -0.184045   -1.153486    1.541534
     78          1           0       -5.568816    6.948226    0.806752
     79          1           0       -5.501123    6.187064    2.358589
     80          1           0       -4.488916    5.524041    1.214176
     81          1           0       -9.362557    6.087261   -0.692850
     82          1           0       -9.103073    8.306417    0.612140
     83          1           0       -7.802221    7.578376    1.659607
     84          1           0      -12.110829    3.307382   -2.096824
     85          1           0      -13.299740    2.146513   -1.686461
     86          1           0      -12.675043    3.147345   -0.665752
     87          1           0      -12.356126   -1.692235   -1.363233
     88          1           0      -13.290413   -0.116235   -1.684053
     89          1           0      -12.765786   -1.581868   -3.880141
     90          1           0      -12.076711   -0.141680   -4.065290
     91          1           0      -11.216334   -1.750341   -3.473610
     92          1           0       -8.936880   -4.660376   -2.214376
     93          1           0       -8.210901   -5.785555   -0.867246
     94          1           0       -9.723736   -4.719475   -0.413175
     95          1           0       -3.497593   -3.289383   -0.219795
     96          1           0       -1.798116   -4.463234    3.764029
     97          1           0       -3.101229   -5.612300    3.697108
     98          1           0       -1.967863   -6.157025    3.066053
     99          1           0        2.467483   -2.007220   -1.507695
    100          1           0        2.591915   -0.266558   -2.098756
    101          1           0        4.208229   -1.500627    0.296450
    102          1           0        3.964463    0.931558   -2.908951
    103          1           0        5.100493    2.132731   -2.034850
    104          1           0        5.639604    0.600674   -2.899030
    105          1           0        6.324926    1.380455   -0.020804
    106          1           0        6.268745   -0.145727    0.687699
    107          1           0        7.492987   -1.386857   -1.122890
    108          1           0        8.131929    0.168749   -2.029615
    109          1           0        8.930819    0.769887    0.323020
    110          1           0        8.811339   -0.716198    0.815231
    111          1           0       10.336095   -0.116117   -1.744852
    112          1           0        9.271660   -2.459961   -1.459290
    113          1           0       11.162934   -2.527207   -1.721158
    114          1           0       10.240632   -2.548850    0.043596
    115          1           0       11.295484    1.085712    0.152277
    116          1           0       11.426123   -0.573717    0.855850
    117          1           0       12.834438   -1.576823   -0.871542
    118          1           0       12.944631   -0.074382   -1.783419
    119          1           0       13.805765    1.189594    0.503374
    120          1           0       13.877397   -0.470693    1.114274
    121          1           0       15.267756    0.534531   -1.459139
    122          1           0       15.357317   -2.135417    0.040982
    123          1           0       14.869566   -1.822469   -1.591308
    124          1           0       16.723964   -1.735987   -1.324465
    125          1           0       16.186423    1.333945    0.650758
    126          1           0       16.543485   -0.155521    1.382318
    127          1           0       18.272692   -0.369192   -0.330670
    128          1           0       17.712041    1.265603   -1.184920
    129          1           0       18.528785    2.498089    0.604964
    130          1           0       18.813746    0.910373    1.652495
    131          1           0       20.533732    0.432431   -0.187206
    132          1           0       19.979683    3.098183   -1.177303
    133          1           0       21.563469    2.228335   -1.417889
    134          1           0       20.025721    1.719333   -1.950243
    135          1           0       21.084944    1.476792    2.276580
    136          1           0       22.355816    1.947893    0.910189
    137          1           0       20.837211    2.870422    1.605289
 ---------------------------------------------------------------------

 SCF Done:  E(RCAM-B3LYP) =  -2933.40424455     A.U. after   16 cycles

 Excitation energies and oscillator strengths:

 Excited State   1:      Singlet-A      1.9138 eV  647.85 nm  f=0.3338  <S**2>=0.000
     240 -> 243       -0.21181
     241 -> 242        0.67415
 This state for optimization and/or second-order correction.
 Total Energy, E(TD-HF/TD-DFT) =  -2933.33391499
 Copying the excited state density for this state as the 1-particle RhoCI density.

 The electronic state is 1-A.
 Alpha  occ. eigenvalues --  -46.79581 -19.23800 -19.22269 -19.17519 -19.17495
 Alpha  occ. eigenvalues --  -19.15627 -14.38382 -14.34876 -14.34684 -14.34181
 Alpha  occ. eigenvalues --  -10.35466 -10.34885 -10.29991 -10.27731 -10.26441
 Alpha  occ. eigenvalues --  -10.26320 -10.25375 -10.24976 -10.24770 -10.24655
 Alpha  occ. eigenvalues --  -10.24581 -10.24520 -10.24248 -10.24190 -10.24080
 Alpha  occ. eigenvalues --  -10.23970 -10.23909 -10.23791 -10.23767 -10.23528
 Alpha  occ. eigenvalues --  -10.23095 -10.23078 -10.23038 -10.22856 -10.22772
 Alpha  occ. eigenvalues --  -10.22607 -10.22606 -10.22599 -10.22497 -10.22492
 Alpha  occ. eigenvalues --  -10.22293 -10.22248 -10.22232 -10.22200 -10.21829
 Alpha  occ. eigenvalues --  -10.21727 -10.21594 -10.21531 -10.21465 -10.21347
 Alpha  occ. eigenvalues --  -10.21128 -10.21054 -10.21018 -10.20988 -10.20972
 Alpha  occ. eigenvalues --  -10.20870 -10.20857 -10.20767 -10.20716 -10.20568
 Alpha  occ. eigenvalues --  -10.20418 -10.20327 -10.19934 -10.19130 -10.18605
 Alpha  occ. eigenvalues --   -3.08086  -1.83039  -1.82577  -1.82462  -1.16132
 Alpha  occ. eigenvalues --   -1.13128  -1.06209  -1.05584  -1.04886  -0.99125
 Alpha  occ. eigenvalues --   -0.97909  -0.96626  -0.95814  -0.87314  -0.86393
 Alpha  occ. eigenvalues --   -0.85559  -0.85298  -0.84789  -0.83896  -0.82893
 Alpha  occ. eigenvalues --   -0.82832  -0.82433  -0.81981  -0.81357  -0.80636
 Alpha  occ. eigenvalues --   -0.80139  -0.79661  -0.78837  -0.78000  -0.77680
 Alpha  occ. eigenvalues --   -0.77167  -0.76877  -0.75392  -0.75144  -0.73674
 Alpha  occ. eigenvalues --   -0.73600  -0.72756  -0.72371  -0.71900  -0.71595
 Alpha  occ. eigenvalues --   -0.70697  -0.70379  -0.69845  -0.68684  -0.67931
 Alpha  occ. eigenvalues --   -0.67683  -0.66014  -0.65378  -0.64942  -0.63992
 Alpha  occ. eigenvalues --   -0.62877  -0.61933  -0.61875  -0.61038  -0.60626
 Alpha  occ. eigenvalues --   -0.60594  -0.59943  -0.59339  -0.59028  -0.58765
 Alpha  occ. eigenvalues --   -0.57061  -0.56876  -0.56463  -0.55854  -0.55223
 Alpha  occ. eigenvalues --   -0.54934  -0.54505  -0.54149  -0.53171  -0.52801
 Alpha  occ. eigenvalues --   -0.52458  -0.52179  -0.51960  -0.51335  -0.51100
 Alpha  occ. eigenvalues --   -0.50977  -0.50392  -0.50052  -0.49835  -0.49618
 Alpha  occ. eigenvalues --   -0.49099  -0.48997  -0.48540  -0.48305  -0.47934
 Alpha  occ. eigenvalues --   -0.47610  -0.47324  -0.47102  -0.47042  -0.46919
 Alpha  occ. eigenvalues --   -0.46658  -0.46514  -0.46419  -0.45987  -0.45934
 Alpha  occ. eigenvalues --   -0.45710  -0.45408  -0.45212  -0.45119  -0.44745
 Alpha  occ. eigenvalues --   -0.44399  -0.44194  -0.43881  -0.43588  -0.43400
 Alpha  occ. eigenvalues --   -0.43096  -0.42924  -0.42557  -0.42497  -0.42029
 Alpha  occ. eigenvalues --   -0.41841  -0.41643  -0.41561  -0.41360  -0.41169
 Alpha  occ. eigenvalues --   -0.41045  -0.40972  -0.40684  -0.40580  -0.40538
 Alpha  occ. eigenvalues --   -0.40480  -0.40435  -0.40107  -0.39857  -0.39743
 Alpha  occ. eigenvalues --   -0.39642  -0.39616  -0.39251  -0.39044  -0.38988
 Alpha  occ. eigenvalues --   -0.38967  -0.38821  -0.38765  -0.38610  -0.38081
 Alpha  occ. eigenvalues --   -0.37995  -0.37948  -0.37697  -0.37655  -0.37299
 Alpha  occ. eigenvalues --   -0.37240  -0.37114  -0.36934  -0.36767  -0.36175
 Alpha  occ. eigenvalues --   -0.35873  -0.35145  -0.35000  -0.34917  -0.34519
 Alpha  occ. eigenvalues --   -0.34446  -0.34087  -0.33865  -0.33634  -0.33625
 Alpha  occ. eigenvalues --   -0.33494  -0.33400  -0.33121  -0.32851  -0.32743
 Alpha  occ. eigenvalues --   -0.32448  -0.31654  -0.31649  -0.31021  -0.30941
 Alpha  occ. eigenvalues --   -0.30048  -0.29930  -0.29450  -0.28469  -0.27343
 Alpha  occ. eigenvalues --   -0.27259  -0.26559  -0.26110  -0.23628  -0.21608
 Alpha  occ. eigenvalues --   -0.19536
 Alpha virt. eigenvalues --   -0.07489  -0.03210  -0.00557   0.02182   0.02806
 Alpha virt. eigenvalues --    0.03209   0.04296   0.04913   0.04990   0.05888
 Alpha virt. eigenvalues --    0.06459   0.09323   0.09610   0.09622   0.10340

 Mulliken charges:
               1
     1  Mg   0.795937
     2  C    0.017246
     3  C   -0.205304
     4  C   -0.138180
     5  C   -0.210320
     6  N   -0.617769
     7  C    0.274624
     8  C   -0.042166
     9  C   -0.172736
    10  C    0.285468
    11  C   -0.309831
    12  C   -0.168376
    13  C   -0.271618
    14  C    0.610006
    15  O   -0.450891
    16  O   -0.461849
    17  N   -0.735052
    18  C    0.352795
    19  C    0.020164
    20  C   -0.028294
    21  C    0.316906
    22  C   -0.359457
    23  C   -0.104609
    24  C   -0.239961
    25  N   -0.708470
    26  C    0.325572
    27  C    0.029278
    28  C    0.037967
    29  C    0.354682
    30  C   -0.404259
    31  C   -0.238803
    32  C   -0.301163
    33  N   -0.745880
    34  C    0.254117
    35  C    0.068988
    36  C   -0.021196
    37  C    0.380256
    38  C   -0.380117
    39  C    0.360979
    40  O   -0.473349
    41  C   -0.296720
    42  C    0.610819
    43  O   -0.457727
    44  O   -0.395143
    45  C   -0.085660
    46  C   -0.005293
    47  C   -0.102559
    48  C    0.097749
    49  C   -0.333450
    50  C   -0.217641
    51  C   -0.172029
    52  C   -0.192737
    53  C   -0.054234
    54  C   -0.293423
    55  C   -0.148216
    56  C   -0.194082
    57  C   -0.173952
    58  C   -0.066848
    59  C   -0.297813
    60  C   -0.120564
    61  C   -0.181729
    62  C   -0.172146
    63  C   -0.040982
    64  C   -0.308749
    65  C   -0.306975
    66  H    0.082040
    67  H    0.075634
    68  H    0.065269
    69  H    0.076297
    70  H    0.102991
    71  H    0.117332
    72  H    0.096599
    73  H    0.132735
    74  H    0.107138
    75  H    0.114599
    76  H    0.120980
    77  H    0.117518
    78  H    0.117854
    79  H    0.123144
    80  H    0.115052
    81  H    0.105488
    82  H    0.096097
    83  H    0.068319
    84  H    0.123270
    85  H    0.092199
    86  H    0.138170
    87  H    0.099109
    88  H    0.094131
    89  H    0.118772
    90  H    0.114630
    91  H    0.111837
    92  H    0.104271
    93  H    0.136111
    94  H    0.116345
    95  H    0.165984
    96  H    0.116084
    97  H    0.126433
    98  H    0.119391
    99  H    0.105609
   100  H    0.119474
   101  H    0.093913
   102  H    0.110952
   103  H    0.096284
   104  H    0.148432
   105  H    0.080096
   106  H    0.117707
   107  H    0.094008
   108  H    0.078918
   109  H    0.086806
   110  H    0.088578
   111  H    0.087773
   112  H    0.104223
   113  H    0.102749
   114  H    0.069514
   115  H    0.077805
   116  H    0.102354
   117  H    0.067846
   118  H    0.098727
   119  H    0.069942
   120  H    0.090468
   121  H    0.047642
   122  H    0.102811
   123  H    0.107656
   124  H    0.093703
   125  H    0.089513
   126  H    0.066490
   127  H    0.085260
   128  H    0.092232
   129  H    0.095712
   130  H    0.071005
   131  H    0.091017
   132  H    0.099351
   133  H    0.059631
   134  H    0.117135
   135  H    0.082354
   136  H    0.104718
   137  H    0.104539
 Sum of Mulliken charges =  -0.00000

 Dipole moment (field-independent basis, Debye):
    X=              2.7292    Y=              2.5975    Z=              0.2898  Tot=              3.7788
 Quadrupole moment (field-independent basis, Debye-Ang):
   XX=           -366.5411   YY=           -398.6416   ZZ=           -392.2485
   XY=            -11.8627   XZ=             10.5065   YZ=             -4.0199

 Normal termination of Gaussian 16 at Sun Sep  8 03:42:40 2019.
