 Gaussian 09, Revision D.01,
 Gaussian 09:  ES64L-G09RevD.01 24-Apr-2013

 -------------------------------------
 # td=(NStates=1) CAM-B3LYP/6-31G(d,p)
 -------------------------------------

 --
 TD
 --
 Symbolic Z-matrix:
 Charge =  0 Multiplicity = 1

                         Standard orientation:
 ---------------------------------------------------------------------
 Center     Atomic      Atomic             Coordinates (Angstroms)
 Number     Number       Type             X           Y           Z
 ---------------------------------------------------------------------
      1         12           0       -7.142078    0.634148    0.147181
      2          6           0       -4.873251   -1.953816    0.508798
      3          6           0       -4.686624    2.795876    1.105236
      4          6           0       -9.303574    3.131595   -0.477951
      5          6           0       -9.591044   -1.718513   -0.827032
      6          7           0       -5.125165    0.438631    0.722217
      7          6           0       -4.404997   -0.674856    0.768143
      8          6           0       -2.921287   -0.465300    1.122806
      9          6           0       -2.951364    1.037486    1.461989
     10          6           0       -4.387330    1.506594    1.102975
     11          6           0       -2.839264    1.334828    3.044919
     12          6           0       -1.838542   -0.700183    0.087842
     13          6           0       -0.512179   -0.481724    0.597492
     14          6           0        0.535371   -0.669536   -0.456390
     15          8           0        0.258923   -1.048398   -1.651856
     16          8           0        1.878051   -0.441105   -0.085302
     17          7           0       -7.055452    2.667730    0.228900
     18          6           0       -5.980535    3.375165    0.640347
     19          6           0       -6.323589    4.712674    0.684375
     20          6           0       -7.620839    4.861670    0.290467
     21          6           0       -8.031681    3.521423   -0.033022
     22          6           0       -5.411629    5.853024    1.156388
     23          6           0       -8.368130    6.106484    0.047124
     24          6           0       -8.317399    7.331796    0.763860
     25          7           0       -9.091212    0.704248   -0.478812
     26          6           0       -9.859454    1.843787   -0.635490
     27          6           0      -11.165832    1.520475   -1.139293
     28          6           0      -11.282738    0.171823   -1.111671
     29          6           0       -9.857500   -0.368274   -0.806613
     30          6           0      -12.408080    2.521159   -1.380433
     31          6           0      -12.412861   -0.642620   -1.476263
     32          6           0      -12.510874   -1.070412   -2.990065
     33          7           0       -7.270977   -1.386947   -0.162769
     34          6           0       -8.379641   -2.194914   -0.548751
     35          6           0       -7.943884   -3.609186   -0.474591
     36          6           0       -6.555754   -3.489453   -0.200386
     37          6           0       -6.196659   -2.104794    0.128166
     38          6           0       -8.759133   -4.820493   -0.859567
     39          6           0       -5.405752   -4.339824    0.030191
     40          8           0       -5.233569   -5.544829    0.130581
     41          6           0       -4.221764   -3.337264    0.461495
     42          6           0       -3.480167   -3.723708    1.808035
     43          8           0       -3.672462   -3.249309    2.877670
     44          8           0       -2.678481   -4.782066    1.629854
     45          6           0       -2.170014   -5.290212    2.904829
     46          6           0        2.811334   -0.720190   -1.024983
     47          6           0        4.091220   -0.473266   -0.466105
     48          6           0        5.129545    0.228569   -0.834397
     49          6           0        5.071594    0.986043   -2.064505
     50          6           0        6.503141    0.415404   -0.196833
     51          6           0        7.637230   -0.237223   -0.922399
     52          6           0        9.073640   -0.017483   -0.223061
     53          6           0       10.182449   -0.645262   -0.841220
     54          6           0        9.956137   -2.190079   -1.347237
     55          6           0       11.415576   -0.453820   -0.071423
     56          6           0       12.732907   -0.568368   -0.637902
     57          6           0       13.979354   -0.274927    0.233140
     58          6           0       15.382965   -0.355197   -0.467451
     59          6           0       15.845368   -1.749771   -0.844044
     60          6           0       16.377909    0.371080    0.391093
     61          6           0       17.802411    0.552589   -0.248668
     62          6           0       18.699533    1.444403    0.719759
     63          6           0       20.157010    1.559210    0.262182
     64          6           0       20.174075    2.167002   -1.138939
     65          6           0       21.033979    2.247085    1.207765
     66          1           0       -4.000671    3.583326    1.477727
     67          1           0       -9.993944    4.076297   -0.732793
     68          1           0      -10.237009   -2.534857   -0.946417
     69          1           0       -2.707700   -0.985539    2.022056
     70          1           0       -2.182590    1.626512    0.944246
     71          1           0       -1.763240    0.822037    3.268603
     72          1           0       -2.973988    2.321575    3.277456
     73          1           0       -3.406322    0.594009    3.643958
     74          1           0       -1.814849   -1.770756   -0.261474
     75          1           0       -2.052571    0.114617   -0.787021
     76          1           0       -0.376933    0.595646    0.995141
     77          1           0       -0.218616   -1.322103    1.481859
     78          1           0       -5.833344    7.004554    0.945634
     79          1           0       -5.507348    5.678529    2.430739
     80          1           0       -4.156275    5.725185    0.977875
     81          1           0       -9.148335    6.248207   -0.777189
     82          1           0       -9.055197    8.122775    0.334021
     83          1           0       -7.714602    7.470616    1.655230
     84          1           0      -11.927551    3.021009   -2.092976
     85          1           0      -13.332599    2.067964   -1.472878
     86          1           0      -12.568026    3.254087   -0.514935
     87          1           0      -12.676984   -1.548854   -0.854044
     88          1           0      -13.251425    0.035273   -1.071468
     89          1           0      -13.341388   -1.952505   -3.181254
     90          1           0      -12.740559   -0.307457   -3.720310
     91          1           0      -11.457237   -1.504092   -3.210555
     92          1           0       -9.306781   -4.462178   -1.965748
     93          1           0       -8.096034   -5.890934   -0.685629
     94          1           0       -9.596536   -4.807450   -0.194191
     95          1           0       -3.599776   -3.430201   -0.379708
     96          1           0       -1.601159   -4.551892    3.434651
     97          1           0       -3.102928   -5.614520    3.512907
     98          1           0       -1.406828   -6.014910    2.652532
     99          1           0        2.758969   -1.770428   -1.523259
    100          1           0        2.586114   -0.229021   -1.978302
    101          1           0        4.184882   -1.008451    0.552328
    102          1           0        4.045863    1.315870   -2.472342
    103          1           0        5.575398    2.196865   -2.022137
    104          1           0        5.569496    0.731942   -3.082374
    105          1           0        6.496267    1.564670    0.059078
    106          1           0        6.597890   -0.027405    0.841728
    107          1           0        7.356071   -1.415184   -1.154596
    108          1           0        7.492671    0.135361   -2.132515
    109          1           0        9.356674    1.021870   -0.114825
    110          1           0        8.839150   -0.408375    0.938097
    111          1           0       10.410175   -0.016082   -1.861838
    112          1           0        9.054146   -2.269916   -1.768337
    113          1           0       10.858736   -2.438387   -1.700568
    114          1           0        9.841512   -2.972977   -0.353947
    115          1           0       11.338813    0.636127    0.482397
    116          1           0       11.308924   -0.989785    0.976793
    117          1           0       12.832874   -1.662253   -1.011050
    118          1           0       12.642629   -0.026705   -1.641238
    119          1           0       13.717446    0.829206    0.355833
    120          1           0       13.922599   -0.789551    1.181137
    121          1           0       15.496550    0.106002   -1.533281
    122          1           0       16.005326   -2.440718    0.193101
    123          1           0       15.039963   -2.151662   -1.537551
    124          1           0       16.795952   -1.766175   -1.359318
    125          1           0       15.951531    1.247818    0.567059
    126          1           0       16.492688   -0.021750    1.464258
    127          1           0       18.371936   -0.348912   -0.530497
    128          1           0       17.692891    1.120709   -1.103074
    129          1           0       18.158309    2.386812    0.810514
    130          1           0       18.630088    0.907402    1.860583
    131          1           0       20.562539    0.628140   -0.061412
    132          1           0       19.980325    3.196188   -1.176133
    133          1           0       21.279712    2.433516   -1.348513
    134          1           0       19.602792    1.756960   -1.815203
    135          1           0       21.026564    1.837155    2.211871
    136          1           0       22.031104    2.232226    1.257699
    137          1           0       20.612336    3.215725    1.486925
 ---------------------------------------------------------------------

 SCF Done:  E(RCAM-B3LYP) =  -2932.54557422     A.U. after   17 cycles

 Excitation energies and oscillator strengths:

 Excited State   1:      Singlet-A      2.0372 eV  608.61 nm  f=0.3377  <S**2>=0.000
     240 -> 243        0.21171
     241 -> 242        0.66711
 This state for optimization and/or second-order correction.
 Total Energy, E(TD-HF/TD-KS) =  -2932.47071007
 Copying the excited state density for this state as the 1-particle RhoCI density.

 The electronic state is 1-A.
 Alpha  occ. eigenvalues --  -46.84465 -19.27257 -19.26205 -19.21948 -19.21159
 Alpha  occ. eigenvalues --  -19.20724 -14.41933 -14.40396 -14.39507 -14.39357
 Alpha  occ. eigenvalues --  -10.41012 -10.39256 -10.35396 -10.31504 -10.31491
 Alpha  occ. eigenvalues --  -10.31203 -10.30603 -10.30435 -10.30260 -10.30066
 Alpha  occ. eigenvalues --  -10.29851 -10.29805 -10.29684 -10.29608 -10.29391
 Alpha  occ. eigenvalues --  -10.29217 -10.28938 -10.28892 -10.28672 -10.28499
 Alpha  occ. eigenvalues --  -10.28491 -10.28158 -10.27661 -10.27515 -10.27463
 Alpha  occ. eigenvalues --  -10.27431 -10.27205 -10.27119 -10.27024 -10.27014
 Alpha  occ. eigenvalues --  -10.26999 -10.26966 -10.26903 -10.26764 -10.26638
 Alpha  occ. eigenvalues --  -10.26622 -10.26619 -10.26537 -10.26384 -10.26314
 Alpha  occ. eigenvalues --  -10.26247 -10.26173 -10.26123 -10.26064 -10.25992
 Alpha  occ. eigenvalues --  -10.25992 -10.25758 -10.25719 -10.25697 -10.25304
 Alpha  occ. eigenvalues --  -10.24901 -10.24833 -10.24114 -10.22771 -10.22689
 Alpha  occ. eigenvalues --   -3.13552  -1.88263  -1.87793  -1.87723  -1.19017
 Alpha  occ. eigenvalues --   -1.18246  -1.10937  -1.09780  -1.07874  -1.05800
 Alpha  occ. eigenvalues --   -1.05063  -1.03720  -1.02532  -0.92752  -0.92174
 Alpha  occ. eigenvalues --   -0.91898  -0.91161  -0.90284  -0.89088  -0.88964
 Alpha  occ. eigenvalues --   -0.88642  -0.88300  -0.88051  -0.87378  -0.86457
 Alpha  occ. eigenvalues --   -0.85421  -0.84408  -0.83553  -0.83200  -0.81494
 Alpha  occ. eigenvalues --   -0.81470  -0.81168  -0.80409  -0.79885  -0.78211
 Alpha  occ. eigenvalues --   -0.77833  -0.77305  -0.76876  -0.76359  -0.76328
 Alpha  occ. eigenvalues --   -0.75252  -0.74574  -0.74317  -0.73722  -0.72605
 Alpha  occ. eigenvalues --   -0.71838  -0.70594  -0.70046  -0.69246  -0.67960
 Alpha  occ. eigenvalues --   -0.67336  -0.66708  -0.65797  -0.65370  -0.64605
 Alpha  occ. eigenvalues --   -0.64114  -0.63994  -0.63720  -0.62379  -0.62117
 Alpha  occ. eigenvalues --   -0.61060  -0.60937  -0.60063  -0.59931  -0.59547
 Alpha  occ. eigenvalues --   -0.59103  -0.58374  -0.57822  -0.57314  -0.56998
 Alpha  occ. eigenvalues --   -0.56428  -0.55757  -0.55634  -0.55271  -0.54782
 Alpha  occ. eigenvalues --   -0.54569  -0.54378  -0.54167  -0.54024  -0.53748
 Alpha  occ. eigenvalues --   -0.53654  -0.53217  -0.52820  -0.52440  -0.52161
 Alpha  occ. eigenvalues --   -0.51973  -0.51583  -0.51299  -0.50972  -0.50799
 Alpha  occ. eigenvalues --   -0.50307  -0.50230  -0.49992  -0.49833  -0.49488
 Alpha  occ. eigenvalues --   -0.49223  -0.49073  -0.48881  -0.48738  -0.48431
 Alpha  occ. eigenvalues --   -0.48297  -0.47928  -0.47819  -0.47308  -0.47279
 Alpha  occ. eigenvalues --   -0.46787  -0.46494  -0.46385  -0.46250  -0.46078
 Alpha  occ. eigenvalues --   -0.45647  -0.45360  -0.45273  -0.45176  -0.44945
 Alpha  occ. eigenvalues --   -0.44638  -0.44543  -0.44281  -0.44111  -0.43952
 Alpha  occ. eigenvalues --   -0.43919  -0.43626  -0.43270  -0.43112  -0.42985
 Alpha  occ. eigenvalues --   -0.42844  -0.42739  -0.42654  -0.42351  -0.42207
 Alpha  occ. eigenvalues --   -0.41863  -0.41650  -0.41615  -0.41415  -0.41207
 Alpha  occ. eigenvalues --   -0.40949  -0.40747  -0.40464  -0.40425  -0.40398
 Alpha  occ. eigenvalues --   -0.40177  -0.39943  -0.39554  -0.39533  -0.39071
 Alpha  occ. eigenvalues --   -0.38589  -0.38537  -0.38299  -0.38208  -0.37823
 Alpha  occ. eigenvalues --   -0.37196  -0.37019  -0.36494  -0.36471  -0.36223
 Alpha  occ. eigenvalues --   -0.36068  -0.35890  -0.35515  -0.35303  -0.35186
 Alpha  occ. eigenvalues --   -0.34830  -0.34626  -0.34352  -0.34164  -0.34018
 Alpha  occ. eigenvalues --   -0.33234  -0.32928  -0.32407  -0.31415  -0.30336
 Alpha  occ. eigenvalues --   -0.29875  -0.29415  -0.28988  -0.27098  -0.23770
 Alpha  occ. eigenvalues --   -0.21486
 Alpha virt. eigenvalues --   -0.07072  -0.02834   0.01497   0.03136   0.03922
 Alpha virt. eigenvalues --    0.05459   0.06038   0.06377   0.06617   0.07515
 Alpha virt. eigenvalues --    0.08218   0.09634   0.10355   0.11010   0.11454

 Mulliken charges:
               1
     1  Mg   0.816696
     2  C    0.066482
     3  C   -0.192986
     4  C   -0.174439
     5  C   -0.127086
     6  N   -0.661839
     7  C    0.320397
     8  C   -0.140526
     9  C   -0.175702
    10  C    0.377202
    11  C   -0.309791
    12  C   -0.152666
    13  C   -0.252894
    14  C    0.619025
    15  O   -0.485125
    16  O   -0.466312
    17  N   -0.715283
    18  C    0.290291
    19  C    0.034167
    20  C    0.034026
    21  C    0.291963
    22  C   -0.356429
    23  C   -0.112643
    24  C   -0.249169
    25  N   -0.679737
    26  C    0.291893
    27  C   -0.004973
    28  C    0.013968
    29  C    0.288532
    30  C   -0.339522
    31  C   -0.255468
    32  C   -0.294083
    33  N   -0.773112
    34  C    0.275603
    35  C    0.048195
    36  C   -0.040017
    37  C    0.354949
    38  C   -0.370954
    39  C    0.346204
    40  O   -0.458034
    41  C   -0.312331
    42  C    0.618173
    43  O   -0.462357
    44  O   -0.452443
    45  C   -0.085529
    46  C    0.024406
    47  C   -0.136261
    48  C    0.153722
    49  C   -0.373298
    50  C   -0.202996
    51  C   -0.167568
    52  C   -0.147260
    53  C   -0.039233
    54  C   -0.286688
    55  C   -0.154745
    56  C   -0.179982
    57  C   -0.176488
    58  C   -0.061375
    59  C   -0.286312
    60  C   -0.155362
    61  C   -0.206989
    62  C   -0.157940
    63  C   -0.044062
    64  C   -0.318261
    65  C   -0.324344
    66  H    0.084609
    67  H    0.090791
    68  H    0.091954
    69  H    0.130732
    70  H    0.102416
    71  H    0.073669
    72  H    0.125066
    73  H    0.130656
    74  H    0.122106
    75  H    0.108878
    76  H    0.139040
    77  H    0.123131
    78  H    0.112178
    79  H    0.082926
    80  H    0.092906
    81  H    0.097935
    82  H    0.098346
    83  H    0.112450
    84  H    0.141156
    85  H    0.123864
    86  H    0.109811
    87  H    0.105356
    88  H    0.088630
    89  H    0.080456
    90  H    0.121911
    91  H    0.101825
    92  H    0.108840
    93  H    0.148241
    94  H    0.143274
    95  H    0.161134
    96  H    0.129393
    97  H    0.136280
    98  H    0.125981
    99  H    0.111090
   100  H    0.115977
   101  H    0.081259
   102  H    0.109463
   103  H    0.057822
   104  H    0.119809
   105  H    0.101399
   106  H    0.087804
   107  H    0.086855
   108  H    0.061552
   109  H    0.109575
   110  H    0.063524
   111  H    0.061784
   112  H    0.119846
   113  H    0.119444
   114  H    0.052525
   115  H    0.048733
   116  H    0.074027
   117  H    0.076366
   118  H    0.085772
   119  H    0.092256
   120  H    0.109413
   121  H    0.075336
   122  H    0.060268
   123  H    0.096251
   124  H    0.109571
   125  H    0.101764
   126  H    0.076729
   127  H    0.097696
   128  H    0.106061
   129  H    0.095761
   130  H    0.048410
   131  H    0.098205
   132  H    0.098028
   133  H    0.082250
   134  H    0.111227
   135  H    0.094690
   136  H    0.111159
   137  H    0.099072
 Sum of Mulliken charges =   0.00000

 Dipole moment (field-independent basis, Debye):
    X=             -0.3891    Y=              2.9444    Z=              0.8255  Tot=              3.0826
 Quadrupole moment (field-independent basis, Debye-Ang):
   XX=           -333.1339   YY=           -401.4089   ZZ=           -399.5073
   XY=             -4.8918   XZ=              9.6023   YZ=             -3.8148

 Normal termination of Gaussian 09 at Sat Jul  6 13:54:53 2019.
