 Gaussian 09, Revision D.01,
 Gaussian 09:  ES64L-G09RevD.01 24-Apr-2013

 -------------------------------------
 # td=(NStates=1) CAM-B3LYP/6-31G(d,p)
 -------------------------------------

 --
 TD
 --
 Symbolic Z-matrix:
 Charge =  0 Multiplicity = 1

                         Standard orientation:
 ---------------------------------------------------------------------
 Center     Atomic      Atomic             Coordinates (Angstroms)
 Number     Number       Type             X           Y           Z
 ---------------------------------------------------------------------
      1         12           0       -7.169867    0.617787    0.100190
      2          6           0       -4.827557   -2.011061    0.465051
      3          6           0       -4.770011    2.909501    1.039442
      4          6           0       -9.426683    3.050218   -0.393260
      5          6           0       -9.559491   -1.776635   -0.889584
      6          7           0       -5.098565    0.431127    0.650183
      7          6           0       -4.339224   -0.719738    0.755221
      8          6           0       -2.876376   -0.352562    1.161327
      9          6           0       -2.958968    1.160405    1.672248
     10          6           0       -4.430616    1.519180    1.010383
     11          6           0       -2.925688    1.267190    3.252657
     12          6           0       -1.943154   -0.505200   -0.048391
     13          6           0       -0.448070   -0.459022    0.500143
     14          6           0        0.573917   -0.684888   -0.566496
     15          8           0        0.298714   -1.153113   -1.665357
     16          8           0        1.813662   -0.293063   -0.141432
     17          7           0       -7.075126    2.610502    0.339658
     18          6           0       -6.030892    3.420602    0.749512
     19          6           0       -6.439179    4.784840    0.818279
     20          6           0       -7.722187    4.830095    0.410666
     21          6           0       -8.185432    3.494396    0.074769
     22          6           0       -5.575748    5.878991    1.120283
     23          6           0       -8.543315    6.057498    0.188048
     24          6           0       -8.464010    7.222768    0.751144
     25          7           0       -9.146991    0.671410   -0.569923
     26          6           0       -9.869519    1.787615   -0.721434
     27          6           0      -11.229722    1.388047   -1.115999
     28          6           0      -11.220763    0.042439   -1.227143
     29          6           0       -9.873686   -0.400024   -0.993125
     30          6           0      -12.305510    2.405040   -1.383255
     31          6           0      -12.334400   -0.856010   -1.684340
     32          6           0      -12.369467   -1.278489   -3.135180
     33          7           0       -7.204933   -1.381990   -0.169409
     34          6           0       -8.335359   -2.196226   -0.554204
     35          6           0       -7.784749   -3.631101   -0.677247
     36          6           0       -6.417472   -3.665610   -0.258560
     37          6           0       -6.158183   -2.184170    0.036703
     38          6           0       -8.464038   -4.985403   -0.873030
     39          6           0       -5.247693   -4.370735    0.133711
     40          8           0       -5.136774   -5.561338    0.191336
     41          6           0       -4.018011   -3.292466    0.598955
     42          6           0       -3.634013   -3.679862    1.971507
     43          8           0       -3.865301   -3.054251    3.032613
     44          8           0       -2.780083   -4.666006    1.905689
     45          6           0       -2.187960   -5.179021    3.128631
     46          6           0        2.801827   -0.598364   -1.131933
     47          6           0        4.248564   -0.404763   -0.523539
     48          6           0        5.130591    0.459816   -0.951688
     49          6           0        5.070094    1.392118   -2.081313
     50          6           0        6.373208    0.533658   -0.204115
     51          6           0        7.533549   -0.244826   -0.871998
     52          6           0        8.843090   -0.148852   -0.078453
     53          6           0       10.222398   -0.575181   -0.765083
     54          6           0       10.001120   -2.036063   -1.345369
     55          6           0       11.369617   -0.333265    0.136222
     56          6           0       12.764508   -0.467398   -0.573648
     57          6           0       13.933727   -0.212545    0.225911
     58          6           0       15.329008   -0.236222   -0.480627
     59          6           0       15.816588   -1.749609   -0.817044
     60          6           0       16.427086    0.474388    0.435174
     61          6           0       17.811277    0.559443   -0.215314
     62          6           0       18.776227    1.245207    0.697462
     63          6           0       20.246915    1.246566    0.170042
     64          6           0       20.391680    1.922475   -1.252449
     65          6           0       21.212963    2.054588    1.142153
     66          1           0       -4.070169    3.505213    1.393595
     67          1           0      -10.217724    3.783979   -0.456258
     68          1           0      -10.341524   -2.613129   -1.192309
     69          1           0       -2.416912   -0.899050    1.963854
     70          1           0       -2.216382    1.917479    1.282138
     71          1           0       -1.933812    1.227809    3.638767
     72          1           0       -3.051904    2.469958    3.182045
     73          1           0       -3.784354    0.848520    3.592928
     74          1           0       -2.001048   -1.613003   -0.519182
     75          1           0       -1.988449    0.281602   -0.923495
     76          1           0       -0.217970    0.565177    0.920962
     77          1           0       -0.249066   -1.125215    1.387319
     78          1           0       -6.040288    6.907769    0.798642
     79          1           0       -5.443667    6.202123    2.127106
     80          1           0       -4.518319    5.743888    0.716940
     81          1           0       -9.326124    5.733918   -0.564225
     82          1           0       -8.926225    8.145878    0.275796
     83          1           0       -7.629551    7.446915    1.323654
     84          1           0      -12.208410    2.963168   -2.456766
     85          1           0      -13.262738    1.979013   -1.646913
     86          1           0      -12.448067    3.301103   -0.598825
     87          1           0      -12.545338   -1.660476   -0.992481
     88          1           0      -13.304496   -0.236480   -1.479921
     89          1           0      -13.221381   -2.043715   -3.813982
     90          1           0      -12.310420   -0.276213   -3.773576
     91          1           0      -11.547650   -1.902099   -3.381932
     92          1           0       -8.928439   -5.025434   -1.769802
     93          1           0       -7.751210   -5.795912   -0.505522
     94          1           0       -9.346077   -5.215762   -0.122209
     95          1           0       -3.327162   -3.533038   -0.293277
     96          1           0       -1.751934   -4.287002    3.717543
     97          1           0       -2.983570   -5.372291    3.733816
     98          1           0       -1.493761   -5.927018    2.746662
     99          1           0        2.618739   -1.589699   -1.587429
    100          1           0        2.653200    0.171166   -2.058388
    101          1           0        4.409634   -1.255521    0.229041
    102          1           0        4.156888    1.274243   -2.693428
    103          1           0        5.211142    2.488264   -1.839350
    104          1           0        5.915476    1.257722   -2.786913
    105          1           0        6.674014    1.655890   -0.009302
    106          1           0        6.247636    0.134893    0.702515
    107          1           0        7.223853   -1.262017   -1.191108
    108          1           0        7.795982    0.353065   -1.786021
    109          1           0        9.185129    0.896352    0.103700
    110          1           0        8.734344   -0.643847    0.939189
    111          1           0       10.190809    0.079923   -1.641919
    112          1           0        9.043935   -2.213022   -1.805868
    113          1           0       10.861857   -2.508495   -1.930410
    114          1           0        9.964431   -2.602160   -0.477157
    115          1           0       11.391180    0.733379    0.628718
    116          1           0       11.079000   -1.234130    1.030897
    117          1           0       12.733793   -1.551478   -0.765760
    118          1           0       12.650552    0.415169   -1.438872
    119          1           0       13.793277    0.823375    0.477534
    120          1           0       14.035453   -0.970995    1.157785
    121          1           0       15.242726    0.401400   -1.443461
    122          1           0       16.031622   -2.271737    0.144558
    123          1           0       14.843851   -2.285151   -1.221179
    124          1           0       16.537056   -1.750141   -1.672827
    125          1           0       16.035728    1.404631    0.653495
    126          1           0       16.407610   -0.065685    1.376996
    127          1           0       18.009360   -0.577301   -0.518956
    128          1           0       17.851288    1.159779   -1.150454
    129          1           0       18.394524    2.275755    0.641095
    130          1           0       18.690911    0.954519    1.769258
    131          1           0       20.434608    0.119809    0.100906
    132          1           0       19.932253    3.101332   -1.486429
    133          1           0       21.452331    1.968112   -1.635325
    134          1           0       19.664287    1.390501   -1.758542
    135          1           0       21.137580    1.560055    2.000602
    136          1           0       22.143399    2.305209    0.754498
    137          1           0       20.735798    3.219897    1.347639
 ---------------------------------------------------------------------

 SCF Done:  E(RCAM-B3LYP) =  -2932.67168988     A.U. after   18 cycles

 Excitation energies and oscillator strengths:

 Excited State   1:      Singlet-A      2.0668 eV  599.89 nm  f=0.2197  <S**2>=0.000
     240 -> 243       -0.26415
     241 -> 242        0.64462
 This state for optimization and/or second-order correction.
 Total Energy, E(TD-HF/TD-KS) =  -2932.59573722
 Copying the excited state density for this state as the 1-particle RhoCI density.

 The electronic state is 1-A.
 Alpha  occ. eigenvalues --  -46.84327 -19.26813 -19.26420 -19.21206 -19.21174
 Alpha  occ. eigenvalues --  -19.19986 -14.42240 -14.40771 -14.39372 -14.39292
 Alpha  occ. eigenvalues --  -10.39219 -10.39200 -10.35965 -10.32478 -10.31797
 Alpha  occ. eigenvalues --  -10.31650 -10.31558 -10.30848 -10.30517 -10.30456
 Alpha  occ. eigenvalues --  -10.29663 -10.29606 -10.29487 -10.28675 -10.28613
 Alpha  occ. eigenvalues --  -10.28544 -10.28434 -10.28211 -10.28027 -10.27939
 Alpha  occ. eigenvalues --  -10.27599 -10.27559 -10.27545 -10.27428 -10.27307
 Alpha  occ. eigenvalues --  -10.27220 -10.27135 -10.27043 -10.26877 -10.26828
 Alpha  occ. eigenvalues --  -10.26791 -10.26671 -10.26659 -10.26648 -10.26585
 Alpha  occ. eigenvalues --  -10.26410 -10.26363 -10.26338 -10.26324 -10.26199
 Alpha  occ. eigenvalues --  -10.26105 -10.26066 -10.25993 -10.25854 -10.25850
 Alpha  occ. eigenvalues --  -10.25834 -10.25634 -10.25529 -10.25417 -10.25085
 Alpha  occ. eigenvalues --  -10.25016 -10.24900 -10.24507 -10.24330 -10.24285
 Alpha  occ. eigenvalues --   -3.13377  -1.88084  -1.87609  -1.87563  -1.18797
 Alpha  occ. eigenvalues --   -1.17943  -1.12860  -1.09155  -1.07044  -1.04155
 Alpha  occ. eigenvalues --   -1.03694  -1.02205  -1.01589  -0.92385  -0.91950
 Alpha  occ. eigenvalues --   -0.90523  -0.89596  -0.89377  -0.89164  -0.88893
 Alpha  occ. eigenvalues --   -0.87942  -0.87594  -0.87270  -0.87004  -0.85350
 Alpha  occ. eigenvalues --   -0.84815  -0.84278  -0.84157  -0.82865  -0.82458
 Alpha  occ. eigenvalues --   -0.82279  -0.81172  -0.80164  -0.79693  -0.78311
 Alpha  occ. eigenvalues --   -0.78025  -0.77101  -0.76523  -0.76200  -0.75436
 Alpha  occ. eigenvalues --   -0.75220  -0.74740  -0.74375  -0.72864  -0.72073
 Alpha  occ. eigenvalues --   -0.71350  -0.69852  -0.69214  -0.68615  -0.68341
 Alpha  occ. eigenvalues --   -0.66985  -0.66590  -0.65162  -0.64823  -0.64156
 Alpha  occ. eigenvalues --   -0.63945  -0.62742  -0.62492  -0.62191  -0.61699
 Alpha  occ. eigenvalues --   -0.60825  -0.60727  -0.60112  -0.59742  -0.59405
 Alpha  occ. eigenvalues --   -0.59079  -0.58490  -0.57906  -0.57397  -0.56362
 Alpha  occ. eigenvalues --   -0.56156  -0.56000  -0.55823  -0.55433  -0.54640
 Alpha  occ. eigenvalues --   -0.54458  -0.54013  -0.53819  -0.53505  -0.53231
 Alpha  occ. eigenvalues --   -0.53012  -0.52598  -0.51953  -0.51789  -0.51758
 Alpha  occ. eigenvalues --   -0.51372  -0.51340  -0.51132  -0.50589  -0.50438
 Alpha  occ. eigenvalues --   -0.50323  -0.50003  -0.49956  -0.49754  -0.49605
 Alpha  occ. eigenvalues --   -0.49438  -0.49305  -0.48920  -0.48838  -0.48520
 Alpha  occ. eigenvalues --   -0.48331  -0.48291  -0.48070  -0.47857  -0.47052
 Alpha  occ. eigenvalues --   -0.46896  -0.46825  -0.46504  -0.46028  -0.45827
 Alpha  occ. eigenvalues --   -0.45619  -0.45525  -0.45299  -0.45104  -0.44985
 Alpha  occ. eigenvalues --   -0.44715  -0.44479  -0.44427  -0.44012  -0.43980
 Alpha  occ. eigenvalues --   -0.43541  -0.43514  -0.43404  -0.43324  -0.43259
 Alpha  occ. eigenvalues --   -0.43222  -0.43023  -0.42694  -0.42530  -0.42297
 Alpha  occ. eigenvalues --   -0.42124  -0.41862  -0.41753  -0.41504  -0.41261
 Alpha  occ. eigenvalues --   -0.40911  -0.40731  -0.40613  -0.40213  -0.40120
 Alpha  occ. eigenvalues --   -0.39851  -0.39376  -0.39112  -0.39025  -0.38724
 Alpha  occ. eigenvalues --   -0.38332  -0.38134  -0.37985  -0.37602  -0.37560
 Alpha  occ. eigenvalues --   -0.37264  -0.37104  -0.36807  -0.36442  -0.36180
 Alpha  occ. eigenvalues --   -0.35980  -0.35972  -0.35736  -0.35472  -0.35229
 Alpha  occ. eigenvalues --   -0.35091  -0.34538  -0.34381  -0.34041  -0.33545
 Alpha  occ. eigenvalues --   -0.33362  -0.32864  -0.32556  -0.31035  -0.30327
 Alpha  occ. eigenvalues --   -0.30256  -0.29876  -0.28632  -0.27992  -0.23803
 Alpha  occ. eigenvalues --   -0.20988
 Alpha virt. eigenvalues --   -0.06103  -0.03640   0.00831   0.04460   0.05168
 Alpha virt. eigenvalues --    0.05811   0.06071   0.06247   0.06784   0.07152
 Alpha virt. eigenvalues --    0.08107   0.10562   0.10791   0.11420   0.11857

 Mulliken charges:
               1
     1  Mg   0.821514
     2  C    0.039561
     3  C   -0.171452
     4  C   -0.182891
     5  C   -0.171483
     6  N   -0.634983
     7  C    0.308805
     8  C   -0.143093
     9  C   -0.167347
    10  C    0.325018
    11  C   -0.286737
    12  C   -0.157482
    13  C   -0.283010
    14  C    0.621214
    15  O   -0.478441
    16  O   -0.466431
    17  N   -0.736275
    18  C    0.328452
    19  C    0.081829
    20  C   -0.007286
    21  C    0.291127
    22  C   -0.412024
    23  C   -0.018982
    24  C   -0.265509
    25  N   -0.685365
    26  C    0.309105
    27  C    0.055673
    28  C    0.010705
    29  C    0.268575
    30  C   -0.384318
    31  C   -0.252668
    32  C   -0.279485
    33  N   -0.734954
    34  C    0.301058
    35  C   -0.028219
    36  C    0.061823
    37  C    0.318101
    38  C   -0.377303
    39  C    0.310640
    40  O   -0.438237
    41  C   -0.326275
    42  C    0.644938
    43  O   -0.518199
    44  O   -0.435809
    45  C   -0.081935
    46  C   -0.000322
    47  C   -0.156782
    48  C    0.170693
    49  C   -0.371926
    50  C   -0.223611
    51  C   -0.178370
    52  C   -0.177568
    53  C   -0.062565
    54  C   -0.322474
    55  C   -0.154823
    56  C   -0.158152
    57  C   -0.149275
    58  C   -0.068117
    59  C   -0.320073
    60  C   -0.169351
    61  C   -0.179360
    62  C   -0.170944
    63  C   -0.064801
    64  C   -0.299443
    65  C   -0.284554
    66  H    0.058595
    67  H    0.089649
    68  H    0.116980
    69  H    0.122018
    70  H    0.098895
    71  H    0.127640
    72  H    0.076156
    73  H    0.143776
    74  H    0.108011
    75  H    0.112386
    76  H    0.126087
    77  H    0.134024
    78  H    0.103266
    79  H    0.133347
    80  H    0.112991
    81  H    0.086598
    82  H    0.102765
    83  H    0.092798
    84  H    0.097658
    85  H    0.120931
    86  H    0.107877
    87  H    0.110501
    88  H    0.092292
    89  H    0.063570
    90  H    0.096329
    91  H    0.116630
    92  H    0.134078
    93  H    0.155817
    94  H    0.108839
    95  H    0.174432
    96  H    0.121749
    97  H    0.151365
    98  H    0.139289
    99  H    0.133316
   100  H    0.089949
   101  H    0.094088
   102  H    0.110393
   103  H    0.116598
   104  H    0.124141
   105  H    0.082408
   106  H    0.111663
   107  H    0.103317
   108  H    0.089948
   109  H    0.089699
   110  H    0.076867
   111  H    0.082048
   112  H    0.108494
   113  H    0.093525
   114  H    0.105910
   115  H    0.078166
   116  H    0.047485
   117  H    0.103525
   118  H    0.075163
   119  H    0.086558
   120  H    0.072073
   121  H    0.068408
   122  H    0.107650
   123  H    0.082646
   124  H    0.115509
   125  H    0.093754
   126  H    0.090448
   127  H    0.074803
   128  H    0.097136
   129  H    0.096873
   130  H    0.087570
   131  H    0.089213
   132  H    0.056270
   133  H    0.105951
   134  H    0.112755
   135  H    0.110247
   136  H    0.110621
   137  H    0.057344
 Sum of Mulliken charges =   0.00000

 Dipole moment (field-independent basis, Debye):
    X=              2.5903    Y=              2.7458    Z=              0.4996  Tot=              3.8077
 Quadrupole moment (field-independent basis, Debye-Ang):
   XX=           -375.7800   YY=           -387.3333   ZZ=           -401.5773
   XY=            -10.2336   XZ=             10.4724   YZ=             -5.1466

 Normal termination of Gaussian 09 at Thu Jul  4 09:52:37 2019.
