 Gaussian 16, Revision A.03,
 Gaussian 16:  ES64L-G16RevA.03 25-Dec-2016

 ----------------------------------------------------------------------
 # td=(NStates=1) iop(3/107=0140000000,3/108=0140000000) CAM-B3LYP/6-31
 G(d,p)
 ----------------------------------------------------------------------

 --
 TD
 --
 Symbolic Z-matrix:
 Charge =  0 Multiplicity = 1

                         Standard orientation:
 ---------------------------------------------------------------------
 Center     Atomic      Atomic             Coordinates (Angstroms)
 Number     Number       Type             X           Y           Z
 ---------------------------------------------------------------------
      1         12           0       -7.137706    0.643758    0.033459
      2          6           0       -4.824926   -2.012542    0.457881
      3          6           0       -4.799031    2.802008    1.173371
      4          6           0       -9.364820    3.143070   -0.446330
      5          6           0       -9.518473   -1.796932   -0.995008
      6          7           0       -5.067601    0.414634    0.611142
      7          6           0       -4.330593   -0.775648    0.769092
      8          6           0       -2.902549   -0.409294    1.263727
      9          6           0       -3.098832    1.003289    1.846063
     10          6           0       -4.414060    1.436658    1.250135
     11          6           0       -3.110076    1.147661    3.432874
     12          6           0       -1.916957   -0.601836    0.078849
     13          6           0       -0.468731   -0.482490    0.593404
     14          6           0        0.542315   -0.546571   -0.529022
     15          8           0        0.231934   -0.969756   -1.649390
     16          8           0        1.760739   -0.305969   -0.205343
     17          7           0       -7.117887    2.644094    0.291415
     18          6           0       -6.037825    3.341605    0.813331
     19          6           0       -6.314577    4.791370    0.779682
     20          6           0       -7.673749    4.966651    0.321210
     21          6           0       -8.070760    3.600482    0.010283
     22          6           0       -5.404326    5.890740    1.097806
     23          6           0       -8.415141    6.146278    0.113592
     24          6           0       -8.295781    7.292810    0.742861
     25          7           0       -9.024683    0.671381   -0.533674
     26          6           0       -9.796961    1.790520   -0.600871
     27          6           0      -11.049553    1.530764   -1.147208
     28          6           0      -11.230338    0.135111   -1.304440
     29          6           0       -9.830593   -0.413102   -0.996205
     30          6           0      -12.259052    2.440280   -1.308528
     31          6           0      -12.321951   -0.702386   -1.713621
     32          6           0      -12.359090   -1.065756   -3.051616
     33          7           0       -7.191369   -1.428210   -0.152738
     34          6           0       -8.261305   -2.233364   -0.563386
     35          6           0       -7.823822   -3.645327   -0.552707
     36          6           0       -6.534117   -3.613207   -0.137508
     37          6           0       -6.159090   -2.251453    0.089637
     38          6           0       -8.648167   -4.826137   -0.947220
     39          6           0       -5.379702   -4.388480    0.219436
     40          8           0       -5.337801   -5.572353    0.263895
     41          6           0       -4.224201   -3.479801    0.541956
     42          6           0       -3.516397   -3.726576    1.884327
     43          8           0       -3.758721   -3.240257    2.945921
     44          8           0       -2.722110   -4.846590    1.644310
     45          6           0       -2.057623   -5.300737    2.808309
     46          6           0        2.776694   -0.624443   -1.254741
     47          6           0        4.057963   -0.438413   -0.531830
     48          6           0        5.086390    0.439547   -1.021022
     49          6           0        5.051287    1.390461   -2.102762
     50          6           0        6.433678    0.406231   -0.159735
     51          6           0        7.605003   -0.070868   -0.921018
     52          6           0        8.799416   -0.085951   -0.090543
     53          6           0       10.092415   -0.554427   -0.857502
     54          6           0       10.039387   -1.970926   -1.383140
     55          6           0       11.358859   -0.307821   -0.065597
     56          6           0       12.715238   -0.528105   -0.832592
     57          6           0       13.856467   -0.174007    0.068360
     58          6           0       15.337908   -0.238687   -0.546147
     59          6           0       15.728105   -1.689281   -0.943009
     60          6           0       16.385940    0.470351    0.347154
     61          6           0       17.826091    0.510228   -0.182805
     62          6           0       18.836649    1.246078    0.735365
     63          6           0       20.232384    1.377352    0.244026
     64          6           0       20.383885    2.109077   -1.048772
     65          6           0       21.128722    1.817141    1.391409
     66          1           0       -4.015267    3.546482    1.610623
     67          1           0      -10.084427    3.822842   -0.657195
     68          1           0      -10.281599   -2.384213   -1.316913
     69          1           0       -2.604340   -1.196965    2.013619
     70          1           0       -2.231409    1.773738    1.840140
     71          1           0       -2.119349    0.846042    3.756353
     72          1           0       -3.208213    2.211798    3.745550
     73          1           0       -3.586107    0.336826    4.075542
     74          1           0       -1.824625   -1.744153   -0.223846
     75          1           0       -2.511379    0.088573   -0.686736
     76          1           0       -0.262392    0.514741    1.112191
     77          1           0       -0.247248   -1.273952    1.355616
     78          1           0       -5.670917    6.811522    0.507584
     79          1           0       -5.514845    6.546077    2.195847
     80          1           0       -4.479695    5.565678    1.035856
     81          1           0       -9.283428    6.062574   -0.697880
     82          1           0       -9.014202    8.103874    0.413321
     83          1           0       -7.595183    7.346716    1.596242
     84          1           0      -11.933116    3.009803   -2.102869
     85          1           0      -13.065126    1.837122   -1.571037
     86          1           0      -12.387920    3.094760   -0.362491
     87          1           0      -12.271663   -1.816659   -1.106137
     88          1           0      -13.309716   -0.236859   -1.428483
     89          1           0      -13.141689   -1.598643   -3.419253
     90          1           0      -12.304037   -0.101709   -3.703424
     91          1           0      -11.379715   -1.634734   -3.421335
     92          1           0       -9.160939   -4.557204   -1.862715
     93          1           0       -7.998293   -5.822678   -0.676441
     94          1           0       -9.449009   -4.703611   -0.358095
     95          1           0       -3.396180   -3.419556   -0.310684
     96          1           0       -1.422000   -4.464318    3.486589
     97          1           0       -2.712745   -5.516734    3.717581
     98          1           0       -1.398850   -6.103454    2.467181
     99          1           0        2.723427   -1.643729   -1.663800
    100          1           0        2.545714   -0.047752   -2.135198
    101          1           0        4.096816   -1.125593    0.348950
    102          1           0        4.047543    1.779816   -2.412614
    103          1           0        5.417922    2.461333   -1.536741
    104          1           0        5.635587    1.262853   -3.000352
    105          1           0        6.706422    1.323704    0.369852
    106          1           0        6.177405   -0.347513    0.624767
    107          1           0        7.231681   -1.119814   -1.327633
    108          1           0        7.756763    0.489790   -1.750490
    109          1           0        8.798197    1.002639    0.335059
    110          1           0        8.790258   -0.798883    0.663221
    111          1           0       10.375818    0.184639   -1.652302
    112          1           0        9.183608   -2.288115   -2.119396
    113          1           0       10.971952   -2.281665   -1.847957
    114          1           0       10.148837   -2.672183   -0.449538
    115          1           0       11.455507    0.734509    0.414166
    116          1           0       11.105852   -0.866005    0.846571
    117          1           0       12.751086   -1.552079   -1.121238
    118          1           0       12.579910   -0.020604   -1.840895
    119          1           0       13.669491    0.807413    0.357603
    120          1           0       13.846429   -0.743014    1.107219
    121          1           0       15.179105    0.184494   -1.483772
    122          1           0       15.826926   -2.358053    0.078698
    123          1           0       14.922423   -2.073711   -1.603839
    124          1           0       16.607177   -1.643023   -1.493034
    125          1           0       15.937072    1.584323    0.503348
    126          1           0       16.265088    0.072300    1.488574
    127          1           0       18.142711   -0.616097   -0.214514
    128          1           0       17.819885    0.984213   -1.360018
    129          1           0       18.470027    2.183715    0.887253
    130          1           0       18.830546    0.869355    1.909044
    131          1           0       20.514293    0.420501    0.013395
    132          1           0       20.268018    3.122722   -0.899263
    133          1           0       21.385442    1.882401   -1.206386
    134          1           0       19.460999    1.901192   -1.858943
    135          1           0       21.083864    1.030645    2.210458
    136          1           0       22.183938    2.174783    1.143370
    137          1           0       20.853019    2.810620    1.706860
 ---------------------------------------------------------------------

 SCF Done:  E(RCAM-B3LYP) =  -2933.49536141     A.U. after   16 cycles

 Excitation energies and oscillator strengths:

 Excited State   1:      Singlet-A      1.9966 eV  620.99 nm  f=0.2362  <S**2>=0.000
     240 -> 243       -0.24026
     241 -> 242        0.66088
 This state for optimization and/or second-order correction.
 Total Energy, E(TD-HF/TD-DFT) =  -2933.42198929
 Copying the excited state density for this state as the 1-particle RhoCI density.

 The electronic state is 1-A.
 Alpha  occ. eigenvalues --  -46.79299 -19.22817 -19.22561 -19.18720 -19.15389
 Alpha  occ. eigenvalues --  -19.14737 -14.37783 -14.35345 -14.34951 -14.34849
 Alpha  occ. eigenvalues --  -10.35496 -10.33465 -10.29493 -10.28070 -10.27513
 Alpha  occ. eigenvalues --  -10.26690 -10.26237 -10.25647 -10.25330 -10.25134
 Alpha  occ. eigenvalues --  -10.24898 -10.24877 -10.24778 -10.24622 -10.24211
 Alpha  occ. eigenvalues --  -10.24187 -10.24088 -10.23794 -10.23638 -10.23630
 Alpha  occ. eigenvalues --  -10.23594 -10.23284 -10.23236 -10.23186 -10.23110
 Alpha  occ. eigenvalues --  -10.23092 -10.23041 -10.22707 -10.22589 -10.22567
 Alpha  occ. eigenvalues --  -10.22529 -10.22216 -10.22109 -10.22072 -10.21968
 Alpha  occ. eigenvalues --  -10.21840 -10.21827 -10.21713 -10.21511 -10.21448
 Alpha  occ. eigenvalues --  -10.21404 -10.21377 -10.21325 -10.21011 -10.20971
 Alpha  occ. eigenvalues --  -10.20963 -10.20894 -10.20874 -10.20867 -10.20650
 Alpha  occ. eigenvalues --  -10.20647 -10.20124 -10.19971 -10.19933 -10.19718
 Alpha  occ. eigenvalues --   -3.07969  -1.82905  -1.82434  -1.82387  -1.14303
 Alpha  occ. eigenvalues --   -1.13503  -1.07605  -1.06317  -1.02196  -0.98484
 Alpha  occ. eigenvalues --   -0.97557  -0.97102  -0.95947  -0.87159  -0.86559
 Alpha  occ. eigenvalues --   -0.85510  -0.85255  -0.84843  -0.84488  -0.84175
 Alpha  occ. eigenvalues --   -0.83289  -0.83218  -0.82460  -0.82083  -0.81543
 Alpha  occ. eigenvalues --   -0.80403  -0.79591  -0.79258  -0.78361  -0.77911
 Alpha  occ. eigenvalues --   -0.77336  -0.76388  -0.75711  -0.75444  -0.73892
 Alpha  occ. eigenvalues --   -0.73179  -0.72172  -0.71695  -0.71375  -0.71204
 Alpha  occ. eigenvalues --   -0.70202  -0.70007  -0.69688  -0.68383  -0.67842
 Alpha  occ. eigenvalues --   -0.67100  -0.65675  -0.64808  -0.64405  -0.63568
 Alpha  occ. eigenvalues --   -0.62544  -0.61806  -0.60790  -0.60389  -0.60323
 Alpha  occ. eigenvalues --   -0.59901  -0.59393  -0.59082  -0.58642  -0.58359
 Alpha  occ. eigenvalues --   -0.57294  -0.56737  -0.55966  -0.55436  -0.55189
 Alpha  occ. eigenvalues --   -0.54454  -0.54055  -0.53446  -0.53107  -0.52729
 Alpha  occ. eigenvalues --   -0.52068  -0.51994  -0.51471  -0.51085  -0.50958
 Alpha  occ. eigenvalues --   -0.50796  -0.50515  -0.50081  -0.49223  -0.49157
 Alpha  occ. eigenvalues --   -0.49066  -0.48854  -0.48482  -0.48130  -0.48002
 Alpha  occ. eigenvalues --   -0.47556  -0.47362  -0.47126  -0.47008  -0.46942
 Alpha  occ. eigenvalues --   -0.46914  -0.46648  -0.46518  -0.46329  -0.46116
 Alpha  occ. eigenvalues --   -0.45573  -0.45517  -0.45304  -0.45229  -0.45078
 Alpha  occ. eigenvalues --   -0.44967  -0.44834  -0.44654  -0.44358  -0.43981
 Alpha  occ. eigenvalues --   -0.43809  -0.43576  -0.42955  -0.42754  -0.42680
 Alpha  occ. eigenvalues --   -0.42438  -0.42187  -0.41941  -0.41794  -0.41560
 Alpha  occ. eigenvalues --   -0.41527  -0.41011  -0.40865  -0.40700  -0.40522
 Alpha  occ. eigenvalues --   -0.40335  -0.40299  -0.39931  -0.39606  -0.39491
 Alpha  occ. eigenvalues --   -0.39478  -0.39354  -0.39274  -0.38921  -0.38773
 Alpha  occ. eigenvalues --   -0.38692  -0.38628  -0.38318  -0.38093  -0.37976
 Alpha  occ. eigenvalues --   -0.37913  -0.37531  -0.37295  -0.37226  -0.36929
 Alpha  occ. eigenvalues --   -0.36789  -0.36553  -0.36189  -0.36149  -0.35796
 Alpha  occ. eigenvalues --   -0.35578  -0.35541  -0.34978  -0.34620  -0.34270
 Alpha  occ. eigenvalues --   -0.34147  -0.34045  -0.33809  -0.33647  -0.33261
 Alpha  occ. eigenvalues --   -0.33124  -0.32883  -0.32745  -0.32644  -0.32283
 Alpha  occ. eigenvalues --   -0.32196  -0.32113  -0.32018  -0.31663  -0.30853
 Alpha  occ. eigenvalues --   -0.30243  -0.29302  -0.29016  -0.28036  -0.26821
 Alpha  occ. eigenvalues --   -0.26711  -0.26375  -0.25313  -0.24412  -0.21449
 Alpha  occ. eigenvalues --   -0.19582
 Alpha virt. eigenvalues --   -0.06843  -0.03983   0.00129   0.01850   0.02011
 Alpha virt. eigenvalues --    0.03120   0.04537   0.04901   0.05201   0.05749
 Alpha virt. eigenvalues --    0.06335   0.08294   0.08903   0.08923   0.09659

 Mulliken charges:
               1
     1  Mg   0.818551
     2  C    0.067706
     3  C   -0.210460
     4  C   -0.161894
     5  C   -0.129118
     6  N   -0.623121
     7  C    0.250402
     8  C   -0.159074
     9  C   -0.140570
    10  C    0.364477
    11  C   -0.331844
    12  C   -0.130325
    13  C   -0.278270
    14  C    0.603134
    15  O   -0.503838
    16  O   -0.438407
    17  N   -0.709128
    18  C    0.336855
    19  C    0.013124
    20  C    0.062161
    21  C    0.275676
    22  C   -0.369555
    23  C   -0.073521
    24  C   -0.249115
    25  N   -0.715600
    26  C    0.342016
    27  C   -0.023219
    28  C    0.059696
    29  C    0.245372
    30  C   -0.350224
    31  C   -0.251144
    32  C   -0.276725
    33  N   -0.722165
    34  C    0.275520
    35  C   -0.011455
    36  C    0.044835
    37  C    0.285094
    38  C   -0.371081
    39  C    0.370537
    40  O   -0.445768
    41  C   -0.308879
    42  C    0.623037
    43  O   -0.437756
    44  O   -0.429521
    45  C   -0.086678
    46  C   -0.008008
    47  C   -0.136226
    48  C    0.122026
    49  C   -0.372311
    50  C   -0.225545
    51  C   -0.147965
    52  C   -0.154512
    53  C   -0.066503
    54  C   -0.311396
    55  C   -0.181577
    56  C   -0.186286
    57  C   -0.169760
    58  C   -0.059070
    59  C   -0.301799
    60  C   -0.153955
    61  C   -0.164096
    62  C   -0.154194
    63  C   -0.049368
    64  C   -0.299173
    65  C   -0.322822
    66  H    0.074586
    67  H    0.062106
    68  H    0.070085
    69  H    0.102813
    70  H    0.105887
    71  H    0.107464
    72  H    0.115466
    73  H    0.121510
    74  H    0.107504
    75  H    0.115963
    76  H    0.114632
    77  H    0.139120
    78  H    0.129381
    79  H    0.074835
    80  H    0.116548
    81  H    0.080748
    82  H    0.101613
    83  H    0.103572
    84  H    0.133907
    85  H    0.109806
    86  H    0.113422
    87  H    0.067215
    88  H    0.101394
    89  H    0.118058
    90  H    0.087189
    91  H    0.087232
    92  H    0.126446
    93  H    0.144591
    94  H    0.141458
    95  H    0.159264
    96  H    0.079466
    97  H    0.130793
    98  H    0.128178
    99  H    0.138051
   100  H    0.132684
   101  H    0.105991
   102  H    0.122330
   103  H    0.087985
   104  H    0.139364
   105  H    0.091057
   106  H    0.094366
   107  H    0.074366
   108  H    0.103727
   109  H    0.076233
   110  H    0.098572
   111  H    0.071504
   112  H    0.101642
   113  H    0.112147
   114  H    0.083446
   115  H    0.076666
   116  H    0.079681
   117  H    0.105983
   118  H    0.088733
   119  H    0.097325
   120  H    0.075537
   121  H    0.091410
   122  H    0.073443
   123  H    0.095705
   124  H    0.114134
   125  H    0.064277
   126  H    0.072927
   127  H    0.091842
   128  H    0.064352
   129  H    0.099771
   130  H    0.055899
   131  H    0.098007
   132  H    0.106843
   133  H    0.112712
   134  H    0.075878
   135  H    0.105901
   136  H    0.085457
   137  H    0.104602
 Sum of Mulliken charges =  -0.00000

 Dipole moment (field-independent basis, Debye):
    X=              2.7175    Y=              4.0632    Z=              0.1728  Tot=              4.8913
 Quadrupole moment (field-independent basis, Debye-Ang):
   XX=           -341.7923   YY=           -397.2172   ZZ=           -396.7599
   XY=            -12.0580   XZ=             11.4156   YZ=             -0.9994

 Normal termination of Gaussian 16 at Fri Sep 13 06:26:40 2019.
