 Gaussian 09, Revision D.01,
 Gaussian 09:  ES64L-G09RevD.01 24-Apr-2013

 -------------------------------------
 # td=(NStates=1) CAM-B3LYP/6-31G(d,p)
 -------------------------------------

 --
 TD
 --
 Symbolic Z-matrix:
 Charge =  0 Multiplicity = 1

                         Standard orientation:
 ---------------------------------------------------------------------
 Center     Atomic      Atomic             Coordinates (Angstroms)
 Number     Number       Type             X           Y           Z
 ---------------------------------------------------------------------
      1         12           0       -7.131329    0.603514    0.140080
      2          6           0       -4.915379   -1.984774    0.528840
      3          6           0       -4.759165    2.920044    1.099931
      4          6           0       -9.401676    3.082008   -0.490910
      5          6           0       -9.565731   -1.760111   -0.848529
      6          7           0       -5.126789    0.410104    0.730177
      7          6           0       -4.334583   -0.713141    0.945962
      8          6           0       -2.950905   -0.413172    1.263895
      9          6           0       -3.004332    1.103145    1.738938
     10          6           0       -4.367067    1.542502    1.065520
     11          6           0       -2.955961    1.229212    3.211105
     12          6           0       -1.919803   -0.705016    0.151884
     13          6           0       -0.487101   -0.488918    0.604488
     14          6           0        0.491678   -0.670143   -0.543413
     15          8           0        0.171602   -0.908446   -1.698351
     16          8           0        1.702085   -0.399973   -0.181763
     17          7           0       -7.050983    2.618799    0.173055
     18          6           0       -6.007134    3.348594    0.680775
     19          6           0       -6.408248    4.769536    0.772440
     20          6           0       -7.634510    4.935713    0.228610
     21          6           0       -8.133675    3.524226   -0.084589
     22          6           0       -5.513245    5.791295    1.384390
     23          6           0       -8.466018    6.086051    0.091357
     24          6           0       -8.331548    7.210328    0.863864
     25          7           0       -9.128757    0.635126   -0.524891
     26          6           0       -9.850343    1.763764   -0.719958
     27          6           0      -11.133679    1.479630   -1.211569
     28          6           0      -11.225762    0.041785   -1.213481
     29          6           0       -9.934187   -0.439822   -0.975676
     30          6           0      -12.265208    2.353678   -1.568059
     31          6           0      -12.333295   -0.721382   -1.893243
     32          6           0      -12.194005   -1.098970   -3.421201
     33          7           0       -7.203988   -1.368839   -0.117988
     34          6           0       -8.269207   -2.191868   -0.438817
     35          6           0       -7.766591   -3.577809   -0.500387
     36          6           0       -6.471161   -3.554280    0.014386
     37          6           0       -6.233779   -2.153137    0.172881
     38          6           0       -8.521718   -4.816573   -1.007557
     39          6           0       -5.292989   -4.294266    0.300369
     40          8           0       -5.077110   -5.522175    0.214224
     41          6           0       -4.194645   -3.330234    0.529958
     42          6           0       -3.520033   -3.667588    1.984085
     43          8           0       -3.819787   -3.079026    2.961537
     44          8           0       -2.683578   -4.712724    1.808969
     45          6           0       -2.222889   -5.243363    3.054109
     46          6           0        2.802707   -0.681595   -1.110783
     47          6           0        4.079892   -0.441909   -0.391123
     48          6           0        5.126259    0.404923   -0.771929
     49          6           0        4.985318    1.227710   -2.034385
     50          6           0        6.365567    0.340706   -0.026134
     51          6           0        7.545429   -0.191132   -0.851479
     52          6           0        8.911123   -0.140913   -0.114289
     53          6           0       10.113316   -0.619200   -0.965293
     54          6           0       10.005639   -2.072338   -1.320680
     55          6           0       11.404419   -0.151688   -0.139219
     56          6           0       12.709500   -0.446832   -0.770272
     57          6           0       13.968333   -0.091058    0.102647
     58          6           0       15.337825   -0.114455   -0.615536
     59          6           0       15.743258   -1.496102   -1.155631
     60          6           0       16.394317    0.478403    0.320753
     61          6           0       17.759750    0.437184   -0.092289
     62          6           0       18.714340    1.257999    0.756300
     63          6           0       20.182207    1.328675    0.152698
     64          6           0       20.305048    2.101632   -1.069501
     65          6           0       21.218370    1.821991    1.283842
     66          1           0       -4.202795    3.728105    1.479198
     67          1           0      -10.172440    4.043954   -0.496106
     68          1           0      -10.323075   -2.542815   -1.282434
     69          1           0       -2.885816   -0.957728    2.137624
     70          1           0       -2.179499    1.865824    1.142784
     71          1           0       -1.906378    1.236666    3.453857
     72          1           0       -3.256345    2.286514    3.505967
     73          1           0       -3.712085    0.739957    3.703452
     74          1           0       -2.135479   -1.668217   -0.207672
     75          1           0       -2.200227   -0.045154   -0.610008
     76          1           0       -0.264152    0.523092    1.380575
     77          1           0       -0.170626   -1.470850    1.345508
     78          1           0       -5.781213    6.754012    0.719724
     79          1           0       -5.800981    5.960893    2.446822
     80          1           0       -4.336244    5.723703    1.338661
     81          1           0       -9.311111    6.004131   -0.407687
     82          1           0       -8.994492    7.998776    0.739559
     83          1           0       -7.449692    7.352374    1.572437
     84          1           0      -11.614664    3.082060   -2.291897
     85          1           0      -13.009593    1.694328   -1.957615
     86          1           0      -12.880652    2.749122   -0.681993
     87          1           0      -12.382471   -1.632802   -1.513322
     88          1           0      -13.208095   -0.340596   -1.754172
     89          1           0      -12.944034   -1.755213   -3.593375
     90          1           0      -12.244986   -0.156513   -4.027919
     91          1           0      -11.378133   -1.723959   -3.547425
     92          1           0       -9.105226   -4.394588   -2.076881
     93          1           0       -7.935636   -5.806665   -1.243562
     94          1           0       -9.284457   -5.382965   -0.224923
     95          1           0       -3.467366   -3.633659   -0.229385
     96          1           0       -1.578139   -4.627330    3.649570
     97          1           0       -2.863158   -5.616029    3.722326
     98          1           0       -1.498464   -6.020910    2.845394
     99          1           0        2.801884   -1.727983   -1.329682
    100          1           0        2.639406    0.025902   -2.059282
    101          1           0        4.396605   -1.203186    0.401937
    102          1           0        4.066865    1.351829   -2.469700
    103          1           0        5.135188    2.382066   -1.778254
    104          1           0        5.634180    0.843589   -2.712197
    105          1           0        6.823640    1.447125    0.399199
    106          1           0        6.270837   -0.259166    1.103066
    107          1           0        7.516215   -1.172093   -1.082106
    108          1           0        7.688579    0.270768   -1.854680
    109          1           0        8.895218    0.868437    0.316969
    110          1           0        9.130847   -0.810835    0.810813
    111          1           0       10.116356   -0.171386   -2.079924
    112          1           0        9.229412   -2.290988   -1.973537
    113          1           0       10.781202   -2.473080   -2.131807
    114          1           0       10.062711   -2.777112   -0.392178
    115          1           0       11.438968    0.969243   -0.046348
    116          1           0       11.258320   -0.505886    0.782642
    117          1           0       12.870982   -1.640438   -0.851609
    118          1           0       12.638037    0.069718   -1.800706
    119          1           0       13.855344    0.746078    0.579322
    120          1           0       14.255312   -0.935627    0.990854
    121          1           0       15.130789    0.584695   -1.533377
    122          1           0       15.890724   -2.229581   -0.309752
    123          1           0       14.960693   -1.964116   -1.748155
    124          1           0       16.581883   -1.436169   -2.005246
    125          1           0       16.294713    1.487324    0.695480
    126          1           0       16.224815   -0.415130    1.154948
    127          1           0       18.144588   -0.604122   -0.297586
    128          1           0       17.845955    0.794690   -1.087774
    129          1           0       18.576564    2.413357    0.949159
    130          1           0       18.820068    0.911835    1.776599
    131          1           0       20.481236    0.219531   -0.078116
    132          1           0       19.973068    3.196721   -0.928668
    133          1           0       21.294100    2.223514   -1.378068
    134          1           0       19.635412    1.652551   -1.807996
    135          1           0       21.243762    1.414508    2.337206
    136          1           0       22.287378    1.762337    1.068450
    137          1           0       20.917427    2.830153    1.244083
 ---------------------------------------------------------------------

 SCF Done:  E(RCAM-B3LYP) =  -2932.58879096     A.U. after   18 cycles

 Excitation energies and oscillator strengths:

 Excited State   1:      Singlet-A      2.0937 eV  592.18 nm  f=0.1851  <S**2>=0.000
     240 -> 242       -0.13652
     240 -> 243        0.27486
     241 -> 242        0.61704
     241 -> 243        0.12839
 This state for optimization and/or second-order correction.
 Total Energy, E(TD-HF/TD-KS) =  -2932.51184910
 Copying the excited state density for this state as the 1-particle RhoCI density.

 The electronic state is 1-A.
 Alpha  occ. eigenvalues --  -46.83579 -19.27711 -19.26140 -19.22292 -19.19607
 Alpha  occ. eigenvalues --  -19.18439 -14.42178 -14.39608 -14.39235 -14.38119
 Alpha  occ. eigenvalues --  -10.39978 -10.38570 -10.33296 -10.33064 -10.31969
 Alpha  occ. eigenvalues --  -10.30872 -10.30619 -10.30324 -10.30019 -10.29903
 Alpha  occ. eigenvalues --  -10.29705 -10.29288 -10.29238 -10.29187 -10.28729
 Alpha  occ. eigenvalues --  -10.28717 -10.28318 -10.28315 -10.28145 -10.28076
 Alpha  occ. eigenvalues --  -10.27891 -10.27796 -10.27645 -10.27502 -10.27269
 Alpha  occ. eigenvalues --  -10.27135 -10.27017 -10.26761 -10.26712 -10.26638
 Alpha  occ. eigenvalues --  -10.26612 -10.26534 -10.26453 -10.26440 -10.26225
 Alpha  occ. eigenvalues --  -10.26214 -10.26021 -10.25959 -10.25934 -10.25906
 Alpha  occ. eigenvalues --  -10.25705 -10.25577 -10.25501 -10.25457 -10.25421
 Alpha  occ. eigenvalues --  -10.25307 -10.24884 -10.24801 -10.24687 -10.24287
 Alpha  occ. eigenvalues --  -10.24226 -10.24220 -10.24100 -10.23740 -10.23312
 Alpha  occ. eigenvalues --   -3.12710  -1.87411  -1.86931  -1.86915  -1.19408
 Alpha  occ. eigenvalues --   -1.19172  -1.11861  -1.08140  -1.08123  -1.05317
 Alpha  occ. eigenvalues --   -1.02651  -1.01968  -1.01090  -0.92565  -0.91784
 Alpha  occ. eigenvalues --   -0.91070  -0.90106  -0.89880  -0.89684  -0.88707
 Alpha  occ. eigenvalues --   -0.88257  -0.87758  -0.86994  -0.86487  -0.86167
 Alpha  occ. eigenvalues --   -0.85358  -0.84476  -0.83550  -0.83280  -0.82712
 Alpha  occ. eigenvalues --   -0.82455  -0.81310  -0.80920  -0.80265  -0.78043
 Alpha  occ. eigenvalues --   -0.77645  -0.77163  -0.76849  -0.75928  -0.75831
 Alpha  occ. eigenvalues --   -0.75823  -0.74720  -0.74035  -0.73461  -0.71849
 Alpha  occ. eigenvalues --   -0.71338  -0.70853  -0.70633  -0.68767  -0.68558
 Alpha  occ. eigenvalues --   -0.67520  -0.66857  -0.65094  -0.64911  -0.64180
 Alpha  occ. eigenvalues --   -0.63990  -0.63057  -0.62673  -0.62402  -0.62257
 Alpha  occ. eigenvalues --   -0.61136  -0.60629  -0.60161  -0.59597  -0.58694
 Alpha  occ. eigenvalues --   -0.58459  -0.57726  -0.57358  -0.57207  -0.56829
 Alpha  occ. eigenvalues --   -0.55844  -0.55781  -0.55576  -0.55413  -0.55059
 Alpha  occ. eigenvalues --   -0.54840  -0.54522  -0.54256  -0.53591  -0.53273
 Alpha  occ. eigenvalues --   -0.53007  -0.53002  -0.52605  -0.52154  -0.52010
 Alpha  occ. eigenvalues --   -0.51914  -0.51374  -0.51076  -0.50816  -0.50720
 Alpha  occ. eigenvalues --   -0.50320  -0.50118  -0.49815  -0.49705  -0.49659
 Alpha  occ. eigenvalues --   -0.49504  -0.48964  -0.48682  -0.48247  -0.48063
 Alpha  occ. eigenvalues --   -0.47869  -0.47796  -0.47456  -0.47430  -0.46973
 Alpha  occ. eigenvalues --   -0.46792  -0.46657  -0.46599  -0.46157  -0.45792
 Alpha  occ. eigenvalues --   -0.45702  -0.45504  -0.45138  -0.44988  -0.44920
 Alpha  occ. eigenvalues --   -0.44676  -0.44378  -0.44247  -0.44042  -0.44005
 Alpha  occ. eigenvalues --   -0.43778  -0.43686  -0.43504  -0.43049  -0.42961
 Alpha  occ. eigenvalues --   -0.42898  -0.42670  -0.42578  -0.42306  -0.42210
 Alpha  occ. eigenvalues --   -0.41892  -0.41688  -0.41385  -0.41196  -0.41150
 Alpha  occ. eigenvalues --   -0.40984  -0.40724  -0.40594  -0.40466  -0.40377
 Alpha  occ. eigenvalues --   -0.40032  -0.39707  -0.39431  -0.39383  -0.39239
 Alpha  occ. eigenvalues --   -0.38993  -0.38610  -0.38570  -0.38295  -0.38053
 Alpha  occ. eigenvalues --   -0.37565  -0.37251  -0.36919  -0.36856  -0.36730
 Alpha  occ. eigenvalues --   -0.36377  -0.36220  -0.35838  -0.35802  -0.35536
 Alpha  occ. eigenvalues --   -0.35058  -0.34800  -0.34164  -0.33889  -0.33297
 Alpha  occ. eigenvalues --   -0.33227  -0.32909  -0.31703  -0.30341  -0.29540
 Alpha  occ. eigenvalues --   -0.29416  -0.29062  -0.27663  -0.26221  -0.22903
 Alpha  occ. eigenvalues --   -0.20730
 Alpha virt. eigenvalues --   -0.05585  -0.03574   0.01186   0.03471   0.04019
 Alpha virt. eigenvalues --    0.05854   0.06021   0.06435   0.07154   0.07448
 Alpha virt. eigenvalues --    0.08033   0.10441   0.10980   0.11118   0.11608

 Mulliken charges:
               1
     1  Mg   0.816183
     2  C    0.011311
     3  C   -0.171716
     4  C   -0.203845
     5  C   -0.173285
     6  N   -0.614656
     7  C    0.276325
     8  C   -0.157712
     9  C   -0.147088
    10  C    0.301989
    11  C   -0.300236
    12  C   -0.137862
    13  C   -0.256540
    14  C    0.614221
    15  O   -0.495479
    16  O   -0.449713
    17  N   -0.727695
    18  C    0.353073
    19  C    0.011212
    20  C    0.050605
    21  C    0.267021
    22  C   -0.400005
    23  C   -0.062491
    24  C   -0.241226
    25  N   -0.697979
    26  C    0.354671
    27  C   -0.009405
    28  C   -0.008620
    29  C    0.280403
    30  C   -0.349808
    31  C   -0.229918
    32  C   -0.312643
    33  N   -0.719137
    34  C    0.244044
    35  C    0.006210
    36  C    0.049732
    37  C    0.353507
    38  C   -0.354733
    39  C    0.343374
    40  O   -0.499877
    41  C   -0.303848
    42  C    0.617075
    43  O   -0.438080
    44  O   -0.432964
    45  C   -0.104751
    46  C    0.015640
    47  C   -0.140391
    48  C    0.140193
    49  C   -0.355514
    50  C   -0.223214
    51  C   -0.181892
    52  C   -0.166606
    53  C   -0.069486
    54  C   -0.303548
    55  C   -0.158333
    56  C   -0.169233
    57  C   -0.145835
    58  C   -0.067318
    59  C   -0.313457
    60  C   -0.137226
    61  C   -0.174357
    62  C   -0.171902
    63  C   -0.072322
    64  C   -0.293633
    65  C   -0.326380
    66  H    0.073489
    67  H    0.089627
    68  H    0.103608
    69  H    0.133067
    70  H    0.075955
    71  H    0.122390
    72  H    0.095800
    73  H    0.139238
    74  H    0.128874
    75  H    0.131707
    76  H    0.113737
    77  H    0.100554
    78  H    0.112994
    79  H    0.135118
    80  H    0.114430
    81  H    0.083355
    82  H    0.106852
    83  H    0.103726
    84  H    0.110279
    85  H    0.114016
    86  H    0.112611
    87  H    0.101673
    88  H    0.101169
    89  H    0.110903
    90  H    0.108233
    91  H    0.111971
    92  H    0.082270
    93  H    0.143371
    94  H    0.108673
    95  H    0.168192
    96  H    0.118621
    97  H    0.145008
    98  H    0.121668
    99  H    0.136321
   100  H    0.121543
   101  H    0.087510
   102  H    0.125093
   103  H    0.096336
   104  H    0.135011
   105  H    0.070142
   106  H    0.084740
   107  H    0.117576
   108  H    0.099983
   109  H    0.090260
   110  H    0.078464
   111  H    0.055036
   112  H    0.119669
   113  H    0.086117
   114  H    0.089670
   115  H    0.088642
   116  H    0.099273
   117  H    0.078893
   118  H    0.087045
   119  H    0.100035
   120  H    0.045637
   121  H    0.061797
   122  H    0.098330
   123  H    0.112106
   124  H    0.092062
   125  H    0.097509
   126  H    0.052928
   127  H    0.098318
   128  H    0.095744
   129  H    0.069608
   130  H    0.101558
   131  H    0.066994
   132  H    0.080108
   133  H    0.115327
   134  H    0.107675
   135  H    0.095482
   136  H    0.098867
   137  H    0.104581
 Sum of Mulliken charges =   0.00000

 Dipole moment (field-independent basis, Debye):
    X=              3.1853    Y=              4.2295    Z=              1.3720  Tot=              5.4696
 Quadrupole moment (field-independent basis, Debye-Ang):
   XX=           -363.2203   YY=           -389.9813   ZZ=           -393.6783
   XY=            -24.3830   XZ=             -5.1911   YZ=              0.0029

 Normal termination of Gaussian 09 at Fri Jul  5 22:12:02 2019.
