 Gaussian 16, Revision A.03,
 Gaussian 16:  ES64L-G16RevA.03 25-Dec-2016

 ----------------------------------------------------------------------
 # td=(NStates=1) iop(3/107=0140000000,3/108=0140000000) CAM-B3LYP/6-31
 G(d,p)
 ----------------------------------------------------------------------

 --
 TD
 --
 Symbolic Z-matrix:
 Charge =  0 Multiplicity = 1

                         Standard orientation:
 ---------------------------------------------------------------------
 Center     Atomic      Atomic             Coordinates (Angstroms)
 Number     Number       Type             X           Y           Z
 ---------------------------------------------------------------------
      1         12           0       -7.145124    0.588491    0.128702
      2          6           0       -4.936728   -2.019835    0.489124
      3          6           0       -4.689535    2.789425    1.221392
      4          6           0       -9.356140    3.132767   -0.309008
      5          6           0       -9.590551   -1.733272   -0.876386
      6          7           0       -5.176044    0.411627    0.759970
      7          6           0       -4.426705   -0.747413    0.810288
      8          6           0       -2.958305   -0.458344    1.245883
      9          6           0       -2.981185    1.003950    1.647464
     10          6           0       -4.368353    1.500998    1.152400
     11          6           0       -2.968914    1.178463    3.193557
     12          6           0       -1.881322   -0.647626    0.050317
     13          6           0       -0.495327   -0.550976    0.577071
     14          6           0        0.506926   -0.750522   -0.542653
     15          8           0        0.258699   -1.085651   -1.763315
     16          8           0        1.777198   -0.420342   -0.265234
     17          7           0       -7.034047    2.593276    0.396941
     18          6           0       -5.920411    3.353565    0.786984
     19          6           0       -6.236282    4.742323    0.845368
     20          6           0       -7.622217    4.880148    0.404135
     21          6           0       -8.049799    3.451270    0.121461
     22          6           0       -5.294509    5.878616    1.109764
     23          6           0       -8.427726    6.037055    0.223185
     24          6           0       -8.399682    7.179048    0.777501
     25          7           0       -9.087131    0.636837   -0.615446
     26          6           0       -9.819202    1.818490   -0.674732
     27          6           0      -11.165870    1.508279   -1.078284
     28          6           0      -11.264952    0.199632   -1.222803
     29          6           0       -9.948757   -0.377736   -0.945473
     30          6           0      -12.255585    2.548047   -1.176706
     31          6           0      -12.379398   -0.632360   -1.740664
     32          6           0      -12.380434   -1.056906   -3.217592
     33          7           0       -7.301267   -1.428608   -0.211542
     34          6           0       -8.313305   -2.233711   -0.581258
     35          6           0       -7.938999   -3.594009   -0.512397
     36          6           0       -6.507664   -3.579826   -0.186912
     37          6           0       -6.216583   -2.196167    0.032754
     38          6           0       -8.767301   -4.754847   -0.894033
     39          6           0       -5.529489   -4.429150    0.178370
     40          8           0       -5.311212   -5.598113    0.178788
     41          6           0       -4.264953   -3.328025    0.550997
     42          6           0       -3.627275   -3.634680    1.987537
     43          8           0       -3.873973   -2.991776    2.945040
     44          8           0       -2.826597   -4.795761    1.766316
     45          6           0       -2.486659   -5.393869    3.044919
     46          6           0        2.794883   -0.643395   -1.266388
     47          6           0        4.107377   -0.275411   -0.580505
     48          6           0        5.037642    0.566703   -1.034015
     49          6           0        4.976700    1.155207   -2.480129
     50          6           0        6.462339    0.639796   -0.254684
     51          6           0        7.637593   -0.102457   -0.972895
     52          6           0        8.894938    0.057807   -0.286675
     53          6           0       10.205093   -0.468731   -0.934387
     54          6           0       10.103475   -1.999356   -1.220188
     55          6           0       11.450356   -0.200217   -0.056567
     56          6           0       12.829242   -0.297147   -0.840546
     57          6           0       13.984803   -0.197302    0.177063
     58          6           0       15.395653   -0.277895   -0.463902
     59          6           0       15.812024   -1.713211   -0.789511
     60          6           0       16.431703    0.363708    0.499978
     61          6           0       17.856246    0.605661   -0.054038
     62          6           0       18.887101    1.261328    0.927245
     63          6           0       20.287210    1.235412    0.271112
     64          6           0       20.549934    1.884016   -1.031149
     65          6           0       21.260721    1.732650    1.311985
     66          1           0       -4.031654    3.470879    1.567254
     67          1           0       -9.795929    3.992675   -0.470862
     68          1           0      -10.400147   -2.383238   -1.294857
     69          1           0       -2.638914   -1.016199    2.115505
     70          1           0       -2.203975    1.540350    1.414729
     71          1           0       -2.017388    0.863775    3.703314
     72          1           0       -3.274063    2.227295    3.301092
     73          1           0       -3.716857    0.393704    3.664012
     74          1           0       -2.118208   -1.468919   -0.508178
     75          1           0       -2.142074    0.162431   -0.665881
     76          1           0       -0.392182    0.513261    0.856437
     77          1           0       -0.297910   -1.300116    1.365219
     78          1           0       -5.599449    6.677671    0.412883
     79          1           0       -5.070909    6.300679    2.076432
     80          1           0       -4.221131    5.713694    0.656859
     81          1           0       -9.325969    5.807479   -0.385416
     82          1           0       -8.973984    8.086565    0.531686
     83          1           0       -7.655415    7.692668    1.459264
     84          1           0      -12.065678    3.145508   -2.186665
     85          1           0      -13.139705    2.264608   -1.403432
     86          1           0      -12.292046    3.320227   -0.236852
     87          1           0      -12.599983   -1.570308   -1.267030
     88          1           0      -13.614100   -0.174327   -1.703045
     89          1           0      -13.175053   -1.468523   -3.678791
     90          1           0      -12.240777   -0.143634   -3.934817
     91          1           0      -11.597679   -1.751086   -3.544151
     92          1           0       -8.949362   -4.673262   -1.978212
     93          1           0       -8.240129   -5.683495   -0.661717
     94          1           0       -9.763065   -4.776951   -0.336671
     95          1           0       -3.383947   -3.613068   -0.126082
     96          1           0       -1.896136   -4.484347    3.445475
     97          1           0       -3.296561   -5.676641    3.724602
     98          1           0       -1.773369   -6.099472    2.657216
     99          1           0        2.767949   -1.633481   -1.665231
    100          1           0        2.458317    0.207944   -2.143964
    101          1           0        4.207866   -0.904160    0.331682
    102          1           0        4.025158    1.112893   -2.922844
    103          1           0        5.064935    2.205174   -2.295154
    104          1           0        5.921165    0.644123   -3.010476
    105          1           0        6.972268    1.722126   -0.240523
    106          1           0        6.280404    0.033267    0.623155
    107          1           0        7.461438   -1.196537   -1.275914
    108          1           0        8.011293    0.522222   -1.822007
    109          1           0        9.185895    1.242402   -0.094810
    110          1           0        8.894366   -0.361397    0.840782
    111          1           0       10.396956    0.023115   -1.943940
    112          1           0        9.118864   -2.433890   -1.837848
    113          1           0       10.996462   -2.406289   -1.621052
    114          1           0        9.997163   -2.537934   -0.234392
    115          1           0       11.401795    0.842107    0.351228
    116          1           0       11.618251   -1.002783    0.656897
    117          1           0       12.933315   -1.348405   -1.255297
    118          1           0       12.982934    0.556282   -1.619551
    119          1           0       13.810815    0.811099    0.645532
    120          1           0       13.898761   -1.128813    0.847516
    121          1           0       15.337743    0.360741   -1.285692
    122          1           0       15.763334   -2.257448    0.179629
    123          1           0       15.129474   -2.075267   -1.557809
    124          1           0       16.704829   -1.612051   -1.451561
    125          1           0       16.206385    1.408183    0.684653
    126          1           0       16.465674   -0.300601    1.456225
    127          1           0       18.392327   -0.310741   -0.273146
    128          1           0       17.738577    1.287473   -1.003145
    129          1           0       18.692071    2.290885    1.168442
    130          1           0       18.847838    0.580078    1.826631
    131          1           0       20.313875    0.012766   -0.052969
    132          1           0       20.188528    2.895771   -0.981150
    133          1           0       21.441224    1.689466   -1.621768
    134          1           0       19.649309    1.684990   -1.902565
    135          1           0       21.207593    1.169353    2.214025
    136          1           0       22.205025    1.705526    0.990461
    137          1           0       20.940494    2.731421    1.499771
 ---------------------------------------------------------------------

 SCF Done:  E(RCAM-B3LYP) =  -2933.53151962     A.U. after   16 cycles

 Excitation energies and oscillator strengths:

 Excited State   1:      Singlet-A      1.9543 eV  634.40 nm  f=0.3105  <S**2>=0.000
     240 -> 243        0.21883
     241 -> 242        0.66763
 This state for optimization and/or second-order correction.
 Total Energy, E(TD-HF/TD-DFT) =  -2933.45969898
 Copying the excited state density for this state as the 1-particle RhoCI density.

 The electronic state is 1-A.
 Alpha  occ. eigenvalues --  -46.79904 -19.21832 -19.20898 -19.17917 -19.15420
 Alpha  occ. eigenvalues --  -19.15277 -14.38062 -14.35675 -14.35654 -14.35021
 Alpha  occ. eigenvalues --  -10.34496 -10.34021 -10.28976 -10.28509 -10.26785
 Alpha  occ. eigenvalues --  -10.26380 -10.26089 -10.25607 -10.25575 -10.25438
 Alpha  occ. eigenvalues --  -10.24929 -10.24657 -10.24221 -10.24201 -10.24198
 Alpha  occ. eigenvalues --  -10.24181 -10.23721 -10.23707 -10.23525 -10.23514
 Alpha  occ. eigenvalues --  -10.23357 -10.22831 -10.22716 -10.22674 -10.22649
 Alpha  occ. eigenvalues --  -10.22581 -10.22496 -10.22491 -10.22431 -10.22264
 Alpha  occ. eigenvalues --  -10.22107 -10.22060 -10.21955 -10.21949 -10.21894
 Alpha  occ. eigenvalues --  -10.21865 -10.21855 -10.21847 -10.21746 -10.21723
 Alpha  occ. eigenvalues --  -10.21590 -10.21466 -10.21464 -10.21403 -10.21135
 Alpha  occ. eigenvalues --  -10.21121 -10.20962 -10.20844 -10.20839 -10.20715
 Alpha  occ. eigenvalues --  -10.20608 -10.20589 -10.20532 -10.20512 -10.18378
 Alpha  occ. eigenvalues --   -3.08512  -1.83458  -1.83017  -1.82888  -1.12103
 Alpha  occ. eigenvalues --   -1.11582  -1.06641  -1.05151  -0.99921  -0.99680
 Alpha  occ. eigenvalues --   -0.98105  -0.97690  -0.96654  -0.87530  -0.85652
 Alpha  occ. eigenvalues --   -0.85325  -0.84983  -0.84679  -0.84176  -0.84061
 Alpha  occ. eigenvalues --   -0.83617  -0.83298  -0.82768  -0.82484  -0.81244
 Alpha  occ. eigenvalues --   -0.80394  -0.79515  -0.78432  -0.78241  -0.77880
 Alpha  occ. eigenvalues --   -0.76552  -0.76037  -0.75163  -0.74929  -0.73722
 Alpha  occ. eigenvalues --   -0.72968  -0.72453  -0.71816  -0.71165  -0.70716
 Alpha  occ. eigenvalues --   -0.70371  -0.69981  -0.69431  -0.68507  -0.68127
 Alpha  occ. eigenvalues --   -0.67287  -0.65753  -0.65508  -0.64727  -0.64128
 Alpha  occ. eigenvalues --   -0.63536  -0.61732  -0.61245  -0.61071  -0.59842
 Alpha  occ. eigenvalues --   -0.58726  -0.58441  -0.58010  -0.57642  -0.57404
 Alpha  occ. eigenvalues --   -0.56975  -0.56753  -0.56543  -0.55732  -0.55037
 Alpha  occ. eigenvalues --   -0.54959  -0.54123  -0.54007  -0.52757  -0.52256
 Alpha  occ. eigenvalues --   -0.51687  -0.51663  -0.51528  -0.51452  -0.50955
 Alpha  occ. eigenvalues --   -0.50672  -0.50424  -0.50123  -0.49863  -0.49419
 Alpha  occ. eigenvalues --   -0.49236  -0.48835  -0.48669  -0.48196  -0.48026
 Alpha  occ. eigenvalues --   -0.47643  -0.47443  -0.47320  -0.46841  -0.46688
 Alpha  occ. eigenvalues --   -0.46465  -0.46377  -0.46151  -0.46048  -0.45875
 Alpha  occ. eigenvalues --   -0.45613  -0.45498  -0.45218  -0.45072  -0.44924
 Alpha  occ. eigenvalues --   -0.44769  -0.44537  -0.44169  -0.44080  -0.43861
 Alpha  occ. eigenvalues --   -0.43356  -0.43231  -0.43001  -0.42791  -0.42512
 Alpha  occ. eigenvalues --   -0.42421  -0.42227  -0.42156  -0.42087  -0.41600
 Alpha  occ. eigenvalues --   -0.41426  -0.41285  -0.41150  -0.40956  -0.40700
 Alpha  occ. eigenvalues --   -0.40564  -0.40497  -0.40248  -0.40227  -0.39796
 Alpha  occ. eigenvalues --   -0.39503  -0.39287  -0.39204  -0.38955  -0.38717
 Alpha  occ. eigenvalues --   -0.38677  -0.38567  -0.38175  -0.38107  -0.37770
 Alpha  occ. eigenvalues --   -0.37609  -0.37305  -0.37101  -0.36796  -0.36650
 Alpha  occ. eigenvalues --   -0.36620  -0.36394  -0.36346  -0.36160  -0.35789
 Alpha  occ. eigenvalues --   -0.35673  -0.35102  -0.34883  -0.34806  -0.34690
 Alpha  occ. eigenvalues --   -0.34258  -0.34197  -0.33881  -0.33668  -0.33291
 Alpha  occ. eigenvalues --   -0.33233  -0.33066  -0.32944  -0.32364  -0.31968
 Alpha  occ. eigenvalues --   -0.31625  -0.31277  -0.31109  -0.30856  -0.30708
 Alpha  occ. eigenvalues --   -0.30350  -0.29680  -0.28858  -0.28360  -0.27263
 Alpha  occ. eigenvalues --   -0.27001  -0.26451  -0.25434  -0.25023  -0.21953
 Alpha  occ. eigenvalues --   -0.20275
 Alpha virt. eigenvalues --   -0.07917  -0.04193  -0.00295   0.02514   0.03182
 Alpha virt. eigenvalues --    0.04308   0.04481   0.04901   0.05560   0.05659
 Alpha virt. eigenvalues --    0.06725   0.08704   0.09263   0.09452   0.09849

 Mulliken charges:
               1
     1  Mg   0.807761
     2  C    0.126087
     3  C   -0.156642
     4  C   -0.089262
     5  C   -0.171731
     6  N   -0.656737
     7  C    0.312064
     8  C   -0.156866
     9  C   -0.119705
    10  C    0.350176
    11  C   -0.317409
    12  C   -0.171925
    13  C   -0.253939
    14  C    0.580972
    15  O   -0.508768
    16  O   -0.454466
    17  N   -0.723416
    18  C    0.280831
    19  C    0.030630
    20  C    0.014826
    21  C    0.294395
    22  C   -0.397667
    23  C   -0.067097
    24  C   -0.260716
    25  N   -0.686326
    26  C    0.281873
    27  C    0.045087
    28  C    0.067463
    29  C    0.285331
    30  C   -0.345759
    31  C   -0.259177
    32  C   -0.312745
    33  N   -0.741950
    34  C    0.314172
    35  C    0.033163
    36  C    0.042292
    37  C    0.308297
    38  C   -0.388870
    39  C    0.310732
    40  O   -0.446412
    41  C   -0.379552
    42  C    0.603032
    43  O   -0.431114
    44  O   -0.476134
    45  C   -0.085117
    46  C    0.025935
    47  C   -0.123103
    48  C    0.091534
    49  C   -0.350581
    50  C   -0.204241
    51  C   -0.171473
    52  C   -0.150773
    53  C   -0.043903
    54  C   -0.314315
    55  C   -0.160503
    56  C   -0.195027
    57  C   -0.158917
    58  C   -0.061363
    59  C   -0.309112
    60  C   -0.155971
    61  C   -0.178234
    62  C   -0.171370
    63  C   -0.038256
    64  C   -0.301099
    65  C   -0.298301
    66  H    0.070468
    67  H    0.049988
    68  H    0.088905
    69  H    0.117160
    70  H    0.096440
    71  H    0.103065
    72  H    0.105874
    73  H    0.113596
    74  H    0.130659
    75  H    0.110704
    76  H    0.142978
    77  H    0.143230
    78  H    0.127771
    79  H    0.131867
    80  H    0.097281
    81  H    0.091340
    82  H    0.102502
    83  H    0.097248
    84  H    0.097659
    85  H    0.121873
    86  H    0.103207
    87  H    0.119448
    88  H    0.060186
    89  H    0.121998
    90  H    0.086475
    91  H    0.100992
    92  H    0.136334
    93  H    0.146286
    94  H    0.117286
    95  H    0.139803
    96  H    0.108628
    97  H    0.139770
    98  H    0.131276
    99  H    0.140831
   100  H    0.093754
   101  H    0.089010
   102  H    0.115509
   103  H    0.120637
   104  H    0.120091
   105  H    0.089936
   106  H    0.110402
   107  H    0.097587
   108  H    0.097593
   109  H    0.054194
   110  H    0.058970
   111  H    0.079236
   112  H    0.074283
   113  H    0.111218
   114  H    0.094893
   115  H    0.088167
   116  H    0.098578
   117  H    0.089675
   118  H    0.078322
   119  H    0.084792
   120  H    0.071414
   121  H    0.080033
   122  H    0.105655
   123  H    0.101668
   124  H    0.111098
   125  H    0.088663
   126  H    0.065124
   127  H    0.092835
   128  H    0.071996
   129  H    0.086123
   130  H    0.096164
   131  H    0.037448
   132  H    0.103670
   133  H    0.121605
   134  H    0.053365
   135  H    0.103678
   136  H    0.106557
   137  H    0.102322
 Sum of Mulliken charges =  -0.00000

 Dipole moment (field-independent basis, Debye):
    X=              1.1465    Y=              4.4913    Z=              0.5348  Tot=              4.6661
 Quadrupole moment (field-independent basis, Debye-Ang):
   XX=           -330.0174   YY=           -388.1554   ZZ=           -399.6253
   XY=            -13.4478   XZ=             10.4144   YZ=             -4.4589

 Normal termination of Gaussian 16 at Wed Sep 18 13:18:01 2019.
