 Gaussian 16, Revision A.03,
 Gaussian 16:  ES64L-G16RevA.03 25-Dec-2016

 ----------------------------------------------------------------------
 # td=(NStates=1) iop(3/107=0140000000,3/108=0140000000) CAM-B3LYP/6-31
 G(d,p)
 ----------------------------------------------------------------------

 --
 TD
 --
 Symbolic Z-matrix:
 Charge =  0 Multiplicity = 1

                         Standard orientation:
 ---------------------------------------------------------------------
 Center     Atomic      Atomic             Coordinates (Angstroms)
 Number     Number       Type             X           Y           Z
 ---------------------------------------------------------------------
      1         12           0       -7.206741    0.603720    0.128681
      2          6           0       -4.872846   -1.960568    0.610078
      3          6           0       -4.859584    2.861979    1.225387
      4          6           0       -9.464161    3.100921   -0.436294
      5          6           0       -9.568794   -1.747736   -0.761304
      6          7           0       -5.256942    0.475894    0.699405
      7          6           0       -4.426969   -0.657525    0.727255
      8          6           0       -2.979688   -0.374642    1.229782
      9          6           0       -3.113722    1.136823    1.600847
     10          6           0       -4.480224    1.495225    1.089731
     11          6           0       -2.999925    1.356828    3.103658
     12          6           0       -1.896030   -0.717484    0.119990
     13          6           0       -0.449409   -0.413361    0.545954
     14          6           0        0.485181   -0.714369   -0.554911
     15          8           0        0.230406   -1.116745   -1.597908
     16          8           0        1.823551   -0.503282   -0.105263
     17          7           0       -7.171450    2.662266    0.306264
     18          6           0       -6.153512    3.443509    0.771560
     19          6           0       -6.471161    4.794129    0.734699
     20          6           0       -7.788325    4.793429    0.248418
     21          6           0       -8.203425    3.533299    0.007369
     22          6           0       -5.457270    5.845028    1.009782
     23          6           0       -8.511987    6.087714   -0.060097
     24          6           0       -8.447645    7.191459    0.631018
     25          7           0       -9.182252    0.618662   -0.424351
     26          6           0       -9.905545    1.800891   -0.682728
     27          6           0      -11.225592    1.442264   -1.096564
     28          6           0      -11.302602    0.030804   -1.244223
     29          6           0       -9.929101   -0.472623   -0.812027
     30          6           0      -12.435522    2.411082   -1.372685
     31          6           0      -12.407020   -0.784005   -1.723706
     32          6           0      -12.117903   -1.241439   -3.202727
     33          7           0       -7.291163   -1.413503   -0.222664
     34          6           0       -8.304496   -2.304205   -0.518797
     35          6           0       -7.821538   -3.616468   -0.493989
     36          6           0       -6.486520   -3.530397   -0.118918
     37          6           0       -6.208293   -2.134048    0.113486
     38          6           0       -8.649172   -4.802139   -0.706890
     39          6           0       -5.266449   -4.314529    0.211608
     40          8           0       -5.122141   -5.531024    0.136124
     41          6           0       -4.223795   -3.355643    0.532332
     42          6           0       -3.628485   -3.654893    1.833598
     43          8           0       -3.919389   -3.034340    2.828314
     44          8           0       -2.715924   -4.578469    1.762438
     45          6           0       -1.942424   -5.012894    2.979039
     46          6           0        2.810195   -0.608795   -1.047798
     47          6           0        4.155492   -0.502319   -0.452300
     48          6           0        5.105090    0.284908   -0.846284
     49          6           0        5.124208    1.163960   -2.031344
     50          6           0        6.375874    0.308800   -0.049426
     51          6           0        7.566146   -0.446238   -0.846115
     52          6           0        8.931808   -0.205846   -0.223595
     53          6           0       10.222005   -0.622224   -0.987744
     54          6           0       10.164881   -2.053525   -1.305547
     55          6           0       11.459369   -0.282710   -0.115637
     56          6           0       12.955896   -0.528468   -0.873363
     57          6           0       14.112306   -0.138556    0.107305
     58          6           0       15.466425   -0.162981   -0.468095
     59          6           0       15.818980   -1.623252   -0.991015
     60          6           0       16.487998    0.454595    0.360780
     61          6           0       17.857007    0.656589   -0.221424
     62          6           0       18.874962    1.368636    0.712738
     63          6           0       20.293328    1.340412    0.273235
     64          6           0       20.383257    2.302048   -0.967326
     65          6           0       21.162029    1.920965    1.407991
     66          1           0       -4.169486    3.672923    1.771184
     67          1           0      -10.372482    3.818175   -0.502941
     68          1           0      -10.261493   -2.608331   -1.107975
     69          1           0       -2.701614   -0.968268    2.051630
     70          1           0       -2.534181    1.699954    1.084039
     71          1           0       -1.994956    0.914001    3.485318
     72          1           0       -3.081118    2.335170    3.374824
     73          1           0       -3.733109    0.768715    3.626315
     74          1           0       -1.865368   -1.711379   -0.084858
     75          1           0       -2.123811   -0.032215   -0.777693
     76          1           0       -0.277591    0.645305    0.645567
     77          1           0       -0.094270   -0.965700    1.407344
     78          1           0       -5.676281    6.695535    0.372966
     79          1           0       -5.471939    6.282178    1.911671
     80          1           0       -4.382429    5.605551    0.750422
     81          1           0       -9.129641    5.983955   -0.802635
     82          1           0       -9.159679    8.066341    0.270814
     83          1           0       -7.863633    7.255353    1.353140
     84          1           0      -12.022007    3.207894   -2.173933
     85          1           0      -13.247540    1.846249   -1.733755
     86          1           0      -12.737166    2.823673   -0.309646
     87          1           0      -12.355542   -1.642203   -0.887725
     88          1           0      -13.284722   -0.222534   -1.803574
     89          1           0      -12.819053   -1.871716   -3.606690
     90          1           0      -12.251691   -0.290113   -3.595389
     91          1           0      -11.271074   -1.726591   -3.121866
     92          1           0       -9.156666   -4.711347   -1.803471
     93          1           0       -7.929990   -5.671541   -0.815720
     94          1           0       -9.408412   -4.963758   -0.106231
     95          1           0       -3.312827   -3.330627   -0.150727
     96          1           0       -1.269609   -4.281752    3.418945
     97          1           0       -2.692103   -5.160391    3.666518
     98          1           0       -1.315084   -6.028870    2.619911
     99          1           0        2.614149   -1.464901   -1.471939
    100          1           0        2.653489    0.062647   -2.085465
    101          1           0        4.380886   -1.017653    0.449807
    102          1           0        4.106612    1.229541   -2.281302
    103          1           0        5.576964    2.169080   -1.895046
    104          1           0        5.382704    0.647541   -3.009199
    105          1           0        6.817243    1.437475    0.056329
    106          1           0        6.303665   -0.143361    0.959467
    107          1           0        7.465223   -1.661358   -0.752237
    108          1           0        7.543213   -0.159176   -1.908405
    109          1           0        8.934026    0.790560   -0.052010
    110          1           0        9.145771   -0.734563    0.758826
    111          1           0       10.137123   -0.099534   -1.751584
    112          1           0        9.406224   -2.473682   -2.113303
    113          1           0       11.057724   -2.392882   -1.672368
    114          1           0       10.177841   -2.595526   -0.408852
    115          1           0       11.550160    0.742304    0.262952
    116          1           0       11.510659   -0.724602    1.021885
    117          1           0       13.081839   -1.581561   -1.270271
    118          1           0       12.998996    0.319094   -1.749287
    119          1           0       13.893175    0.934745    0.347500
    120          1           0       13.893448   -0.680870    1.058481
    121          1           0       15.486767    0.514848   -1.381020
    122          1           0       15.992802   -2.341396   -0.172370
    123          1           0       14.950602   -2.002409   -1.669736
    124          1           0       16.603205   -1.673724   -1.622251
    125          1           0       16.046882    1.396864    0.798105
    126          1           0       16.465427   -0.455778    1.087193
    127          1           0       18.104636   -0.184461   -0.604586
    128          1           0       17.717617    1.199742   -1.155689
    129          1           0       18.491721    2.315087    0.918878
    130          1           0       19.015269    0.732626    1.750806
    131          1           0       20.748198    0.300097   -0.128851
    132          1           0       19.851222    3.165731   -0.795832
    133          1           0       21.346156    2.314385   -1.124527
    134          1           0       20.039164    1.868325   -1.835287
    135          1           0       21.204710    1.257280    2.361740
    136          1           0       22.025239    2.170276    1.047537
    137          1           0       20.787513    2.994045    1.513118
 ---------------------------------------------------------------------

 SCF Done:  E(RCAM-B3LYP) =  -2933.42700910     A.U. after   16 cycles

 Excitation energies and oscillator strengths:

 Excited State   1:      Singlet-A      2.0053 eV  618.28 nm  f=0.2816  <S**2>=0.000
     240 -> 243       -0.21414
     241 -> 242        0.67170
 This state for optimization and/or second-order correction.
 Total Energy, E(TD-HF/TD-DFT) =  -2933.35331578
 Copying the excited state density for this state as the 1-particle RhoCI density.

 The electronic state is 1-A.
 Alpha  occ. eigenvalues --  -46.79111 -19.22680 -19.20346 -19.18381 -19.15841
 Alpha  occ. eigenvalues --  -19.15530 -14.38224 -14.34951 -14.34515 -14.34103
 Alpha  occ. eigenvalues --  -10.34366 -10.33969 -10.29931 -10.29136 -10.26394
 Alpha  occ. eigenvalues --  -10.26241 -10.26032 -10.24755 -10.24593 -10.24368
 Alpha  occ. eigenvalues --  -10.24206 -10.24029 -10.23924 -10.23838 -10.23721
 Alpha  occ. eigenvalues --  -10.23612 -10.23096 -10.23019 -10.22981 -10.22901
 Alpha  occ. eigenvalues --  -10.22900 -10.22844 -10.22815 -10.22721 -10.22652
 Alpha  occ. eigenvalues --  -10.22613 -10.22266 -10.22242 -10.22177 -10.22143
 Alpha  occ. eigenvalues --  -10.22076 -10.21716 -10.21526 -10.21524 -10.21404
 Alpha  occ. eigenvalues --  -10.21214 -10.21155 -10.20920 -10.20850 -10.20824
 Alpha  occ. eigenvalues --  -10.20773 -10.20761 -10.20752 -10.20407 -10.20259
 Alpha  occ. eigenvalues --  -10.20246 -10.20036 -10.19965 -10.19772 -10.19768
 Alpha  occ. eigenvalues --  -10.19263 -10.18869 -10.18787 -10.18763 -10.17280
 Alpha  occ. eigenvalues --   -3.07780  -1.82723  -1.82270  -1.82169  -1.14822
 Alpha  occ. eigenvalues --   -1.14062  -1.07027  -1.05274  -1.04423  -0.99323
 Alpha  occ. eigenvalues --   -0.98465  -0.98149  -0.96058  -0.88199  -0.86404
 Alpha  occ. eigenvalues --   -0.86196  -0.85477  -0.84790  -0.84134  -0.84023
 Alpha  occ. eigenvalues --   -0.83770  -0.83381  -0.82978  -0.82311  -0.81485
 Alpha  occ. eigenvalues --   -0.80142  -0.79198  -0.79082  -0.78189  -0.77800
 Alpha  occ. eigenvalues --   -0.77319  -0.76123  -0.75575  -0.74661  -0.73703
 Alpha  occ. eigenvalues --   -0.73386  -0.73258  -0.72274  -0.71963  -0.71762
 Alpha  occ. eigenvalues --   -0.70980  -0.70734  -0.70142  -0.69213  -0.68530
 Alpha  occ. eigenvalues --   -0.67621  -0.66686  -0.65925  -0.65392  -0.64448
 Alpha  occ. eigenvalues --   -0.63158  -0.62633  -0.61688  -0.60397  -0.60111
 Alpha  occ. eigenvalues --   -0.59816  -0.59384  -0.59230  -0.58450  -0.58089
 Alpha  occ. eigenvalues --   -0.57257  -0.57066  -0.56506  -0.55963  -0.55211
 Alpha  occ. eigenvalues --   -0.54836  -0.54443  -0.54009  -0.53842  -0.53712
 Alpha  occ. eigenvalues --   -0.52810  -0.52103  -0.51457  -0.51360  -0.51273
 Alpha  occ. eigenvalues --   -0.51006  -0.50786  -0.50361  -0.50322  -0.50047
 Alpha  occ. eigenvalues --   -0.49715  -0.49243  -0.48950  -0.48734  -0.48142
 Alpha  occ. eigenvalues --   -0.47886  -0.47606  -0.47480  -0.47201  -0.46876
 Alpha  occ. eigenvalues --   -0.46543  -0.46362  -0.46265  -0.46185  -0.45986
 Alpha  occ. eigenvalues --   -0.45716  -0.45612  -0.45386  -0.45193  -0.45010
 Alpha  occ. eigenvalues --   -0.44730  -0.44663  -0.44309  -0.44152  -0.43976
 Alpha  occ. eigenvalues --   -0.43708  -0.43339  -0.43226  -0.42935  -0.42801
 Alpha  occ. eigenvalues --   -0.42353  -0.42120  -0.42087  -0.41926  -0.41742
 Alpha  occ. eigenvalues --   -0.41402  -0.41179  -0.41084  -0.40908  -0.40814
 Alpha  occ. eigenvalues --   -0.40666  -0.40517  -0.40466  -0.40256  -0.40002
 Alpha  occ. eigenvalues --   -0.39758  -0.39688  -0.39552  -0.39510  -0.39070
 Alpha  occ. eigenvalues --   -0.38966  -0.38633  -0.38566  -0.38422  -0.38218
 Alpha  occ. eigenvalues --   -0.37950  -0.37854  -0.37482  -0.37450  -0.37187
 Alpha  occ. eigenvalues --   -0.37105  -0.36772  -0.36202  -0.36199  -0.35946
 Alpha  occ. eigenvalues --   -0.35880  -0.35740  -0.35450  -0.35424  -0.35094
 Alpha  occ. eigenvalues --   -0.34514  -0.33824  -0.33823  -0.33698  -0.33459
 Alpha  occ. eigenvalues --   -0.33303  -0.33209  -0.33085  -0.32892  -0.32145
 Alpha  occ. eigenvalues --   -0.31881  -0.31178  -0.31093  -0.30957  -0.30292
 Alpha  occ. eigenvalues --   -0.30136  -0.29764  -0.29369  -0.28591  -0.26893
 Alpha  occ. eigenvalues --   -0.26743  -0.26417  -0.25100  -0.24468  -0.21397
 Alpha  occ. eigenvalues --   -0.20343
 Alpha virt. eigenvalues --   -0.07729  -0.03160   0.00052   0.03146   0.04351
 Alpha virt. eigenvalues --    0.04836   0.05110   0.05164   0.05394   0.06076
 Alpha virt. eigenvalues --    0.06529   0.08733   0.09039   0.10217   0.10425

 Mulliken charges:
               1
     1  Mg   0.800169
     2  C    0.100368
     3  C   -0.211483
     4  C   -0.190833
     5  C   -0.196147
     6  N   -0.622563
     7  C    0.270723
     8  C   -0.161455
     9  C   -0.102661
    10  C    0.327927
    11  C   -0.306610
    12  C   -0.170385
    13  C   -0.274592
    14  C    0.594815
    15  O   -0.408440
    16  O   -0.502126
    17  N   -0.720281
    18  C    0.294408
    19  C    0.044248
    20  C   -0.048115
    21  C    0.339070
    22  C   -0.396326
    23  C   -0.032217
    24  C   -0.202370
    25  N   -0.702883
    26  C    0.321297
    27  C   -0.013769
    28  C    0.042127
    29  C    0.349915
    30  C   -0.356567
    31  C   -0.276623
    32  C   -0.287910
    33  N   -0.742904
    34  C    0.279967
    35  C    0.023212
    36  C   -0.004327
    37  C    0.296189
    38  C   -0.380638
    39  C    0.386832
    40  O   -0.477803
    41  C   -0.323866
    42  C    0.626552
    43  O   -0.477333
    44  O   -0.446889
    45  C   -0.093380
    46  C    0.045004
    47  C   -0.124287
    48  C    0.165484
    49  C   -0.374204
    50  C   -0.232169
    51  C   -0.177269
    52  C   -0.166783
    53  C   -0.026942
    54  C   -0.305958
    55  C   -0.194228
    56  C   -0.179054
    57  C   -0.162136
    58  C   -0.056705
    59  C   -0.324867
    60  C   -0.144911
    61  C   -0.168595
    62  C   -0.125975
    63  C   -0.074908
    64  C   -0.312665
    65  C   -0.287828
    66  H    0.079273
    67  H    0.095580
    68  H    0.078557
    69  H    0.118367
    70  H    0.102183
    71  H    0.088946
    72  H    0.117072
    73  H    0.132897
    74  H    0.117338
    75  H    0.108316
    76  H    0.143939
    77  H    0.139275
    78  H    0.120712
    79  H    0.134055
    80  H    0.112910
    81  H    0.070521
    82  H    0.087188
    83  H    0.075971
    84  H    0.110470
    85  H    0.117198
    86  H    0.118133
    87  H    0.091921
    88  H    0.103040
    89  H    0.107992
    90  H    0.116110
    91  H    0.118948
    92  H    0.089142
    93  H    0.141138
    94  H    0.141838
    95  H    0.172043
    96  H    0.137634
    97  H    0.157313
    98  H    0.125641
    99  H    0.116585
   100  H    0.062319
   101  H    0.080852
   102  H    0.112746
   103  H    0.115111
   104  H    0.119445
   105  H    0.069616
   106  H    0.098124
   107  H    0.076030
   108  H    0.096115
   109  H    0.087070
   110  H    0.075750
   111  H    0.086854
   112  H    0.086948
   113  H    0.103850
   114  H    0.101928
   115  H    0.096453
   116  H    0.062091
   117  H    0.099836
   118  H    0.072433
   119  H    0.082871
   120  H    0.089116
   121  H    0.061817
   122  H    0.100380
   123  H    0.087488
   124  H    0.112901
   125  H    0.073583
   126  H    0.066933
   127  H    0.098505
   128  H    0.079712
   129  H    0.097827
   130  H    0.054945
   131  H    0.063567
   132  H    0.103647
   133  H    0.103395
   134  H    0.106025
   135  H    0.097296
   136  H    0.106503
   137  H    0.084340
 Sum of Mulliken charges =  -0.00000

 Dipole moment (field-independent basis, Debye):
    X=              1.6491    Y=              3.6159    Z=              0.2658  Tot=              3.9831
 Quadrupole moment (field-independent basis, Debye-Ang):
   XX=           -340.5345   YY=           -393.1026   ZZ=           -393.8159
   XY=            -16.2716   XZ=              4.2905   YZ=             -6.2909

 Normal termination of Gaussian 16 at Tue Sep 17 03:41:13 2019.
