 Gaussian 09, Revision D.01,
 Gaussian 09:  ES64L-G09RevD.01 24-Apr-2013

 -------------------------------------
 # td=(NStates=1) CAM-B3LYP/6-31G(d,p)
 -------------------------------------

 --
 TD
 --
 Symbolic Z-matrix:
 Charge =  0 Multiplicity = 1

                         Standard orientation:
 ---------------------------------------------------------------------
 Center     Atomic      Atomic             Coordinates (Angstroms)
 Number     Number       Type             X           Y           Z
 ---------------------------------------------------------------------
      1         12           0       -7.185186    0.636334    0.136970
      2          6           0       -4.834594   -1.920686    0.527824
      3          6           0       -4.853715    2.816957    1.145266
      4          6           0       -9.406976    3.042422   -0.430941
      5          6           0       -9.615712   -1.671955   -0.683996
      6          7           0       -5.068224    0.388969    0.613594
      7          6           0       -4.264966   -0.647883    0.699492
      8          6           0       -2.904750   -0.337402    1.107228
      9          6           0       -3.046117    1.163983    1.480180
     10          6           0       -4.431472    1.506564    1.032992
     11          6           0       -2.781411    1.339457    2.971461
     12          6           0       -1.914524   -0.687774   -0.030470
     13          6           0       -0.397632   -0.533584    0.444227
     14          6           0        0.625028   -0.782615   -0.616295
     15          8           0        0.212373   -1.231711   -1.671952
     16          8           0        1.820863   -0.491197   -0.269510
     17          7           0       -7.107521    2.589536    0.274647
     18          6           0       -6.121735    3.303345    0.890101
     19          6           0       -6.399850    4.683689    0.829334
     20          6           0       -7.696252    4.815581    0.345003
     21          6           0       -8.152412    3.449913    0.017577
     22          6           0       -5.396645    5.715487    1.178790
     23          6           0       -8.602575    5.999568    0.094078
     24          6           0       -8.604392    7.160582    0.837920
     25          7           0       -9.134529    0.661850   -0.606548
     26          6           0       -9.918025    1.778980   -0.657451
     27          6           0      -11.298628    1.474288   -1.148851
     28          6           0      -11.327292    0.048659   -1.186873
     29          6           0      -10.047549   -0.400147   -0.850849
     30          6           0      -12.357232    2.503012   -1.231398
     31          6           0      -12.414922   -0.801422   -1.615683
     32          6           0      -12.404110   -0.946325   -3.231801
     33          7           0       -7.287340   -1.372082   -0.081288
     34          6           0       -8.385964   -2.198314   -0.362820
     35          6           0       -7.946154   -3.585155   -0.432036
     36          6           0       -6.600409   -3.585782   -0.102758
     37          6           0       -6.274208   -2.234379    0.211517
     38          6           0       -8.668874   -4.798145   -0.744054
     39          6           0       -5.362622   -4.419362    0.178678
     40          8           0       -5.170512   -5.616987    0.207766
     41          6           0       -4.227988   -3.351031    0.597446
     42          6           0       -3.517988   -3.703572    1.744686
     43          8           0       -3.514479   -3.027118    2.800238
     44          8           0       -2.702358   -4.688539    1.657484
     45          6           0       -2.006730   -5.065260    2.796779
     46          6           0        2.814652   -0.749933   -1.299734
     47          6           0        4.199006   -0.270903   -0.631860
     48          6           0        5.192996    0.464429   -1.024814
     49          6           0        5.226636    1.308635   -2.270434
     50          6           0        6.431287    0.547235   -0.102460
     51          6           0        7.587899   -0.228516   -0.830695
     52          6           0        8.903707    0.065254    0.012432
     53          6           0       10.195044   -0.487641   -0.802098
     54          6           0       10.059724   -2.042830   -1.115918
     55          6           0       11.485976   -0.344116    0.117194
     56          6           0       12.818623   -0.571314   -0.504040
     57          6           0       14.009683   -0.090005    0.319544
     58          6           0       15.351574   -0.292668   -0.458787
     59          6           0       15.730601   -1.728760   -0.750016
     60          6           0       16.432342    0.537009    0.357282
     61          6           0       17.901181    0.601062   -0.160549
     62          6           0       18.803678    1.340871    0.710592
     63          6           0       20.235962    1.400408    0.144209
     64          6           0       20.310653    2.162450   -1.185005
     65          6           0       21.167409    1.825308    1.138902
     66          1           0       -4.180664    3.394807    1.545561
     67          1           0      -10.007072    3.939460   -0.561527
     68          1           0      -10.281652   -2.364967   -0.880425
     69          1           0       -2.800274   -0.812092    2.138769
     70          1           0       -2.325886    1.788900    1.050418
     71          1           0       -1.654582    1.213297    3.267026
     72          1           0       -2.883618    2.453408    3.201261
     73          1           0       -3.649465    0.922137    3.456794
     74          1           0       -2.146831   -1.731565   -0.278740
     75          1           0       -2.126399   -0.065674   -0.954018
     76          1           0       -0.180180    0.498409    0.902918
     77          1           0       -0.314208   -1.147452    1.371816
     78          1           0       -5.696253    6.652025    0.629020
     79          1           0       -5.285665    5.667636    2.331852
     80          1           0       -4.258430    5.508813    0.705121
     81          1           0       -9.125499    5.991973   -0.892198
     82          1           0       -9.365324    7.874457    0.616847
     83          1           0       -8.101656    7.239195    1.788121
     84          1           0      -12.275130    3.119039   -2.305561
     85          1           0      -13.460314    1.924446   -1.259008
     86          1           0      -12.284982    3.266537   -0.392371
     87          1           0      -12.528867   -1.699558   -1.061789
     88          1           0      -13.655262   -0.396097   -1.463933
     89          1           0      -13.265956   -1.692657   -3.676360
     90          1           0      -12.531757    0.035075   -3.773816
     91          1           0      -11.560037   -1.379763   -3.662019
     92          1           0       -9.049023   -5.195182   -1.687405
     93          1           0       -7.957570   -5.646080   -0.419574
     94          1           0       -9.724838   -4.817727   -0.188462
     95          1           0       -3.554750   -3.595019   -0.261385
     96          1           0       -1.347620   -4.181438    3.446425
     97          1           0       -2.583072   -5.552035    3.611788
     98          1           0       -1.473529   -5.861367    2.502195
     99          1           0        2.817862   -1.856944   -1.637485
    100          1           0        2.555968   -0.025187   -2.221493
    101          1           0        4.474373   -0.909092    0.229773
    102          1           0        4.281295    1.263404   -2.606136
    103          1           0        5.538038    2.328673   -2.199552
    104          1           0        5.869583    0.757847   -3.005959
    105          1           0        6.692740    1.532689    0.064701
    106          1           0        6.167164    0.159052    0.812978
    107          1           0        7.189655   -1.283466   -0.785304
    108          1           0        7.960008   -0.167349   -2.008611
    109          1           0        8.962465    1.152922    0.228436
    110          1           0        8.828216   -0.297703    1.018114
    111          1           0       10.096766   -0.070980   -1.730775
    112          1           0        9.096241   -2.162184   -1.826752
    113          1           0       10.883740   -2.291523   -1.761872
    114          1           0        9.939021   -2.682196   -0.357629
    115          1           0       11.547340    0.757956    0.791751
    116          1           0       11.214643   -0.868395    0.914636
    117          1           0       12.845380   -1.601881   -0.697993
    118          1           0       12.882364   -0.145813   -1.511576
    119          1           0       13.762486    0.963849    0.750582
    120          1           0       14.184184   -0.798565    1.091001
    121          1           0       15.546051    0.297446   -1.460186
    122          1           0       15.826280   -2.362652    0.093845
    123          1           0       14.869948   -2.195268   -1.390933
    124          1           0       16.658287   -1.822858   -1.141788
    125          1           0       16.013219    1.539211    0.484207
    126          1           0       16.715546    0.074688    1.348877
    127          1           0       18.132277   -0.443810   -0.490014
    128          1           0       17.657807    0.968053   -1.118932
    129          1           0       18.513120    2.241028    1.187302
    130          1           0       18.806516    0.554589    1.460574
    131          1           0       20.483454    0.604383   -0.297647
    132          1           0       20.230280    3.307095   -1.264616
    133          1           0       21.333355    1.992622   -1.547983
    134          1           0       19.764211    1.687184   -2.009600
    135          1           0       21.334374    1.189481    1.970631
    136          1           0       22.306285    1.847268    0.710246
    137          1           0       21.098830    2.879984    1.420878
 ---------------------------------------------------------------------

 SCF Done:  E(RCAM-B3LYP) =  -2932.64484296     A.U. after   18 cycles

 Excitation energies and oscillator strengths:

 Excited State   1:      Singlet-A      2.0637 eV  600.79 nm  f=0.2098  <S**2>=0.000
     240 -> 242       -0.10964
     240 -> 243        0.26256
     241 -> 242        0.63668
 This state for optimization and/or second-order correction.
 Total Energy, E(TD-HF/TD-KS) =  -2932.56900333
 Copying the excited state density for this state as the 1-particle RhoCI density.

 The electronic state is 1-A.
 Alpha  occ. eigenvalues --  -46.83841 -19.27952 -19.27013 -19.21444 -19.19524
 Alpha  occ. eigenvalues --  -19.18272 -14.41129 -14.39025 -14.39000 -14.38968
 Alpha  occ. eigenvalues --  -10.38388 -10.37661 -10.36644 -10.34995 -10.31320
 Alpha  occ. eigenvalues --  -10.30109 -10.29763 -10.29337 -10.29234 -10.29083
 Alpha  occ. eigenvalues --  -10.28911 -10.28884 -10.28708 -10.28616 -10.28520
 Alpha  occ. eigenvalues --  -10.28362 -10.28316 -10.28033 -10.27919 -10.27826
 Alpha  occ. eigenvalues --  -10.27805 -10.27448 -10.27264 -10.27114 -10.27098
 Alpha  occ. eigenvalues --  -10.27033 -10.26978 -10.26771 -10.26751 -10.26696
 Alpha  occ. eigenvalues --  -10.26624 -10.26578 -10.26568 -10.26486 -10.26413
 Alpha  occ. eigenvalues --  -10.26201 -10.26063 -10.25772 -10.25751 -10.25718
 Alpha  occ. eigenvalues --  -10.25669 -10.25669 -10.25639 -10.25327 -10.24821
 Alpha  occ. eigenvalues --  -10.24733 -10.24566 -10.24410 -10.24370 -10.24295
 Alpha  occ. eigenvalues --  -10.24251 -10.24121 -10.24055 -10.23924 -10.23796
 Alpha  occ. eigenvalues --   -3.12953  -1.87650  -1.87192  -1.87142  -1.21027
 Alpha  occ. eigenvalues --   -1.20797  -1.11911  -1.09085  -1.06306  -1.05586
 Alpha  occ. eigenvalues --   -1.03566  -1.02797  -1.01477  -0.91507  -0.91476
 Alpha  occ. eigenvalues --   -0.91306  -0.89891  -0.89728  -0.89246  -0.88641
 Alpha  occ. eigenvalues --   -0.88170  -0.87984  -0.87519  -0.87380  -0.86062
 Alpha  occ. eigenvalues --   -0.85399  -0.84687  -0.83815  -0.83228  -0.82355
 Alpha  occ. eigenvalues --   -0.82082  -0.81601  -0.80919  -0.79979  -0.78040
 Alpha  occ. eigenvalues --   -0.77555  -0.77294  -0.76589  -0.76212  -0.76059
 Alpha  occ. eigenvalues --   -0.75997  -0.74777  -0.74366  -0.73799  -0.72310
 Alpha  occ. eigenvalues --   -0.71153  -0.70263  -0.70081  -0.69401  -0.68362
 Alpha  occ. eigenvalues --   -0.67428  -0.66761  -0.65241  -0.65180  -0.65102
 Alpha  occ. eigenvalues --   -0.65015  -0.64704  -0.64141  -0.63206  -0.62488
 Alpha  occ. eigenvalues --   -0.62134  -0.60482  -0.60212  -0.59693  -0.59286
 Alpha  occ. eigenvalues --   -0.58619  -0.58411  -0.57480  -0.57388  -0.57215
 Alpha  occ. eigenvalues --   -0.56412  -0.55878  -0.55687  -0.55604  -0.55173
 Alpha  occ. eigenvalues --   -0.54692  -0.54484  -0.54296  -0.53841  -0.53084
 Alpha  occ. eigenvalues --   -0.53003  -0.52871  -0.52315  -0.52044  -0.51448
 Alpha  occ. eigenvalues --   -0.50912  -0.50714  -0.50686  -0.50552  -0.50217
 Alpha  occ. eigenvalues --   -0.49975  -0.49932  -0.49631  -0.49531  -0.49348
 Alpha  occ. eigenvalues --   -0.49196  -0.48904  -0.48863  -0.48611  -0.48166
 Alpha  occ. eigenvalues --   -0.48059  -0.47965  -0.47771  -0.47457  -0.47403
 Alpha  occ. eigenvalues --   -0.46941  -0.46626  -0.46327  -0.46236  -0.45642
 Alpha  occ. eigenvalues --   -0.45527  -0.45370  -0.44991  -0.44931  -0.44851
 Alpha  occ. eigenvalues --   -0.44639  -0.44536  -0.44436  -0.44322  -0.44173
 Alpha  occ. eigenvalues --   -0.43990  -0.43588  -0.43539  -0.43222  -0.43210
 Alpha  occ. eigenvalues --   -0.42932  -0.42886  -0.42569  -0.42396  -0.42241
 Alpha  occ. eigenvalues --   -0.41881  -0.41759  -0.41451  -0.41294  -0.41108
 Alpha  occ. eigenvalues --   -0.41043  -0.40619  -0.40457  -0.40362  -0.40180
 Alpha  occ. eigenvalues --   -0.40158  -0.40069  -0.40013  -0.39796  -0.39494
 Alpha  occ. eigenvalues --   -0.39187  -0.39138  -0.38368  -0.37955  -0.37945
 Alpha  occ. eigenvalues --   -0.37448  -0.37167  -0.37094  -0.36739  -0.36589
 Alpha  occ. eigenvalues --   -0.36415  -0.35813  -0.35805  -0.35483  -0.35019
 Alpha  occ. eigenvalues --   -0.34766  -0.34357  -0.34001  -0.33552  -0.33143
 Alpha  occ. eigenvalues --   -0.32711  -0.32134  -0.31842  -0.30664  -0.30623
 Alpha  occ. eigenvalues --   -0.30223  -0.29190  -0.27958  -0.27316  -0.22574
 Alpha  occ. eigenvalues --   -0.21270
 Alpha virt. eigenvalues --   -0.06348  -0.03058   0.01796   0.03706   0.05496
 Alpha virt. eigenvalues --    0.05991   0.06407   0.06972   0.07410   0.07634
 Alpha virt. eigenvalues --    0.08542   0.10393   0.10482   0.11276   0.11598

 Mulliken charges:
               1
     1  Mg   0.815771
     2  C    0.047879
     3  C   -0.144585
     4  C   -0.181333
     5  C   -0.164308
     6  N   -0.632935
     7  C    0.297242
     8  C   -0.166472
     9  C   -0.161957
    10  C    0.340928
    11  C   -0.317201
    12  C   -0.155709
    13  C   -0.288189
    14  C    0.622957
    15  O   -0.494362
    16  O   -0.425023
    17  N   -0.730041
    18  C    0.312632
    19  C    0.026103
    20  C    0.004614
    21  C    0.297440
    22  C   -0.367481
    23  C   -0.111315
    24  C   -0.235033
    25  N   -0.683595
    26  C    0.310765
    27  C    0.051812
    28  C    0.058537
    29  C    0.317533
    30  C   -0.369151
    31  C   -0.253768
    32  C   -0.305137
    33  N   -0.689941
    34  C    0.275188
    35  C    0.049916
    36  C   -0.003194
    37  C    0.252762
    38  C   -0.406570
    39  C    0.378186
    40  O   -0.444374
    41  C   -0.358051
    42  C    0.650513
    43  O   -0.527392
    44  O   -0.397173
    45  C   -0.074148
    46  C   -0.010229
    47  C   -0.140352
    48  C    0.100959
    49  C   -0.350178
    50  C   -0.227648
    51  C   -0.179842
    52  C   -0.180156
    53  C   -0.077135
    54  C   -0.317021
    55  C   -0.148373
    56  C   -0.178616
    57  C   -0.166831
    58  C   -0.067650
    59  C   -0.313338
    60  C   -0.184937
    61  C   -0.207287
    62  C   -0.153942
    63  C   -0.011775
    64  C   -0.337248
    65  C   -0.312978
    66  H    0.055750
    67  H    0.077763
    68  H    0.059759
    69  H    0.158476
    70  H    0.106690
    71  H    0.111571
    72  H    0.088058
    73  H    0.132359
    74  H    0.119869
    75  H    0.117967
    76  H    0.109520
    77  H    0.136232
    78  H    0.126639
    79  H    0.123170
    80  H    0.093742
    81  H    0.112519
    82  H    0.108210
    83  H    0.114311
    84  H    0.096748
    85  H    0.097742
    86  H    0.128333
    87  H    0.119332
    88  H    0.064420
    89  H    0.073693
    90  H    0.113792
    91  H    0.126063
    92  H    0.137391
    93  H    0.141049
    94  H    0.100117
    95  H    0.172249
    96  H    0.101535
    97  H    0.122260
    98  H    0.123154
    99  H    0.143322
   100  H    0.120127
   101  H    0.081548
   102  H    0.113267
   103  H    0.120354
   104  H    0.118616
   105  H    0.107844
   106  H    0.113472
   107  H    0.100336
   108  H    0.078153
   109  H    0.093602
   110  H    0.093959
   111  H    0.094683
   112  H    0.072036
   113  H    0.108498
   114  H    0.117653
   115  H    0.021236
   116  H    0.110208
   117  H    0.102540
   118  H    0.096441
   119  H    0.090700
   120  H    0.107157
   121  H    0.068395
   122  H    0.104650
   123  H    0.091853
   124  H    0.113298
   125  H    0.091139
   126  H    0.064654
   127  H    0.084100
   128  H    0.089109
   129  H    0.101090
   130  H    0.095956
   131  H    0.097359
   132  H    0.086880
   133  H    0.093504
   134  H    0.105935
   135  H    0.111440
   136  H    0.060758
   137  H    0.105891
 Sum of Mulliken charges =   0.00000

 Dipole moment (field-independent basis, Debye):
    X=              2.7333    Y=              3.8487    Z=              0.3892  Tot=              4.7365
 Quadrupole moment (field-independent basis, Debye-Ang):
   XX=           -343.0351   YY=           -389.2898   ZZ=           -397.5606
   XY=            -32.0959   XZ=              7.1568   YZ=              1.8536

 Normal termination of Gaussian 09 at Fri Jul  5 02:59:19 2019.
