 Gaussian 09, Revision D.01,
 Gaussian 09:  ES64L-G09RevD.01 24-Apr-2013

 -------------------------------------
 # td=(NStates=1) CAM-B3LYP/6-31G(d,p)
 -------------------------------------

 --
 TD
 --
 Symbolic Z-matrix:
 Charge =  0 Multiplicity = 1

                         Standard orientation:
 ---------------------------------------------------------------------
 Center     Atomic      Atomic             Coordinates (Angstroms)
 Number     Number       Type             X           Y           Z
 ---------------------------------------------------------------------
      1         12           0       -7.138886    0.586239    0.040724
      2          6           0       -4.768849   -1.968233    0.549208
      3          6           0       -4.778352    2.834589    1.257180
      4          6           0       -9.412245    3.087921   -0.366314
      5          6           0       -9.488471   -1.706782   -1.044534
      6          7           0       -5.067846    0.416228    0.730494
      7          6           0       -4.262273   -0.734944    0.781847
      8          6           0       -2.906233   -0.320242    1.279999
      9          6           0       -3.019979    1.123120    1.816068
     10          6           0       -4.388041    1.422126    1.255434
     11          6           0       -2.908996    1.321167    3.196445
     12          6           0       -1.962545   -0.515445    0.072952
     13          6           0       -0.557282   -0.420886    0.643288
     14          6           0        0.475684   -0.643545   -0.479190
     15          8           0        0.241253   -1.002652   -1.625326
     16          8           0        1.741376   -0.357833   -0.007452
     17          7           0       -7.100482    2.545058    0.308233
     18          6           0       -6.023531    3.318915    0.914566
     19          6           0       -6.424227    4.747447    0.819996
     20          6           0       -7.681788    4.815092    0.325713
     21          6           0       -8.174007    3.452968    0.038882
     22          6           0       -5.488134    5.854778    1.231356
     23          6           0       -8.513094    5.994761    0.073239
     24          6           0       -8.434541    7.150063    0.720926
     25          7           0       -9.077299    0.612902   -0.549352
     26          6           0       -9.864819    1.755977   -0.672633
     27          6           0      -11.143324    1.459233   -1.202260
     28          6           0      -11.315238    0.111796   -1.329883
     29          6           0       -9.910145   -0.404143   -0.989921
     30          6           0      -12.171734    2.442881   -1.518230
     31          6           0      -12.322438   -0.700670   -1.893963
     32          6           0      -12.245041   -1.087618   -3.368851
     33          7           0       -7.311958   -1.408087   -0.163137
     34          6           0       -8.290241   -2.248714   -0.583513
     35          6           0       -7.859921   -3.633027   -0.508538
     36          6           0       -6.543789   -3.597889    0.060823
     37          6           0       -6.227278   -2.146566    0.162634
     38          6           0       -8.558081   -4.928570   -0.773752
     39          6           0       -5.336546   -4.361846    0.287121
     40          8           0       -5.301606   -5.609966    0.282669
     41          6           0       -4.076590   -3.281061    0.579141
     42          6           0       -3.477119   -3.683298    1.825883
     43          8           0       -3.653527   -3.161815    2.975894
     44          8           0       -2.716838   -4.753768    1.710219
     45          6           0       -2.281167   -5.414367    2.933850
     46          6           0        2.808490   -0.595083   -1.095683
     47          6           0        4.119339   -0.317716   -0.397124
     48          6           0        5.104020    0.498014   -0.920882
     49          6           0        5.035740    1.137035   -2.261490
     50          6           0        6.392971    0.587555   -0.266803
     51          6           0        7.664978   -0.127065   -0.876750
     52          6           0        8.931664    0.038263   -0.055912
     53          6           0       10.145362   -0.379377   -0.931115
     54          6           0       10.057158   -1.966812   -1.387406
     55          6           0       11.495015   -0.096417   -0.153943
     56          6           0       12.750080   -0.565712   -0.813551
     57          6           0       13.949382   -0.130816    0.081783
     58          6           0       15.381233   -0.338233   -0.568944
     59          6           0       15.681024   -1.840658   -0.837829
     60          6           0       16.425799    0.282016    0.384063
     61          6           0       17.800444    0.543343   -0.199885
     62          6           0       18.720605    1.167072    0.607221
     63          6           0       20.204871    1.317188    0.230485
     64          6           0       20.354844    2.121366   -1.118049
     65          6           0       21.089222    1.964168    1.385731
     66          1           0       -4.005328    3.418579    1.760498
     67          1           0      -10.138057    3.854673   -0.373453
     68          1           0      -10.288198   -2.437845   -1.212305
     69          1           0       -2.724455   -0.856272    2.161586
     70          1           0       -2.088778    1.681471    1.321367
     71          1           0       -1.966989    0.979884    3.516273
     72          1           0       -2.956050    2.578838    3.392983
     73          1           0       -3.731480    0.917676    3.781364
     74          1           0       -2.022486   -1.477011   -0.310307
     75          1           0       -2.137060    0.238978   -0.619024
     76          1           0       -0.466749    0.630423    0.920770
     77          1           0       -0.297179   -0.886017    1.574895
     78          1           0       -5.904577    6.921964    0.927969
     79          1           0       -5.646573    6.144405    2.381042
     80          1           0       -4.336073    5.780648    1.148766
     81          1           0       -9.179665    5.996797   -0.600922
     82          1           0       -9.042483    8.041454    0.362917
     83          1           0       -7.723203    7.510969    1.464054
     84          1           0      -11.979461    3.166457   -2.164122
     85          1           0      -13.146204    1.874180   -1.695898
     86          1           0      -12.220807    3.234679   -0.862056
     87          1           0      -12.476678   -1.654471   -1.558602
     88          1           0      -13.307982   -0.044930   -1.875278
     89          1           0      -13.260065   -1.504936   -3.714556
     90          1           0      -12.009663   -0.139496   -3.842216
     91          1           0      -11.553281   -2.035369   -3.766301
     92          1           0       -8.784444   -5.096673   -2.062514
     93          1           0       -7.991755   -5.730977   -0.559046
     94          1           0       -9.536986   -4.798849   -0.317743
     95          1           0       -3.368908   -3.473507   -0.280247
     96          1           0       -1.777079   -4.812379    3.578627
     97          1           0       -3.181527   -5.977296    3.473255
     98          1           0       -1.521138   -5.962927    2.504227
     99          1           0        2.693530   -1.542349   -1.214210
    100          1           0        2.751390   -0.023268   -1.915136
    101          1           0        4.202799   -0.938250    0.273587
    102          1           0        4.102311    1.243511   -2.592962
    103          1           0        5.337983    2.190341   -1.893791
    104          1           0        5.991898    0.717018   -2.894415
    105          1           0        6.735130    1.806219   -0.061922
    106          1           0        6.468336    0.373501    0.835646
    107          1           0        7.297824   -1.087706   -1.053000
    108          1           0        7.957779    0.099212   -1.986650
    109          1           0        9.058276    1.094379    0.268491
    110          1           0        8.837013   -0.507670    0.869661
    111          1           0       10.167705    0.151851   -1.691122
    112          1           0        9.125871   -2.316143   -1.892386
    113          1           0       10.796176   -2.407645   -2.228248
    114          1           0       10.139961   -2.702262   -0.404412
    115          1           0       11.596310    1.138664   -0.079071
    116          1           0       11.373793   -0.517973    0.794862
    117          1           0       12.694430   -1.609635   -0.994786
    118          1           0       12.673871   -0.060582   -1.978544
    119          1           0       13.839997    0.969130    0.565489
    120          1           0       13.917655   -0.814559    0.922528
    121          1           0       15.431610    0.137305   -1.647071
    122          1           0       15.704893   -2.465346    0.020233
    123          1           0       15.165370   -2.294452   -1.721536
    124          1           0       16.725108   -1.831953   -1.149452
    125          1           0       15.848624    1.239821    0.636066
    126          1           0       16.412852   -0.473770    1.151407
    127          1           0       18.154719   -0.436974   -0.303383
    128          1           0       17.500766    1.175193   -1.190200
    129          1           0       18.266822    2.127314    1.034312
    130          1           0       18.998357    0.577951    1.537478
    131          1           0       20.330328    0.160911   -0.067566
    132          1           0       19.899196    3.142700   -1.086441
    133          1           0       21.501457    2.116823   -1.235174
    134          1           0       19.823938    1.652885   -1.874725
    135          1           0       21.059866    1.452327    2.318400
    136          1           0       22.176268    2.058638    1.103380
    137          1           0       20.464415    2.853723    1.514958
 ---------------------------------------------------------------------

 SCF Done:  E(RCAM-B3LYP) =  -2932.56389122     A.U. after   17 cycles

 Excitation energies and oscillator strengths:

 Excited State   1:      Singlet-A      2.1093 eV  587.78 nm  f=0.2405  <S**2>=0.000
     240 -> 242        0.10155
     240 -> 243       -0.21886
     241 -> 242        0.65451
 This state for optimization and/or second-order correction.
 Total Energy, E(TD-HF/TD-KS) =  -2932.48637416
 Copying the excited state density for this state as the 1-particle RhoCI density.

 The electronic state is 1-A.
 Alpha  occ. eigenvalues --  -46.83721 -19.26018 -19.25275 -19.21015 -19.19927
 Alpha  occ. eigenvalues --  -19.18887 -14.42337 -14.39642 -14.39587 -14.39313
 Alpha  occ. eigenvalues --  -10.39025 -10.38379 -10.35471 -10.31945 -10.31241
 Alpha  occ. eigenvalues --  -10.30519 -10.29992 -10.29748 -10.29655 -10.29578
 Alpha  occ. eigenvalues --  -10.29467 -10.29262 -10.28805 -10.28446 -10.28290
 Alpha  occ. eigenvalues --  -10.28244 -10.28141 -10.27939 -10.27931 -10.27862
 Alpha  occ. eigenvalues --  -10.27844 -10.27832 -10.27616 -10.27368 -10.27104
 Alpha  occ. eigenvalues --  -10.27069 -10.26938 -10.26899 -10.26854 -10.26780
 Alpha  occ. eigenvalues --  -10.26723 -10.26629 -10.26448 -10.26442 -10.26372
 Alpha  occ. eigenvalues --  -10.26312 -10.26296 -10.26259 -10.26251 -10.26198
 Alpha  occ. eigenvalues --  -10.26124 -10.26081 -10.25988 -10.25911 -10.25783
 Alpha  occ. eigenvalues --  -10.25697 -10.25389 -10.25038 -10.24986 -10.24796
 Alpha  occ. eigenvalues --  -10.24538 -10.24460 -10.24355 -10.24296 -10.24291
 Alpha  occ. eigenvalues --   -3.12889  -1.87580  -1.87164  -1.87049  -1.17634
 Alpha  occ. eigenvalues --   -1.15620  -1.08665  -1.07496  -1.05178  -1.04758
 Alpha  occ. eigenvalues --   -1.03336  -1.02022  -1.00275  -0.92051  -0.91911
 Alpha  occ. eigenvalues --   -0.91618  -0.91378  -0.90170  -0.89809  -0.89503
 Alpha  occ. eigenvalues --   -0.88774  -0.88430  -0.87963  -0.86639  -0.86151
 Alpha  occ. eigenvalues --   -0.85561  -0.84669  -0.84567  -0.83608  -0.83141
 Alpha  occ. eigenvalues --   -0.82419  -0.81633  -0.80692  -0.79902  -0.78550
 Alpha  occ. eigenvalues --   -0.78245  -0.77259  -0.77031  -0.76162  -0.75777
 Alpha  occ. eigenvalues --   -0.75449  -0.75015  -0.73897  -0.73195  -0.72147
 Alpha  occ. eigenvalues --   -0.71799  -0.71060  -0.69493  -0.69278  -0.68251
 Alpha  occ. eigenvalues --   -0.67394  -0.67145  -0.65904  -0.65279  -0.65150
 Alpha  occ. eigenvalues --   -0.64151  -0.63785  -0.63144  -0.61879  -0.61807
 Alpha  occ. eigenvalues --   -0.61681  -0.61072  -0.61013  -0.60628  -0.60147
 Alpha  occ. eigenvalues --   -0.59085  -0.58468  -0.58237  -0.57731  -0.57423
 Alpha  occ. eigenvalues --   -0.56751  -0.56263  -0.55901  -0.55787  -0.55299
 Alpha  occ. eigenvalues --   -0.54598  -0.54453  -0.53728  -0.53361  -0.53020
 Alpha  occ. eigenvalues --   -0.52759  -0.52380  -0.52304  -0.52100  -0.51766
 Alpha  occ. eigenvalues --   -0.51645  -0.51349  -0.51337  -0.51103  -0.50721
 Alpha  occ. eigenvalues --   -0.50378  -0.50062  -0.49748  -0.49594  -0.49452
 Alpha  occ. eigenvalues --   -0.49191  -0.48903  -0.48559  -0.48547  -0.48412
 Alpha  occ. eigenvalues --   -0.47989  -0.47714  -0.47529  -0.47443  -0.47347
 Alpha  occ. eigenvalues --   -0.47087  -0.46845  -0.46819  -0.46373  -0.46284
 Alpha  occ. eigenvalues --   -0.46253  -0.45964  -0.45731  -0.45405  -0.45036
 Alpha  occ. eigenvalues --   -0.44760  -0.44597  -0.44534  -0.44054  -0.43853
 Alpha  occ. eigenvalues --   -0.43610  -0.43518  -0.43275  -0.43130  -0.43013
 Alpha  occ. eigenvalues --   -0.42844  -0.42545  -0.42454  -0.42426  -0.42359
 Alpha  occ. eigenvalues --   -0.42260  -0.42056  -0.41905  -0.41692  -0.41565
 Alpha  occ. eigenvalues --   -0.41214  -0.40895  -0.40737  -0.40615  -0.40415
 Alpha  occ. eigenvalues --   -0.40335  -0.40191  -0.40111  -0.39745  -0.39576
 Alpha  occ. eigenvalues --   -0.39070  -0.38895  -0.38134  -0.37950  -0.37792
 Alpha  occ. eigenvalues --   -0.37137  -0.37052  -0.36800  -0.36658  -0.36462
 Alpha  occ. eigenvalues --   -0.36362  -0.36164  -0.35870  -0.35775  -0.35469
 Alpha  occ. eigenvalues --   -0.35441  -0.34681  -0.34443  -0.33790  -0.33316
 Alpha  occ. eigenvalues --   -0.33053  -0.32151  -0.31931  -0.30716  -0.29310
 Alpha  occ. eigenvalues --   -0.29056  -0.28754  -0.28220  -0.27812  -0.23676
 Alpha  occ. eigenvalues --   -0.21007
 Alpha virt. eigenvalues --   -0.06043  -0.02908   0.01315   0.03595   0.04099
 Alpha virt. eigenvalues --    0.05732   0.06045   0.06419   0.06869   0.07305
 Alpha virt. eigenvalues --    0.08235   0.10148   0.10949   0.11283   0.11522

 Mulliken charges:
               1
     1  Mg   0.819811
     2  C    0.076462
     3  C   -0.193838
     4  C   -0.197683
     5  C   -0.173717
     6  N   -0.609495
     7  C    0.278574
     8  C   -0.179642
     9  C   -0.135460
    10  C    0.335682
    11  C   -0.285600
    12  C   -0.156638
    13  C   -0.284050
    14  C    0.613298
    15  O   -0.483117
    16  O   -0.518501
    17  N   -0.743448
    18  C    0.306617
    19  C    0.058930
    20  C    0.015496
    21  C    0.332777
    22  C   -0.395670
    23  C   -0.038421
    24  C   -0.246668
    25  N   -0.682805
    26  C    0.317428
    27  C    0.028649
    28  C    0.083636
    29  C    0.256614
    30  C   -0.366678
    31  C   -0.261969
    32  C   -0.296871
    33  N   -0.718769
    34  C    0.279962
    35  C    0.012263
    36  C   -0.000618
    37  C    0.288797
    38  C   -0.342979
    39  C    0.350524
    40  O   -0.480436
    41  C   -0.343328
    42  C    0.638922
    43  O   -0.532689
    44  O   -0.447605
    45  C   -0.070752
    46  C    0.034022
    47  C   -0.092434
    48  C    0.097968
    49  C   -0.335520
    50  C   -0.227801
    51  C   -0.171588
    52  C   -0.177963
    53  C   -0.039119
    54  C   -0.327013
    55  C   -0.167666
    56  C   -0.157667
    57  C   -0.168139
    58  C   -0.064801
    59  C   -0.330502
    60  C   -0.170303
    61  C   -0.137741
    62  C   -0.162719
    63  C   -0.067251
    64  C   -0.300522
    65  C   -0.312512
    66  H    0.081994
    67  H    0.078789
    68  H    0.086304
    69  H    0.135411
    70  H    0.095442
    71  H    0.120738
    72  H    0.072067
    73  H    0.134682
    74  H    0.133792
    75  H    0.128388
    76  H    0.129496
    77  H    0.144011
    78  H    0.111289
    79  H    0.109057
    80  H    0.124771
    81  H    0.083700
    82  H    0.092863
    83  H    0.101804
    84  H    0.124357
    85  H    0.104631
    86  H    0.114556
    87  H    0.123907
    88  H    0.091183
    89  H    0.098770
    90  H    0.114576
    91  H    0.088123
    92  H    0.066205
    93  H    0.158078
    94  H    0.125438
    95  H    0.171499
    96  H    0.139063
    97  H    0.131642
    98  H    0.127626
    99  H    0.131529
   100  H    0.117256
   101  H    0.067834
   102  H    0.121659
   103  H    0.109594
   104  H    0.122214
   105  H    0.048692
   106  H    0.109037
   107  H    0.116098
   108  H    0.073120
   109  H    0.098377
   110  H    0.100157
   111  H    0.099858
   112  H    0.104447
   113  H    0.089315
   114  H    0.078994
   115  H    0.060010
   116  H    0.097431
   117  H    0.114257
   118  H    0.046353
   119  H    0.073947
   120  H    0.099223
   121  H    0.066662
   122  H    0.103739
   123  H    0.104458
   124  H    0.102587
   125  H    0.081027
   126  H    0.092282
   127  H    0.094673
   128  H    0.074221
   129  H    0.063411
   130  H    0.081991
   131  H    0.056079
   132  H    0.092456
   133  H    0.090079
   134  H    0.113175
   135  H    0.109607
   136  H    0.105320
   137  H    0.116856
 Sum of Mulliken charges =   0.00000

 Dipole moment (field-independent basis, Debye):
    X=              2.4045    Y=              4.9933    Z=              0.3845  Tot=              5.5554
 Quadrupole moment (field-independent basis, Debye-Ang):
   XX=           -347.9870   YY=           -390.1631   ZZ=           -399.2824
   XY=            -42.1611   XZ=             19.6870   YZ=              1.1353

 Normal termination of Gaussian 09 at Tue Jul  2 22:42:10 2019.
