 Gaussian 16, Revision A.03,
 Gaussian 16:  ES64L-G16RevA.03 25-Dec-2016

 -------------------------------------
 # td=(NStates=1) CAM-B3LYP/6-31G(d,p)
 -------------------------------------

 --
 TD
 --
 Symbolic Z-matrix:
 Charge =  0 Multiplicity = 1

                         Standard orientation:
 ---------------------------------------------------------------------
 Center     Atomic      Atomic             Coordinates (Angstroms)
 Number     Number       Type             X           Y           Z
 ---------------------------------------------------------------------
      1         12           0       -7.128807    0.625256    0.109534
      2          6           0       -4.835703   -1.925793    0.466341
      3          6           0       -4.751824    2.919042    0.986189
      4          6           0       -9.377361    3.056244   -0.339322
      5          6           0       -9.489128   -1.783699   -0.862913
      6          7           0       -5.018023    0.451405    0.656224
      7          6           0       -4.296722   -0.715911    0.750539
      8          6           0       -2.937001   -0.406014    1.034367
      9          6           0       -3.032489    1.118079    1.494114
     10          6           0       -4.357517    1.519915    1.053754
     11          6           0       -2.839432    1.432700    2.993467
     12          6           0       -1.947514   -0.602673   -0.107469
     13          6           0       -0.474896   -0.439269    0.393779
     14          6           0        0.542809   -0.589706   -0.802047
     15          8           0        0.256919   -1.033617   -1.860906
     16          8           0        1.757317   -0.486053   -0.436102
     17          7           0       -7.201563    2.640679    0.343864
     18          6           0       -6.063142    3.418549    0.782501
     19          6           0       -6.386522    4.962321    0.763866
     20          6           0       -7.693023    4.978607    0.373470
     21          6           0       -8.179690    3.489111    0.104868
     22          6           0       -5.446155    6.056329    1.103696
     23          6           0       -8.599571    6.126430    0.182071
     24          6           0       -8.449987    7.337000    0.843846
     25          7           0       -9.079373    0.642198   -0.586774
     26          6           0       -9.808809    1.742820   -0.657341
     27          6           0      -11.173345    1.454030   -1.029218
     28          6           0      -11.227630    0.089849   -1.202777
     29          6           0       -9.949401   -0.422541   -0.805098
     30          6           0      -12.278363    2.420084   -1.275562
     31          6           0      -12.429740   -0.738492   -1.491348
     32          6           0      -12.452238   -1.210520   -2.938863
     33          7           0       -7.212925   -1.441338   -0.047898
     34          6           0       -8.222186   -2.289074   -0.525818
     35          6           0       -7.799949   -3.659481   -0.565649
     36          6           0       -6.475406   -3.586592   -0.115051
     37          6           0       -6.132509   -2.235240    0.068364
     38          6           0       -8.694032   -4.862004   -0.893905
     39          6           0       -5.294741   -4.402937    0.192349
     40          8           0       -5.180963   -5.569660    0.194672
     41          6           0       -4.188294   -3.317993    0.518963
     42          6           0       -3.730901   -3.748885    1.899994
     43          8           0       -3.863317   -3.239883    3.039400
     44          8           0       -2.858789   -4.814147    1.808148
     45          6           0       -2.449907   -5.346132    3.078153
     46          6           0        2.841678   -0.729360   -1.380289
     47          6           0        4.118176   -0.375302   -0.657897
     48          6           0        5.084988    0.428297   -1.047541
     49          6           0        5.059351    1.336294   -2.134939
     50          6           0        6.516308    0.453667   -0.183076
     51          6           0        7.705334   -0.208588   -0.869201
     52          6           0        9.000317   -0.119238   -0.067180
     53          6           0       10.253280   -0.615775   -0.872796
     54          6           0       10.172805   -2.098708   -1.067183
     55          6           0       11.419687   -0.338989    0.033795
     56          6           0       12.780869   -0.598052   -0.680681
     57          6           0       13.991510   -0.205343    0.191701
     58          6           0       15.332353   -0.145312   -0.558828
     59          6           0       15.799926   -1.545514   -1.044198
     60          6           0       16.372314    0.437841    0.392459
     61          6           0       17.804024    0.491542   -0.169625
     62          6           0       18.874265    1.201833    0.767190
     63          6           0       20.287038    1.374333    0.253822
     64          6           0       20.370227    2.209807   -0.955705
     65          6           0       21.057596    1.978032    1.452952
     66          1           0       -4.092809    3.625999    1.561457
     67          1           0      -10.111907    3.986909   -0.558132
     68          1           0      -10.482624   -2.631731   -1.253383
     69          1           0       -2.719382   -1.150960    1.767799
     70          1           0       -2.141408    1.728120    0.929395
     71          1           0       -1.828632    1.084644    3.267514
     72          1           0       -2.724083    2.643576    3.203427
     73          1           0       -3.494777    0.908686    3.831145
     74          1           0       -2.018109   -1.590849   -0.437497
     75          1           0       -2.035230    0.144970   -0.882261
     76          1           0       -0.127538    0.600681    0.835380
     77          1           0       -0.251503   -1.053628    1.417366
     78          1           0       -5.967271    7.059195    0.566599
     79          1           0       -5.266118    6.055415    2.151660
     80          1           0       -4.552770    5.924332    0.587890
     81          1           0       -9.498661    6.229494   -0.680328
     82          1           0       -9.078809    8.116996    0.432400
     83          1           0       -7.881385    7.227671    1.670726
     84          1           0      -11.981989    2.958984   -2.168430
     85          1           0      -13.400203    2.143481   -1.569922
     86          1           0      -12.373943    3.362380   -0.600486
     87          1           0      -12.624982   -1.556643   -0.838512
     88          1           0      -13.329184   -0.219532   -1.402517
     89          1           0      -13.303838   -1.932812   -2.949540
     90          1           0      -12.951982   -0.232381   -3.521496
     91          1           0      -11.527028   -1.726171   -3.283244
     92          1           0       -8.737175   -4.770245   -1.997969
     93          1           0       -8.002948   -5.799127   -0.601057
     94          1           0       -9.656031   -4.989381   -0.258986
     95          1           0       -3.282570   -3.642718    0.035606
     96          1           0       -1.850356   -4.754732    3.584935
     97          1           0       -3.312840   -5.447987    3.811943
     98          1           0       -2.012210   -6.416630    2.972442
     99          1           0        2.640308   -1.694011   -1.863900
    100          1           0        2.703166   -0.015604   -2.208766
    101          1           0        4.296752   -1.212611    0.161711
    102          1           0        4.126034    1.283894   -2.812788
    103          1           0        5.171378    2.410239   -1.947014
    104          1           0        5.987928    1.118162   -2.791720
    105          1           0        6.400227    1.433075    0.280092
    106          1           0        6.439805   -0.259209    0.638755
    107          1           0        7.255602   -1.257511   -1.166036
    108          1           0        7.960106    0.364980   -1.857291
    109          1           0        9.323350    0.795809    0.237837
    110          1           0        8.996657   -0.779122    0.709724
    111          1           0       10.420607    0.005185   -1.837568
    112          1           0        9.445595   -2.600617   -1.906947
    113          1           0       11.049698   -2.894014   -1.160381
    114          1           0        9.983261   -2.873892   -0.307182
    115          1           0       11.437799    0.692170    0.362418
    116          1           0       11.317247   -0.907281    0.883945
    117          1           0       12.943584   -1.822387   -0.730996
    118          1           0       12.916832    0.057893   -1.648894
    119          1           0       13.882118    0.868261    0.617252
    120          1           0       13.911419   -0.793472    1.153762
    121          1           0       15.446432    0.381159   -1.315349
    122          1           0       15.948852   -2.119661   -0.019793
    123          1           0       15.077779   -2.140144   -1.680690
    124          1           0       16.849677   -1.423041   -1.545547
    125          1           0       16.132998    1.430992    0.673044
    126          1           0       16.318360   -0.106741    1.344554
    127          1           0       18.126706   -0.659124   -0.271545
    128          1           0       17.686457    0.869461   -1.215654
    129          1           0       18.541173    2.077399    1.197812
    130          1           0       18.818229    0.656153    1.666380
    131          1           0       20.943865    0.452995    0.110658
    132          1           0       19.602729    3.241242   -0.836465
    133          1           0       21.458978    2.850647   -1.182963
    134          1           0       20.080865    1.565537   -1.898014
    135          1           0       20.835950    1.379691    2.447957
    136          1           0       22.123689    1.814416    1.398733
    137          1           0       20.739267    2.898566    1.612411
 ---------------------------------------------------------------------

 SCF Done:  E(RCAM-B3LYP) =  -2932.57540749     A.U. after   17 cycles

 Excitation energies and oscillator strengths:

 Excited State   1:      Singlet-A      2.1949 eV  564.88 nm  f=0.1900  <S**2>=0.000
     240 -> 242        0.11220
     240 -> 243       -0.27173
     241 -> 242        0.62530
     241 -> 243        0.11794
 This state for optimization and/or second-order correction.
 Total Energy, E(TD-HF/TD-DFT) =  -2932.49474658
 Copying the excited state density for this state as the 1-particle RhoCI density.

 The electronic state is 1-A.
 Alpha  occ. eigenvalues --  -46.85172 -19.25656 -19.25449 -19.20377 -19.20169
 Alpha  occ. eigenvalues --  -19.19391 -14.41889 -14.40305 -14.39027 -14.38950
 Alpha  occ. eigenvalues --  -10.39133 -10.38099 -10.34646 -10.32482 -10.32189
 Alpha  occ. eigenvalues --  -10.31852 -10.30200 -10.29893 -10.29843 -10.29784
 Alpha  occ. eigenvalues --  -10.29383 -10.29238 -10.29209 -10.29143 -10.28968
 Alpha  occ. eigenvalues --  -10.28923 -10.28645 -10.28461 -10.28362 -10.28279
 Alpha  occ. eigenvalues --  -10.28263 -10.28137 -10.27903 -10.27808 -10.27662
 Alpha  occ. eigenvalues --  -10.27584 -10.27503 -10.27316 -10.27205 -10.27037
 Alpha  occ. eigenvalues --  -10.27019 -10.26955 -10.26833 -10.26804 -10.26786
 Alpha  occ. eigenvalues --  -10.26705 -10.26449 -10.26437 -10.26284 -10.26257
 Alpha  occ. eigenvalues --  -10.26248 -10.26214 -10.26196 -10.25855 -10.25797
 Alpha  occ. eigenvalues --  -10.25667 -10.25363 -10.24578 -10.24572 -10.24454
 Alpha  occ. eigenvalues --  -10.24451 -10.24245 -10.24207 -10.24077 -10.23813
 Alpha  occ. eigenvalues --   -3.14024  -1.88743  -1.88235  -1.88213  -1.20435
 Alpha  occ. eigenvalues --   -1.16450  -1.13402  -1.09391  -1.06178  -1.05880
 Alpha  occ. eigenvalues --   -1.03797  -1.02996  -1.02186  -0.92923  -0.91912
 Alpha  occ. eigenvalues --   -0.90938  -0.90460  -0.89937  -0.89869  -0.89165
 Alpha  occ. eigenvalues --   -0.88588  -0.88109  -0.86844  -0.86156  -0.85906
 Alpha  occ. eigenvalues --   -0.84989  -0.84253  -0.83379  -0.83011  -0.82703
 Alpha  occ. eigenvalues --   -0.81983  -0.80739  -0.80319  -0.79855  -0.78272
 Alpha  occ. eigenvalues --   -0.77836  -0.76927  -0.76613  -0.75780  -0.75311
 Alpha  occ. eigenvalues --   -0.75173  -0.74721  -0.74492  -0.74022  -0.71813
 Alpha  occ. eigenvalues --   -0.71627  -0.70303  -0.69326  -0.68691  -0.67827
 Alpha  occ. eigenvalues --   -0.66596  -0.66246  -0.65567  -0.65015  -0.64826
 Alpha  occ. eigenvalues --   -0.64232  -0.63415  -0.63257  -0.63117  -0.62302
 Alpha  occ. eigenvalues --   -0.61437  -0.60469  -0.60139  -0.59231  -0.58705
 Alpha  occ. eigenvalues --   -0.58472  -0.57715  -0.57331  -0.57041  -0.56684
 Alpha  occ. eigenvalues --   -0.56498  -0.55954  -0.55269  -0.54993  -0.54690
 Alpha  occ. eigenvalues --   -0.54298  -0.54177  -0.53574  -0.53281  -0.53019
 Alpha  occ. eigenvalues --   -0.52706  -0.52618  -0.52276  -0.52148  -0.51843
 Alpha  occ. eigenvalues --   -0.51813  -0.51641  -0.50840  -0.50519  -0.50383
 Alpha  occ. eigenvalues --   -0.50174  -0.49972  -0.49830  -0.49763  -0.49502
 Alpha  occ. eigenvalues --   -0.48785  -0.48657  -0.48642  -0.48358  -0.48203
 Alpha  occ. eigenvalues --   -0.48047  -0.47897  -0.47478  -0.47317  -0.47026
 Alpha  occ. eigenvalues --   -0.46715  -0.46490  -0.46297  -0.46149  -0.45968
 Alpha  occ. eigenvalues --   -0.45639  -0.45587  -0.45572  -0.45400  -0.45236
 Alpha  occ. eigenvalues --   -0.44385  -0.44243  -0.44014  -0.43766  -0.43709
 Alpha  occ. eigenvalues --   -0.43479  -0.43181  -0.42951  -0.42792  -0.42750
 Alpha  occ. eigenvalues --   -0.42692  -0.42287  -0.42176  -0.42046  -0.41797
 Alpha  occ. eigenvalues --   -0.41675  -0.41580  -0.41437  -0.41329  -0.41126
 Alpha  occ. eigenvalues --   -0.40874  -0.40491  -0.40437  -0.40184  -0.40111
 Alpha  occ. eigenvalues --   -0.39828  -0.39655  -0.39400  -0.39235  -0.39142
 Alpha  occ. eigenvalues --   -0.38482  -0.38417  -0.38121  -0.38115  -0.37811
 Alpha  occ. eigenvalues --   -0.37490  -0.37209  -0.37009  -0.36928  -0.36615
 Alpha  occ. eigenvalues --   -0.36520  -0.36037  -0.35831  -0.35614  -0.35545
 Alpha  occ. eigenvalues --   -0.35343  -0.35080  -0.34276  -0.33642  -0.33124
 Alpha  occ. eigenvalues --   -0.32877  -0.32854  -0.32303  -0.30753  -0.30716
 Alpha  occ. eigenvalues --   -0.29848  -0.28937  -0.28412  -0.27653  -0.23464
 Alpha  occ. eigenvalues --   -0.20849
 Alpha virt. eigenvalues --   -0.05244  -0.03307   0.01392   0.03770   0.05883
 Alpha virt. eigenvalues --    0.06032   0.06193   0.06415   0.07152   0.07570
 Alpha virt. eigenvalues --    0.08548   0.09561   0.10402   0.11057   0.11074

 Mulliken charges:
               1
     1  Mg   0.829133
     2  C    0.129771
     3  C   -0.206583
     4  C   -0.216736
     5  C   -0.171041
     6  N   -0.652789
     7  C    0.299103
     8  C   -0.155086
     9  C   -0.178211
    10  C    0.390626
    11  C   -0.307274
    12  C   -0.149309
    13  C   -0.281607
    14  C    0.576383
    15  O   -0.469224
    16  O   -0.436611
    17  N   -0.701404
    18  C    0.258437
    19  C    0.035542
    20  C    0.020642
    21  C    0.359245
    22  C   -0.377032
    23  C   -0.114359
    24  C   -0.229433
    25  N   -0.692769
    26  C    0.343688
    27  C    0.044606
    28  C    0.044580
    29  C    0.244198
    30  C   -0.402352
    31  C   -0.251761
    32  C   -0.300795
    33  N   -0.704795
    34  C    0.253668
    35  C    0.015882
    36  C   -0.007760
    37  C    0.266827
    38  C   -0.364280
    39  C    0.370178
    40  O   -0.422883
    41  C   -0.372887
    42  C    0.612915
    43  O   -0.505818
    44  O   -0.457811
    45  C   -0.073215
    46  C   -0.002089
    47  C   -0.129723
    48  C    0.118646
    49  C   -0.377502
    50  C   -0.218722
    51  C   -0.176810
    52  C   -0.149168
    53  C   -0.062693
    54  C   -0.316163
    55  C   -0.177723
    56  C   -0.165321
    57  C   -0.175303
    58  C   -0.027179
    59  C   -0.310349
    60  C   -0.183074
    61  C   -0.195578
    62  C   -0.166386
    63  C   -0.044854
    64  C   -0.265705
    65  C   -0.312762
    66  H    0.081754
    67  H    0.072639
    68  H    0.079092
    69  H    0.126992
    70  H    0.101909
    71  H    0.113830
    72  H    0.086297
    73  H    0.124219
    74  H    0.133703
    75  H    0.122532
    76  H    0.105875
    77  H    0.118903
    78  H    0.112518
    79  H    0.139380
    80  H    0.137888
    81  H    0.088656
    82  H    0.112403
    83  H    0.115956
    84  H    0.130036
    85  H    0.108342
    86  H    0.108782
    87  H    0.111971
    88  H    0.108800
    89  H    0.096201
    90  H    0.084325
    91  H    0.117723
    92  H    0.136561
    93  H    0.130674
    94  H    0.127260
    95  H    0.176775
    96  H    0.132012
    97  H    0.122161
    98  H    0.110276
    99  H    0.143680
   100  H    0.112973
   101  H    0.082359
   102  H    0.107344
   103  H    0.126947
   104  H    0.116589
   105  H    0.109779
   106  H    0.103769
   107  H    0.105646
   108  H    0.074626
   109  H    0.102910
   110  H    0.104498
   111  H    0.086008
   112  H    0.081475
   113  H    0.080189
   114  H    0.104889
   115  H    0.089507
   116  H    0.100917
   117  H    0.081967
   118  H    0.084096
   119  H    0.067012
   120  H    0.086623
   121  H    0.090729
   122  H    0.078695
   123  H    0.101947
   124  H    0.093120
   125  H    0.092668
   126  H    0.083771
   127  H    0.079764
   128  H    0.087284
   129  H    0.096040
   130  H    0.100211
   131  H    0.086654
   132  H    0.059248
   133  H    0.072367
   134  H    0.102496
   135  H    0.075218
   136  H    0.102423
   137  H    0.113974
 Sum of Mulliken charges =  -0.00000

 Dipole moment (field-independent basis, Debye):
    X=              3.3890    Y=              5.9418    Z=              1.0688  Tot=              6.9234
 Quadrupole moment (field-independent basis, Debye-Ang):
   XX=           -353.8548   YY=           -389.3596   ZZ=           -401.6354
   XY=            -24.8692   XZ=             16.0289   YZ=             -1.3568

 Normal termination of Gaussian 16 at Sun Jun 30 12:32:32 2019.
