 Gaussian 16, Revision A.03,
 Gaussian 16:  ES64L-G16RevA.03 25-Dec-2016

 ----------------------------------------------------------------------
 # td=(NStates=1) iop(3/107=0140000000,3/108=0140000000) CAM-B3LYP/6-31
 G(d,p)
 ----------------------------------------------------------------------

 --
 TD
 --
 Symbolic Z-matrix:
 Charge =  0 Multiplicity = 1

                         Standard orientation:
 ---------------------------------------------------------------------
 Center     Atomic      Atomic             Coordinates (Angstroms)
 Number     Number       Type             X           Y           Z
 ---------------------------------------------------------------------
      1         12           0       -7.180181    0.591338    0.238675
      2          6           0       -4.824676   -2.025582    0.525243
      3          6           0       -4.804354    2.812339    1.274983
      4          6           0       -9.483193    3.147749   -0.360514
      5          6           0       -9.488164   -1.630488   -0.890201
      6          7           0       -5.109883    0.369703    0.810234
      7          6           0       -4.285696   -0.746294    0.941307
      8          6           0       -2.932573   -0.449177    1.279069
      9          6           0       -2.997888    1.020343    1.738485
     10          6           0       -4.358451    1.502092    1.241493
     11          6           0       -2.850797    1.187773    3.290919
     12          6           0       -1.975472   -0.675737    0.039843
     13          6           0       -0.512402   -0.422158    0.458914
     14          6           0        0.461642   -0.724691   -0.692224
     15          8           0        0.123202   -1.139310   -1.734816
     16          8           0        1.717371   -0.512184   -0.239104
     17          7           0       -7.097820    2.583517    0.275123
     18          6           0       -6.065238    3.350539    0.677309
     19          6           0       -6.367633    4.801069    0.725506
     20          6           0       -7.633535    4.883153    0.410412
     21          6           0       -8.065447    3.513464    0.092422
     22          6           0       -5.473111    5.916329    1.303815
     23          6           0       -8.567329    6.093754    0.169993
     24          6           0       -8.277295    7.310212    0.617721
     25          7           0       -9.128612    0.785775   -0.478700
     26          6           0       -9.893646    1.882433   -0.673945
     27          6           0      -11.179708    1.521512   -1.136064
     28          6           0      -11.206292    0.168533   -1.338809
     29          6           0       -9.950384   -0.313544   -0.869794
     30          6           0      -12.285570    2.542281   -1.547889
     31          6           0      -12.247798   -0.669219   -1.845099
     32          6           0      -12.169590   -0.968988   -3.366602
     33          7           0       -7.233769   -1.420860   -0.080856
     34          6           0       -8.257137   -2.157001   -0.608788
     35          6           0       -7.828409   -3.634964   -0.548300
     36          6           0       -6.490487   -3.543353   -0.197907
     37          6           0       -6.176585   -2.204965    0.080505
     38          6           0       -8.630098   -4.779924   -0.857164
     39          6           0       -5.401254   -4.365728    0.127493
     40          8           0       -5.148131   -5.541933    0.014942
     41          6           0       -4.176927   -3.303459    0.511304
     42          6           0       -3.617836   -3.699294    1.952056
     43          8           0       -3.800732   -3.073923    2.962975
     44          8           0       -2.878232   -4.846694    1.823376
     45          6           0       -2.241525   -5.276643    3.155548
     46          6           0        2.718545   -0.772436   -1.223131
     47          6           0        4.040975   -0.665100   -0.638231
     48          6           0        5.049238    0.168439   -0.924110
     49          6           0        4.893129    1.166380   -2.056545
     50          6           0        6.399989    0.249455   -0.159732
     51          6           0        7.685647   -0.446843   -0.895125
     52          6           0        8.877808   -0.228320   -0.058007
     53          6           0       10.242859   -0.485390   -0.799111
     54          6           0       10.195258   -2.025663   -1.338086
     55          6           0       11.475020   -0.462564    0.077525
     56          6           0       12.806758   -0.502380   -0.632096
     57          6           0       14.054806   -0.006918    0.219953
     58          6           0       15.392910   -0.095167   -0.501721
     59          6           0       15.647033   -1.490930   -0.945051
     60          6           0       16.456452    0.476143    0.334653
     61          6           0       17.756523    0.624756   -0.190161
     62          6           0       18.792938    1.282081    0.754524
     63          6           0       20.160085    1.471497    0.118373
     64          6           0       20.315025    2.202107   -1.197690
     65          6           0       21.118567    2.050457    1.224761
     66          1           0       -3.995763    3.548248    1.694941
     67          1           0      -10.090316    4.220973   -0.511381
     68          1           0      -10.232600   -2.381574   -1.222205
     69          1           0       -2.564558   -1.081559    2.158027
     70          1           0       -2.306991    1.854283    1.162555
     71          1           0       -1.715381    0.879559    3.519557
     72          1           0       -3.155903    2.223664    3.458649
     73          1           0       -3.512225    0.480063    3.688545
     74          1           0       -1.934927   -1.654187   -0.374331
     75          1           0       -2.261200   -0.220576   -0.857158
     76          1           0       -0.431985    0.875820    0.668756
     77          1           0       -0.208178   -0.847799    1.537722
     78          1           0       -5.754388    6.834191    0.843979
     79          1           0       -5.435795    6.053998    2.330410
     80          1           0       -4.504465    5.564069    1.035959
     81          1           0       -9.165194    6.010971   -0.758692
     82          1           0       -8.792648    8.123522    0.235228
     83          1           0       -7.378598    7.527888    1.420296
     84          1           0      -11.838671    3.277406   -2.060277
     85          1           0      -13.198552    1.967760   -2.050496
     86          1           0      -12.579250    3.033254   -0.587604
     87          1           0      -12.132116   -1.605210   -1.202239
     88          1           0      -13.215512   -0.210300   -1.643675
     89          1           0      -12.966500   -1.818597   -3.561252
     90          1           0      -12.290139   -0.194987   -4.124537
     91          1           0      -11.209339   -1.726635   -3.517975
     92          1           0       -8.866543   -4.787910   -1.851936
     93          1           0       -8.027174   -5.510849   -0.757151
     94          1           0       -9.603671   -4.723262   -0.380385
     95          1           0       -3.392822   -3.620561   -0.178751
     96          1           0       -1.678681   -4.344252    3.438971
     97          1           0       -3.034122   -5.423222    3.992475
     98          1           0       -1.778336   -6.303223    2.862525
     99          1           0        2.622092   -1.815205   -1.752162
    100          1           0        2.630463   -0.086316   -2.059402
    101          1           0        4.209361   -1.289935    0.328759
    102          1           0        4.110061    1.342586   -2.547590
    103          1           0        5.217526    2.096406   -1.942487
    104          1           0        5.510313    0.747200   -2.985510
    105          1           0        6.533199    1.457174   -0.117287
    106          1           0        6.336532   -0.190441    0.945456
    107          1           0        7.360134   -1.389300   -1.162016
    108          1           0        7.793026    0.229919   -1.847681
    109          1           0        8.856807    0.694302    0.378125
    110          1           0        8.616256   -0.834434    0.883259
    111          1           0       10.284599    0.203709   -1.625803
    112          1           0        9.383370   -2.289361   -1.965930
    113          1           0       11.001580   -2.433649   -2.053846
    114          1           0       10.150635   -2.710101   -0.492362
    115          1           0       11.280253    0.397451    0.855988
    116          1           0       11.591471   -1.373304    0.834595
    117          1           0       13.252524   -1.474377   -1.280425
    118          1           0       12.673940    0.187056   -1.506060
    119          1           0       13.775466    1.152361    0.498450
    120          1           0       14.220047   -0.611689    1.203638
    121          1           0       15.286942    0.567985   -1.377354
    122          1           0       15.919213   -2.212116   -0.043938
    123          1           0       15.054415   -2.231947   -1.509527
    124          1           0       16.770638   -1.511174   -1.488700
    125          1           0       16.128829    1.537350    0.363497
    126          1           0       16.531806   -0.156259    1.285332
    127          1           0       18.280544   -0.483382   -0.555031
    128          1           0       17.949951    1.112382   -1.145345
    129          1           0       18.594417    2.398253    1.038251
    130          1           0       18.980898    0.549336    1.713750
    131          1           0       20.600652    0.265365   -0.074957
    132          1           0       19.910081    3.285454   -0.873575
    133          1           0       21.370612    2.517048   -1.445938
    134          1           0       19.702860    1.869339   -1.896293
    135          1           0       20.828689    1.535591    2.137962
    136          1           0       22.260097    2.015673    0.989030
    137          1           0       20.768924    3.067631    1.608683
 ---------------------------------------------------------------------

 SCF Done:  E(RCAM-B3LYP) =  -2933.43583626     A.U. after   16 cycles

 Excitation energies and oscillator strengths:

 Excited State   1:      Singlet-A      1.9688 eV  629.74 nm  f=0.2215  <S**2>=0.000
     240 -> 243       -0.24505
     241 -> 242        0.65961
 This state for optimization and/or second-order correction.
 Total Energy, E(TD-HF/TD-DFT) =  -2933.36348388
 Copying the excited state density for this state as the 1-particle RhoCI density.

 The electronic state is 1-A.
 Alpha  occ. eigenvalues --  -46.80059 -19.22385 -19.21318 -19.17640 -19.16640
 Alpha  occ. eigenvalues --  -19.15852 -14.37375 -14.36098 -14.34971 -14.34365
 Alpha  occ. eigenvalues --  -10.34605 -10.33804 -10.29654 -10.28622 -10.27445
 Alpha  occ. eigenvalues --  -10.26211 -10.25954 -10.25699 -10.25397 -10.25225
 Alpha  occ. eigenvalues --  -10.24827 -10.24456 -10.24325 -10.24220 -10.24192
 Alpha  occ. eigenvalues --  -10.24116 -10.24062 -10.23625 -10.23444 -10.23437
 Alpha  occ. eigenvalues --  -10.23420 -10.23326 -10.23063 -10.23005 -10.22923
 Alpha  occ. eigenvalues --  -10.22842 -10.22638 -10.22586 -10.22544 -10.22487
 Alpha  occ. eigenvalues --  -10.22442 -10.22382 -10.22169 -10.22131 -10.22129
 Alpha  occ. eigenvalues --  -10.22053 -10.22027 -10.21935 -10.21863 -10.21839
 Alpha  occ. eigenvalues --  -10.21808 -10.21697 -10.21578 -10.21505 -10.21130
 Alpha  occ. eigenvalues --  -10.21107 -10.20958 -10.20851 -10.20727 -10.20672
 Alpha  occ. eigenvalues --  -10.20457 -10.20439 -10.20184 -10.19722 -10.19494
 Alpha  occ. eigenvalues --   -3.08605  -1.83546  -1.83076  -1.83011  -1.14445
 Alpha  occ. eigenvalues --   -1.10961  -1.06927  -1.06053  -1.03278  -0.99556
 Alpha  occ. eigenvalues --   -0.99233  -0.97097  -0.96736  -0.87133  -0.87103
 Alpha  occ. eigenvalues --   -0.85569  -0.84444  -0.84375  -0.84194  -0.83920
 Alpha  occ. eigenvalues --   -0.83854  -0.83482  -0.81997  -0.81601  -0.80687
 Alpha  occ. eigenvalues --   -0.79787  -0.79147  -0.78227  -0.77957  -0.77443
 Alpha  occ. eigenvalues --   -0.76730  -0.76421  -0.74602  -0.74523  -0.73962
 Alpha  occ. eigenvalues --   -0.73484  -0.72233  -0.71924  -0.71679  -0.70352
 Alpha  occ. eigenvalues --   -0.70141  -0.70055  -0.69532  -0.68703  -0.67629
 Alpha  occ. eigenvalues --   -0.66372  -0.66080  -0.65057  -0.64349  -0.64028
 Alpha  occ. eigenvalues --   -0.62096  -0.62056  -0.60363  -0.60159  -0.60078
 Alpha  occ. eigenvalues --   -0.59298  -0.58823  -0.58783  -0.58160  -0.56651
 Alpha  occ. eigenvalues --   -0.56386  -0.55895  -0.55881  -0.55448  -0.54976
 Alpha  occ. eigenvalues --   -0.54298  -0.54274  -0.53116  -0.52431  -0.52114
 Alpha  occ. eigenvalues --   -0.51987  -0.51970  -0.51108  -0.50821  -0.50731
 Alpha  occ. eigenvalues --   -0.50053  -0.49837  -0.49625  -0.49225  -0.49106
 Alpha  occ. eigenvalues --   -0.48651  -0.48565  -0.48363  -0.48004  -0.47938
 Alpha  occ. eigenvalues --   -0.47507  -0.47415  -0.47062  -0.46944  -0.46679
 Alpha  occ. eigenvalues --   -0.46531  -0.46438  -0.46238  -0.45934  -0.45889
 Alpha  occ. eigenvalues --   -0.45564  -0.45420  -0.45304  -0.44969  -0.44754
 Alpha  occ. eigenvalues --   -0.44594  -0.44371  -0.44184  -0.43786  -0.43613
 Alpha  occ. eigenvalues --   -0.43460  -0.43315  -0.43055  -0.42916  -0.42821
 Alpha  occ. eigenvalues --   -0.42511  -0.42170  -0.41963  -0.41733  -0.41441
 Alpha  occ. eigenvalues --   -0.41119  -0.40959  -0.40673  -0.40587  -0.40518
 Alpha  occ. eigenvalues --   -0.40445  -0.40177  -0.39971  -0.39899  -0.39549
 Alpha  occ. eigenvalues --   -0.39120  -0.39087  -0.38979  -0.38936  -0.38606
 Alpha  occ. eigenvalues --   -0.38472  -0.38388  -0.38278  -0.38044  -0.37818
 Alpha  occ. eigenvalues --   -0.37719  -0.37558  -0.37195  -0.36881  -0.36811
 Alpha  occ. eigenvalues --   -0.36595  -0.36499  -0.36437  -0.36400  -0.36135
 Alpha  occ. eigenvalues --   -0.35853  -0.35502  -0.35174  -0.34900  -0.34458
 Alpha  occ. eigenvalues --   -0.34363  -0.34301  -0.34077  -0.33579  -0.33366
 Alpha  occ. eigenvalues --   -0.33359  -0.33064  -0.32902  -0.32705  -0.32449
 Alpha  occ. eigenvalues --   -0.32319  -0.31628  -0.31234  -0.30873  -0.30597
 Alpha  occ. eigenvalues --   -0.30204  -0.30004  -0.28810  -0.27783  -0.27002
 Alpha  occ. eigenvalues --   -0.26729  -0.26720  -0.25939  -0.25055  -0.20897
 Alpha  occ. eigenvalues --   -0.19353
 Alpha virt. eigenvalues --   -0.06706  -0.03429   0.00175   0.02477   0.03817
 Alpha virt. eigenvalues --    0.04074   0.04176   0.04780   0.05440   0.05517
 Alpha virt. eigenvalues --    0.06887   0.08409   0.08762   0.08890   0.09847

 Mulliken charges:
               1
     1  Mg   0.824667
     2  C    0.106406
     3  C   -0.208740
     4  C   -0.193053
     5  C   -0.200740
     6  N   -0.627890
     7  C    0.336192
     8  C   -0.163642
     9  C   -0.151473
    10  C    0.328435
    11  C   -0.290251
    12  C   -0.168617
    13  C   -0.257179
    14  C    0.628144
    15  O   -0.441890
    16  O   -0.456625
    17  N   -0.658062
    18  C    0.267023
    19  C   -0.003130
    20  C    0.037098
    21  C    0.229019
    22  C   -0.364529
    23  C   -0.071143
    24  C   -0.236022
    25  N   -0.704800
    26  C    0.355476
    27  C   -0.008019
    28  C    0.091287
    29  C    0.289432
    30  C   -0.358839
    31  C   -0.265586
    32  C   -0.297789
    33  N   -0.742602
    34  C    0.273236
    35  C    0.016746
    36  C    0.047204
    37  C    0.320440
    38  C   -0.361514
    39  C    0.321019
    40  O   -0.452178
    41  C   -0.372373
    42  C    0.610474
    43  O   -0.470453
    44  O   -0.463680
    45  C   -0.097849
    46  C    0.010848
    47  C   -0.137892
    48  C    0.135228
    49  C   -0.358993
    50  C   -0.239375
    51  C   -0.158421
    52  C   -0.164795
    53  C   -0.056059
    54  C   -0.327360
    55  C   -0.154663
    56  C   -0.170149
    57  C   -0.146442
    58  C   -0.050709
    59  C   -0.312605
    60  C   -0.127202
    61  C   -0.171077
    62  C   -0.147901
    63  C   -0.026280
    64  C   -0.290082
    65  C   -0.313017
    66  H    0.073161
    67  H    0.076768
    68  H    0.069325
    69  H    0.120733
    70  H    0.084405
    71  H    0.094341
    72  H    0.111889
    73  H    0.139226
    74  H    0.126836
    75  H    0.129732
    76  H    0.083031
    77  H    0.120262
    78  H    0.118519
    79  H    0.133684
    80  H    0.112907
    81  H    0.107177
    82  H    0.103835
    83  H    0.092382
    84  H    0.134464
    85  H    0.097524
    86  H    0.119578
    87  H    0.101466
    88  H    0.104900
    89  H    0.088920
    90  H    0.125768
    91  H    0.085295
    92  H    0.141151
    93  H    0.142827
    94  H    0.128516
    95  H    0.152444
    96  H    0.137813
    97  H    0.134460
    98  H    0.136467
    99  H    0.115880
   100  H    0.114542
   101  H    0.071899
   102  H    0.118526
   103  H    0.118853
   104  H    0.090739
   105  H    0.081288
   106  H    0.086718
   107  H    0.120644
   108  H    0.078992
   109  H    0.104645
   110  H    0.079718
   111  H    0.094265
   112  H    0.100497
   113  H    0.087876
   114  H    0.109150
   115  H    0.075023
   116  H    0.081617
   117  H    0.076747
   118  H    0.083718
   119  H    0.062317
   120  H    0.074865
   121  H    0.086841
   122  H    0.079736
   123  H    0.120516
   124  H    0.071590
   125  H    0.097645
   126  H    0.086952
   127  H    0.046803
   128  H    0.094223
   129  H    0.077725
   130  H    0.080452
   131  H    0.028364
   132  H    0.066317
   133  H    0.112828
   134  H    0.117628
   135  H    0.103199
   136  H    0.097365
   137  H    0.086812
 Sum of Mulliken charges =  -0.00000

 Dipole moment (field-independent basis, Debye):
    X=              1.2133    Y=              4.0189    Z=              0.0097  Tot=              4.1980
 Quadrupole moment (field-independent basis, Debye-Ang):
   XX=           -361.5343   YY=           -388.3845   ZZ=           -395.0952
   XY=             -9.2905   XZ=              7.8896   YZ=             -5.8552

 Normal termination of Gaussian 16 at Fri Sep  6 06:57:34 2019.
