 Gaussian 16, Revision A.03,
 Gaussian 16:  ES64L-G16RevA.03 25-Dec-2016

 -------------------------------------
 # td=(NStates=1) CAM-B3LYP/6-31G(d,p)
 -------------------------------------

 --
 TD
 --
 Symbolic Z-matrix:
 Charge =  0 Multiplicity = 1

                         Standard orientation:
 ---------------------------------------------------------------------
 Center     Atomic      Atomic             Coordinates (Angstroms)
 Number     Number       Type             X           Y           Z
 ---------------------------------------------------------------------
      1         12           0       -7.093556    0.563172    0.019382
      2          6           0       -4.763658   -1.916250    0.542177
      3          6           0       -4.756613    2.780958    1.291760
      4          6           0       -9.339487    3.116018   -0.334542
      5          6           0       -9.428918   -1.763708   -0.873037
      6          7           0       -5.045957    0.464621    0.774357
      7          6           0       -4.280586   -0.713497    0.776833
      8          6           0       -2.855600   -0.411669    1.226822
      9          6           0       -2.921561    1.096439    1.647313
     10          6           0       -4.316964    1.426552    1.119959
     11          6           0       -2.881138    1.232374    3.069052
     12          6           0       -1.905185   -0.655946    0.026173
     13          6           0       -0.437928   -0.413337    0.441569
     14          6           0        0.510844   -0.724187   -0.694976
     15          8           0        0.221975   -1.007264   -1.772096
     16          8           0        1.797803   -0.678519   -0.269834
     17          7           0       -7.106556    2.596980    0.417074
     18          6           0       -6.074606    3.336773    0.818429
     19          6           0       -6.383248    4.725568    0.786308
     20          6           0       -7.731913    4.823396    0.411175
     21          6           0       -8.127762    3.422805    0.103697
     22          6           0       -5.393672    5.853237    1.185647
     23          6           0       -8.491351    6.034096    0.109021
     24          6           0       -8.462200    7.149494    0.756937
     25          7           0       -9.065539    0.652732   -0.693184
     26          6           0       -9.879854    1.826394   -0.561445
     27          6           0      -11.139893    1.456093   -0.948703
     28          6           0      -11.197988    0.113617   -1.197664
     29          6           0       -9.842238   -0.395828   -0.981620
     30          6           0      -12.241908    2.415117   -1.367046
     31          6           0      -12.394929   -0.644386   -1.815841
     32          6           0      -12.386059   -1.051773   -3.245156
     33          7           0       -7.208120   -1.428384   -0.193136
     34          6           0       -8.166626   -2.229534   -0.590364
     35          6           0       -7.769114   -3.618369   -0.523080
     36          6           0       -6.499001   -3.496824   -0.010773
     37          6           0       -6.185043   -2.127502    0.112863
     38          6           0       -8.609891   -4.843473   -0.781390
     39          6           0       -5.347181   -4.267999    0.205838
     40          8           0       -5.181955   -5.513856    0.273234
     41          6           0       -4.135039   -3.320814    0.626678
     42          6           0       -3.583310   -3.602015    2.009150
     43          8           0       -3.896388   -3.021377    3.068414
     44          8           0       -2.742367   -4.613852    1.914274
     45          6           0       -2.189491   -5.230093    3.057691
     46          6           0        2.778341   -0.811883   -1.277446
     47          6           0        4.103644   -0.452896   -0.673892
     48          6           0        5.111828    0.464109   -1.136428
     49          6           0        5.055725    1.073649   -2.456452
     50          6           0        6.350251    0.552735   -0.272511
     51          6           0        7.641563   -0.084072   -1.003883
     52          6           0        9.016118   -0.106075   -0.153437
     53          6           0       10.146319   -0.478057   -0.967474
     54          6           0       10.047575   -1.918191   -1.434111
     55          6           0       11.446544   -0.355509   -0.098396
     56          6           0       12.759746   -0.424662   -0.785813
     57          6           0       13.857985   -0.066799    0.138105
     58          6           0       15.236962   -0.087922   -0.517204
     59          6           0       15.731320   -1.468067   -1.040853
     60          6           0       16.298963    0.446544    0.430765
     61          6           0       17.719734    0.524517   -0.121547
     62          6           0       18.659386    1.051349    0.878101
     63          6           0       20.148084    1.300527    0.418244
     64          6           0       20.269916    2.119468   -0.919347
     65          6           0       21.020060    1.900183    1.508774
     66          1           0       -4.009509    3.440864    1.608891
     67          1           0      -10.177208    3.948602   -0.195741
     68          1           0      -10.176079   -2.450348   -1.203333
     69          1           0       -2.669566   -1.133081    2.209383
     70          1           0       -2.129850    1.884229    1.137778
     71          1           0       -1.698943    1.171458    3.492837
     72          1           0       -3.224731    2.155688    3.434453
     73          1           0       -3.479463    0.316398    3.615653
     74          1           0       -1.943257   -1.533804   -0.492825
     75          1           0       -2.036951   -0.112086   -0.854270
     76          1           0       -0.206341    0.787814    0.742034
     77          1           0       -0.378850   -1.119113    1.388469
     78          1           0       -5.545131    6.618639    0.517203
     79          1           0       -5.401764    6.161208    2.190257
     80          1           0       -4.386921    5.510398    1.066500
     81          1           0       -9.295886    6.135308   -0.487311
     82          1           0       -8.945384    7.874883    0.390684
     83          1           0       -7.631533    7.108060    1.632060
     84          1           0      -11.954438    3.101768   -2.097089
     85          1           0      -13.119251    1.814267   -1.606224
     86          1           0      -12.337236    3.029901   -0.443937
     87          1           0      -12.572538   -1.500318   -1.138459
     88          1           0      -13.317505   -0.119978   -1.664789
     89          1           0      -13.096784   -1.965054   -3.536672
     90          1           0      -12.469985   -0.117644   -3.826576
     91          1           0      -11.487715   -1.481548   -3.423989
     92          1           0       -8.937137   -4.828549   -1.840420
     93          1           0       -8.073195   -5.857553   -0.423314
     94          1           0       -9.505305   -4.848888   -0.244163
     95          1           0       -3.298379   -3.264227   -0.144973
     96          1           0       -1.574093   -4.468574    3.696962
     97          1           0       -2.913379   -5.476400    3.774348
     98          1           0       -1.648010   -5.987757    2.820698
     99          1           0        2.841708   -1.908651   -1.442131
    100          1           0        2.575902   -0.140803   -2.272323
    101          1           0        4.206167   -0.914227    0.306039
    102          1           0        4.088417    1.363606   -2.786857
    103          1           0        5.603517    2.013569   -2.556135
    104          1           0        5.335614    0.555298   -3.386461
    105          1           0        6.802585    1.572820    0.218051
    106          1           0        6.075257   -0.203871    0.617208
    107          1           0        7.509403   -1.057611   -1.458404
    108          1           0        7.726055    0.467167   -1.881064
    109          1           0        9.130271    0.820276    0.380693
    110          1           0        8.821734   -0.770966    0.733650
    111          1           0       10.307279    0.239051   -1.762078
    112          1           0        9.178474   -2.122996   -2.104932
    113          1           0       10.897379   -2.159046   -2.106733
    114          1           0        9.714163   -2.604577   -0.633484
    115          1           0       11.485619    0.582468    0.316396
    116          1           0       11.391071   -1.152988    0.640034
    117          1           0       12.968070   -1.455582   -0.982742
    118          1           0       12.845414    0.295386   -1.626502
    119          1           0       13.405455    0.956064    0.465149
    120          1           0       13.758467   -0.982660    0.898924
    121          1           0       15.045921    0.611826   -1.189467
    122          1           0       15.880457   -2.131395   -0.231138
    123          1           0       14.927241   -1.922780   -1.656400
    124          1           0       16.467029   -1.427280   -1.809816
    125          1           0       16.095438    1.575595    0.807972
    126          1           0       16.366479   -0.216760    1.194988
    127          1           0       17.957339   -0.672203   -0.045891
    128          1           0       17.639223    0.871276   -1.204247
    129          1           0       18.220287    2.034843    1.239007
    130          1           0       18.680987    0.485132    1.852977
    131          1           0       20.598804    0.214002    0.252427
    132          1           0       19.899588    2.986507   -0.874570
    133          1           0       21.336048    2.039487   -1.376468
    134          1           0       19.648501    1.725813   -1.766172
    135          1           0       21.157426    1.181048    2.393663
    136          1           0       22.025514    2.063731    1.199746
    137          1           0       20.795624    2.950058    1.974782
 ---------------------------------------------------------------------

 SCF Done:  E(RCAM-B3LYP) =  -2932.65547085     A.U. after   17 cycles

 Excitation energies and oscillator strengths:

 Excited State   1:      Singlet-A      2.1038 eV  589.33 nm  f=0.2232  <S**2>=0.000
     240 -> 242       -0.10519
     240 -> 243        0.21253
     241 -> 242        0.65377
 This state for optimization and/or second-order correction.
 Total Energy, E(TD-HF/TD-DFT) =  -2932.57815638
 Copying the excited state density for this state as the 1-particle RhoCI density.

 The electronic state is 1-A.
 Alpha  occ. eigenvalues --  -46.85495 -19.27223 -19.25446 -19.21636 -19.20866
 Alpha  occ. eigenvalues --  -19.19613 -14.41316 -14.40041 -14.39308 -14.38780
 Alpha  occ. eigenvalues --  -10.39918 -10.38847 -10.34855 -10.32595 -10.30535
 Alpha  occ. eigenvalues --  -10.30478 -10.30332 -10.29806 -10.29406 -10.29339
 Alpha  occ. eigenvalues --  -10.29103 -10.28891 -10.28837 -10.28698 -10.28691
 Alpha  occ. eigenvalues --  -10.28617 -10.28472 -10.28389 -10.28354 -10.28245
 Alpha  occ. eigenvalues --  -10.28239 -10.27617 -10.27384 -10.27293 -10.27157
 Alpha  occ. eigenvalues --  -10.27046 -10.26962 -10.26920 -10.26625 -10.25790
 Alpha  occ. eigenvalues --  -10.25729 -10.25632 -10.25578 -10.25526 -10.25481
 Alpha  occ. eigenvalues --  -10.25418 -10.25303 -10.25124 -10.25004 -10.24997
 Alpha  occ. eigenvalues --  -10.24981 -10.24966 -10.24958 -10.24945 -10.24899
 Alpha  occ. eigenvalues --  -10.24882 -10.24748 -10.24737 -10.24705 -10.24668
 Alpha  occ. eigenvalues --  -10.24368 -10.24158 -10.23805 -10.23464 -10.23362
 Alpha  occ. eigenvalues --   -3.14371  -1.89094  -1.88616  -1.88522  -1.20318
 Alpha  occ. eigenvalues --   -1.19154  -1.11679  -1.08823  -1.08241  -1.07737
 Alpha  occ. eigenvalues --   -1.05911  -1.04575  -1.02231  -0.92774  -0.92031
 Alpha  occ. eigenvalues --   -0.90451  -0.90329  -0.90057  -0.89461  -0.89027
 Alpha  occ. eigenvalues --   -0.88430  -0.88088  -0.88064  -0.87436  -0.86294
 Alpha  occ. eigenvalues --   -0.85520  -0.84974  -0.84853  -0.83907  -0.83078
 Alpha  occ. eigenvalues --   -0.82250  -0.81824  -0.80702  -0.80359  -0.78634
 Alpha  occ. eigenvalues --   -0.77776  -0.77415  -0.76788  -0.76175  -0.76074
 Alpha  occ. eigenvalues --   -0.75704  -0.75616  -0.74659  -0.73670  -0.72823
 Alpha  occ. eigenvalues --   -0.71144  -0.70742  -0.69713  -0.69051  -0.68507
 Alpha  occ. eigenvalues --   -0.67613  -0.66161  -0.65805  -0.64710  -0.64477
 Alpha  occ. eigenvalues --   -0.64174  -0.63214  -0.63079  -0.62635  -0.62186
 Alpha  occ. eigenvalues --   -0.61718  -0.60981  -0.60792  -0.60337  -0.60076
 Alpha  occ. eigenvalues --   -0.59305  -0.58824  -0.58009  -0.57443  -0.57310
 Alpha  occ. eigenvalues --   -0.57118  -0.56453  -0.55980  -0.55489  -0.55333
 Alpha  occ. eigenvalues --   -0.54740  -0.54590  -0.54302  -0.54221  -0.53421
 Alpha  occ. eigenvalues --   -0.53224  -0.52647  -0.52378  -0.52337  -0.52210
 Alpha  occ. eigenvalues --   -0.51923  -0.51454  -0.50966  -0.50841  -0.50648
 Alpha  occ. eigenvalues --   -0.50446  -0.50113  -0.50087  -0.49747  -0.49620
 Alpha  occ. eigenvalues --   -0.49464  -0.49009  -0.48873  -0.48743  -0.48369
 Alpha  occ. eigenvalues --   -0.48255  -0.48065  -0.47875  -0.47451  -0.47355
 Alpha  occ. eigenvalues --   -0.47293  -0.46948  -0.46540  -0.46431  -0.46232
 Alpha  occ. eigenvalues --   -0.46032  -0.45597  -0.45360  -0.45252  -0.45104
 Alpha  occ. eigenvalues --   -0.44956  -0.44778  -0.44718  -0.44528  -0.44320
 Alpha  occ. eigenvalues --   -0.44086  -0.43628  -0.43494  -0.43470  -0.43290
 Alpha  occ. eigenvalues --   -0.43117  -0.42564  -0.42556  -0.42267  -0.42127
 Alpha  occ. eigenvalues --   -0.42008  -0.41741  -0.41535  -0.41448  -0.41247
 Alpha  occ. eigenvalues --   -0.41179  -0.40743  -0.40648  -0.40413  -0.40339
 Alpha  occ. eigenvalues --   -0.40220  -0.40011  -0.39364  -0.39107  -0.38939
 Alpha  occ. eigenvalues --   -0.38906  -0.38719  -0.38328  -0.38184  -0.37892
 Alpha  occ. eigenvalues --   -0.37572  -0.37291  -0.37156  -0.36923  -0.36874
 Alpha  occ. eigenvalues --   -0.36708  -0.36277  -0.36053  -0.35713  -0.35674
 Alpha  occ. eigenvalues --   -0.35202  -0.35100  -0.34410  -0.34083  -0.33778
 Alpha  occ. eigenvalues --   -0.33205  -0.33123  -0.32649  -0.31058  -0.30599
 Alpha  occ. eigenvalues --   -0.29838  -0.28154  -0.27991  -0.27552  -0.23316
 Alpha  occ. eigenvalues --   -0.21504
 Alpha virt. eigenvalues --   -0.06633  -0.02845   0.01484   0.03909   0.04503
 Alpha virt. eigenvalues --    0.05338   0.05609   0.06659   0.06871   0.07692
 Alpha virt. eigenvalues --    0.08701   0.10577   0.11314   0.11588   0.11834

 Mulliken charges:
               1
     1  Mg   0.828792
     2  C    0.051118
     3  C   -0.217785
     4  C   -0.181426
     5  C   -0.147395
     6  N   -0.608028
     7  C    0.284459
     8  C   -0.189542
     9  C   -0.113557
    10  C    0.358103
    11  C   -0.287188
    12  C   -0.179029
    13  C   -0.255471
    14  C    0.602254
    15  O   -0.428221
    16  O   -0.476915
    17  N   -0.711476
    18  C    0.319480
    19  C   -0.015093
    20  C   -0.005023
    21  C    0.330638
    22  C   -0.364884
    23  C   -0.066176
    24  C   -0.208083
    25  N   -0.688331
    26  C    0.260547
    27  C    0.005246
    28  C   -0.007907
    29  C    0.286019
    30  C   -0.348225
    31  C   -0.250168
    32  C   -0.293657
    33  N   -0.725597
    34  C    0.259468
    35  C    0.055072
    36  C    0.008406
    37  C    0.328092
    38  C   -0.382113
    39  C    0.339931
    40  O   -0.493357
    41  C   -0.305720
    42  C    0.633031
    43  O   -0.499143
    44  O   -0.421960
    45  C   -0.072562
    46  C    0.028907
    47  C   -0.143464
    48  C    0.136612
    49  C   -0.392167
    50  C   -0.228439
    51  C   -0.194882
    52  C   -0.170666
    53  C   -0.049160
    54  C   -0.319598
    55  C   -0.161390
    56  C   -0.183225
    57  C   -0.169372
    58  C   -0.038008
    59  C   -0.336398
    60  C   -0.155590
    61  C   -0.164064
    62  C   -0.164058
    63  C   -0.041796
    64  C   -0.309128
    65  C   -0.308478
    66  H    0.064005
    67  H    0.093923
    68  H    0.092182
    69  H    0.125454
    70  H    0.094460
    71  H    0.072344
    72  H    0.123419
    73  H    0.114866
    74  H    0.121893
    75  H    0.124467
    76  H    0.107758
    77  H    0.126762
    78  H    0.133026
    79  H    0.132287
    80  H    0.112803
    81  H    0.083552
    82  H    0.090272
    83  H    0.086734
    84  H    0.130577
    85  H    0.107798
    86  H    0.107662
    87  H    0.098044
    88  H    0.105424
    89  H    0.089491
    90  H    0.109486
    91  H    0.118465
    92  H    0.125993
    93  H    0.142911
    94  H    0.138782
    95  H    0.159989
    96  H    0.103758
    97  H    0.140232
    98  H    0.133198
    99  H    0.119221
   100  H    0.103597
   101  H    0.099346
   102  H    0.119155
   103  H    0.114441
   104  H    0.127582
   105  H    0.087609
   106  H    0.084421
   107  H    0.098324
   108  H    0.100791
   109  H    0.087075
   110  H    0.084798
   111  H    0.085066
   112  H    0.091763
   113  H    0.106897
   114  H    0.106386
   115  H    0.081755
   116  H    0.087518
   117  H    0.099206
   118  H    0.075881
   119  H    0.077103
   120  H    0.059385
   121  H    0.084197
   122  H    0.114238
   123  H    0.094996
   124  H    0.122162
   125  H    0.055769
   126  H    0.097229
   127  H    0.066288
   128  H    0.092549
   129  H    0.072973
   130  H    0.093434
   131  H    0.071511
   132  H    0.119186
   133  H    0.090943
   134  H    0.089707
   135  H    0.088624
   136  H    0.107771
   137  H    0.086822
 Sum of Mulliken charges =  -0.00000

 Dipole moment (field-independent basis, Debye):
    X=              1.2067    Y=              3.2489    Z=             -1.2287  Tot=              3.6771
 Quadrupole moment (field-independent basis, Debye-Ang):
   XX=           -363.5900   YY=           -388.1475   ZZ=           -397.1691
   XY=            -18.3976   XZ=              5.8605   YZ=             -5.8490

 Normal termination of Gaussian 16 at Thu Jun 27 12:28:08 2019.
