 Gaussian 09, Revision D.01,
 Gaussian 09:  ES64L-G09RevD.01 24-Apr-2013

 -------------------------------------
 # td=(NStates=1) CAM-B3LYP/6-31G(d,p)
 -------------------------------------

 --
 TD
 --
 Symbolic Z-matrix:
 Charge =  0 Multiplicity = 1

                         Standard orientation:
 ---------------------------------------------------------------------
 Center     Atomic      Atomic             Coordinates (Angstroms)
 Number     Number       Type             X           Y           Z
 ---------------------------------------------------------------------
      1         12           0       -7.118796    0.592652    0.163325
      2          6           0       -4.825824   -1.988038    0.607036
      3          6           0       -4.795679    2.848361    1.146532
      4          6           0       -9.354165    3.135456   -0.491777
      5          6           0       -9.457712   -1.656287   -0.895831
      6          7           0       -5.131986    0.491793    0.791391
      7          6           0       -4.410192   -0.699075    0.778245
      8          6           0       -2.950499   -0.339183    1.069314
      9          6           0       -3.041478    1.146335    1.680449
     10          6           0       -4.371092    1.577579    1.095401
     11          6           0       -2.837721    1.327578    3.182922
     12          6           0       -2.039431   -0.678546    0.043504
     13          6           0       -0.486768   -0.556871    0.545474
     14          6           0        0.451834   -0.755998   -0.678519
     15          8           0        0.152841   -1.215515   -1.771524
     16          8           0        1.727156   -0.496353   -0.220864
     17          7           0       -7.048897    2.700836    0.290315
     18          6           0       -6.069803    3.368100    0.834164
     19          6           0       -6.382561    4.796858    0.773248
     20          6           0       -7.630345    4.905727    0.269414
     21          6           0       -8.033585    3.514131    0.020029
     22          6           0       -5.384573    5.934428    1.136361
     23          6           0       -8.416907    6.021102    0.035912
     24          6           0       -8.427673    7.190286    0.693552
     25          7           0       -9.009633    0.717340   -0.685622
     26          6           0       -9.771942    1.850398   -0.695699
     27          6           0      -11.185903    1.405245   -1.065832
     28          6           0      -11.165981    0.041947   -1.252750
     29          6           0       -9.808555   -0.407490   -1.007482
     30          6           0      -12.294823    2.433590   -1.340407
     31          6           0      -12.307096   -0.788502   -1.611336
     32          6           0      -12.220551   -1.179100   -3.094217
     33          7           0       -7.111831   -1.336422   -0.139720
     34          6           0       -8.198374   -2.233310   -0.486632
     35          6           0       -7.826567   -3.540216   -0.558260
     36          6           0       -6.500140   -3.506625   -0.049155
     37          6           0       -6.119868   -2.219221    0.096036
     38          6           0       -8.570392   -4.710388   -0.888735
     39          6           0       -5.335211   -4.357125    0.311937
     40          8           0       -5.066952   -5.485031    0.164492
     41          6           0       -4.214081   -3.250712    0.635455
     42          6           0       -3.554456   -3.678781    1.947385
     43          8           0       -3.612889   -3.067413    2.965792
     44          8           0       -2.692789   -4.795299    1.757346
     45          6           0       -2.221444   -5.200489    2.945668
     46          6           0        2.767439   -0.829840   -1.180879
     47          6           0        4.028216   -0.477312   -0.607599
     48          6           0        5.050880    0.390225   -0.919935
     49          6           0        4.904443    1.183468   -2.261060
     50          6           0        6.359172    0.349416   -0.170606
     51          6           0        7.577262   -0.183619   -1.048525
     52          6           0        8.763198   -0.224117   -0.195127
     53          6           0       10.219519   -0.632087   -0.914187
     54          6           0       10.054103   -2.128436   -1.318504
     55          6           0       11.315375   -0.429384    0.077522
     56          6           0       12.780120   -0.420969   -0.741637
     57          6           0       13.821787   -0.019134    0.197197
     58          6           0       15.259134   -0.080673   -0.409303
     59          6           0       15.625912   -1.515382   -0.852615
     60          6           0       16.412142    0.422487    0.465385
     61          6           0       17.802076    0.553507   -0.218429
     62          6           0       18.801461    1.451755    0.792305
     63          6           0       20.203648    1.405241    0.215878
     64          6           0       20.350909    1.935837   -1.104189
     65          6           0       21.175472    2.012507    1.340913
     66          1           0       -4.182887    3.555242    1.694950
     67          1           0      -10.060753    3.973963   -0.577421
     68          1           0      -10.033994   -2.389640   -1.198552
     69          1           0       -2.861776   -1.035742    2.080707
     70          1           0       -2.244251    1.760598    1.095732
     71          1           0       -1.801781    0.945931    3.617254
     72          1           0       -3.158132    2.316396    3.640500
     73          1           0       -3.621589    0.499375    3.825023
     74          1           0       -2.177636   -1.737090   -0.240426
     75          1           0       -2.185942   -0.007344   -0.661981
     76          1           0       -0.337911    0.445237    0.951731
     77          1           0       -0.409607   -1.300234    1.394607
     78          1           0       -5.702414    6.776648    0.503803
     79          1           0       -5.568550    6.379898    2.148062
     80          1           0       -4.445203    5.551444    0.935774
     81          1           0       -9.128778    5.868995   -0.827367
     82          1           0       -9.316745    7.861344    0.619284
     83          1           0       -7.752137    7.443707    1.561488
     84          1           0      -11.981174    3.003849   -2.074489
     85          1           0      -13.167661    1.903834   -1.567866
     86          1           0      -12.593079    3.033421   -0.295314
     87          1           0      -12.317454   -1.621947   -1.004410
     88          1           0      -13.364269   -0.384368   -1.279058
     89          1           0      -12.952632   -2.037496   -3.197980
     90          1           0      -12.187312   -0.344899   -3.833977
     91          1           0      -11.248203   -1.609909   -3.280820
     92          1           0       -8.751938   -4.771332   -1.815911
     93          1           0       -8.385015   -5.902468   -0.530283
     94          1           0       -9.663523   -4.609953   -0.267540
     95          1           0       -3.345725   -3.290166   -0.109199
     96          1           0       -1.666425   -4.380444    3.550025
     97          1           0       -3.103334   -5.772958    3.437401
     98          1           0       -1.399035   -5.815341    2.763457
     99          1           0        2.793471   -1.883640   -1.442100
    100          1           0        2.615646   -0.300803   -2.115601
    101          1           0        4.212904   -1.054767    0.343686
    102          1           0        3.773634    1.208020   -2.613298
    103          1           0        5.310175    2.237889   -2.365361
    104          1           0        5.546747    0.836773   -3.150160
    105          1           0        6.498131    1.614108   -0.009303
    106          1           0        6.276635    0.005029    0.829392
    107          1           0        7.035576   -1.237536   -1.400555
    108          1           0        7.901601    0.471597   -1.999892
    109          1           0        9.032182    0.694450    0.103554
    110          1           0        8.543305   -0.970015    0.657315
    111          1           0       10.215294   -0.034607   -1.708087
    112          1           0        9.165114   -2.255966   -1.919586
    113          1           0       11.088688   -2.526918   -1.947422
    114          1           0        9.870424   -2.789802   -0.390036
    115          1           0       11.396884    0.640602    0.268938
    116          1           0       11.486279   -0.943965    0.829571
    117          1           0       12.752273   -1.432470   -0.822657
    118          1           0       12.638373    0.280853   -1.573866
    119          1           0       13.653792    0.905848    0.721411
    120          1           0       13.563727   -0.853804    1.070468
    121          1           0       15.069288    0.578445   -1.320731
    122          1           0       15.484440   -2.312950   -0.015968
    123          1           0       14.896681   -1.788501   -1.746604
    124          1           0       16.647273   -1.613746   -1.193071
    125          1           0       15.992926    1.411786    0.767625
    126          1           0       16.517902   -0.168451    1.346731
    127          1           0       18.058528   -0.276853   -0.623073
    128          1           0       17.730852    1.148535   -1.187824
    129          1           0       18.342862    2.469192    0.588569
    130          1           0       19.039997    0.923648    1.752079
    131          1           0       20.541514    0.338314    0.308222
    132          1           0       19.935305    2.927996   -1.126503
    133          1           0       21.483982    2.056467   -1.258446
    134          1           0       20.160762    1.200466   -1.913920
    135          1           0       20.932633    1.674908    2.447252
    136          1           0       22.345906    1.736417    1.172513
    137          1           0       20.971951    3.037188    1.395096
 ---------------------------------------------------------------------

 SCF Done:  E(RCAM-B3LYP) =  -2932.55753662     A.U. after   18 cycles

 Excitation energies and oscillator strengths:

 Excited State   1:      Singlet-A      2.0450 eV  606.27 nm  f=0.3331  <S**2>=0.000
     240 -> 242       -0.13138
     240 -> 243        0.17942
     241 -> 242        0.66561
 This state for optimization and/or second-order correction.
 Total Energy, E(TD-HF/TD-KS) =  -2932.48238252
 Copying the excited state density for this state as the 1-particle RhoCI density.

 The electronic state is 1-A.
 Alpha  occ. eigenvalues --  -46.83819 -19.26276 -19.24851 -19.21799 -19.21686
 Alpha  occ. eigenvalues --  -19.20152 -14.41645 -14.39911 -14.39606 -14.38079
 Alpha  occ. eigenvalues --  -10.39806 -10.38853 -10.34466 -10.30993 -10.30874
 Alpha  occ. eigenvalues --  -10.30772 -10.30326 -10.30117 -10.29987 -10.29623
 Alpha  occ. eigenvalues --  -10.29194 -10.28766 -10.28651 -10.28539 -10.28399
 Alpha  occ. eigenvalues --  -10.28098 -10.28059 -10.28000 -10.27780 -10.27587
 Alpha  occ. eigenvalues --  -10.27502 -10.27499 -10.27498 -10.27279 -10.26887
 Alpha  occ. eigenvalues --  -10.26831 -10.26731 -10.26718 -10.26555 -10.26527
 Alpha  occ. eigenvalues --  -10.26527 -10.26451 -10.26362 -10.26314 -10.26267
 Alpha  occ. eigenvalues --  -10.26080 -10.26008 -10.25911 -10.25811 -10.25791
 Alpha  occ. eigenvalues --  -10.25789 -10.25728 -10.25597 -10.25488 -10.25485
 Alpha  occ. eigenvalues --  -10.25396 -10.25201 -10.25199 -10.24834 -10.24494
 Alpha  occ. eigenvalues --  -10.24440 -10.24349 -10.23992 -10.23593 -10.23464
 Alpha  occ. eigenvalues --   -3.12969  -1.87671  -1.87190  -1.87165  -1.18252
 Alpha  occ. eigenvalues --   -1.16976  -1.13283  -1.10758  -1.09146  -1.07348
 Alpha  occ. eigenvalues --   -1.03657  -1.02606  -1.01721  -0.93414  -0.90985
 Alpha  occ. eigenvalues --   -0.90904  -0.90247  -0.90116  -0.89843  -0.89528
 Alpha  occ. eigenvalues --   -0.88629  -0.88291  -0.87846  -0.87681  -0.85937
 Alpha  occ. eigenvalues --   -0.85197  -0.83970  -0.83445  -0.83203  -0.82675
 Alpha  occ. eigenvalues --   -0.81588  -0.80796  -0.80591  -0.79168  -0.78677
 Alpha  occ. eigenvalues --   -0.77785  -0.77406  -0.76012  -0.75764  -0.75429
 Alpha  occ. eigenvalues --   -0.75042  -0.74492  -0.73736  -0.73543  -0.71835
 Alpha  occ. eigenvalues --   -0.71239  -0.70586  -0.70240  -0.69613  -0.68974
 Alpha  occ. eigenvalues --   -0.67427  -0.66890  -0.65456  -0.65302  -0.64479
 Alpha  occ. eigenvalues --   -0.63944  -0.63718  -0.63308  -0.61983  -0.61639
 Alpha  occ. eigenvalues --   -0.61479  -0.60688  -0.60186  -0.60025  -0.59427
 Alpha  occ. eigenvalues --   -0.58835  -0.58504  -0.57638  -0.57103  -0.56694
 Alpha  occ. eigenvalues --   -0.56249  -0.56040  -0.55894  -0.55282  -0.54885
 Alpha  occ. eigenvalues --   -0.54727  -0.54354  -0.54175  -0.53741  -0.53263
 Alpha  occ. eigenvalues --   -0.53111  -0.52665  -0.52335  -0.52193  -0.51734
 Alpha  occ. eigenvalues --   -0.51624  -0.51329  -0.51163  -0.50733  -0.50636
 Alpha  occ. eigenvalues --   -0.50371  -0.50278  -0.50044  -0.49979  -0.49596
 Alpha  occ. eigenvalues --   -0.49286  -0.49053  -0.48938  -0.48687  -0.48673
 Alpha  occ. eigenvalues --   -0.48621  -0.48119  -0.47841  -0.47820  -0.47601
 Alpha  occ. eigenvalues --   -0.47383  -0.46906  -0.46785  -0.46676  -0.46089
 Alpha  occ. eigenvalues --   -0.45985  -0.45824  -0.45786  -0.45692  -0.45639
 Alpha  occ. eigenvalues --   -0.45295  -0.44960  -0.44774  -0.44481  -0.44323
 Alpha  occ. eigenvalues --   -0.43951  -0.43857  -0.43688  -0.43368  -0.42927
 Alpha  occ. eigenvalues --   -0.42894  -0.42691  -0.42659  -0.42585  -0.42424
 Alpha  occ. eigenvalues --   -0.42327  -0.41809  -0.41759  -0.41667  -0.41439
 Alpha  occ. eigenvalues --   -0.41353  -0.41124  -0.40450  -0.40100  -0.39961
 Alpha  occ. eigenvalues --   -0.39929  -0.39824  -0.39326  -0.39259  -0.39022
 Alpha  occ. eigenvalues --   -0.38866  -0.38810  -0.38058  -0.37620  -0.37403
 Alpha  occ. eigenvalues --   -0.37363  -0.37169  -0.36737  -0.36548  -0.36423
 Alpha  occ. eigenvalues --   -0.36265  -0.36116  -0.36105  -0.35742  -0.35107
 Alpha  occ. eigenvalues --   -0.34818  -0.34514  -0.34134  -0.34047  -0.33088
 Alpha  occ. eigenvalues --   -0.32804  -0.32089  -0.30994  -0.30581  -0.29379
 Alpha  occ. eigenvalues --   -0.28826  -0.28746  -0.28320  -0.27841  -0.23352
 Alpha  occ. eigenvalues --   -0.21775
 Alpha virt. eigenvalues --   -0.07671  -0.01825   0.02207   0.03808   0.05131
 Alpha virt. eigenvalues --    0.05291   0.05616   0.06064   0.07183   0.07603
 Alpha virt. eigenvalues --    0.08262   0.10327   0.11303   0.11579   0.11701

 Mulliken charges:
               1
     1  Mg   0.815206
     2  C    0.206838
     3  C   -0.203560
     4  C   -0.187421
     5  C   -0.141149
     6  N   -0.652985
     7  C    0.285984
     8  C   -0.198982
     9  C   -0.121691
    10  C    0.347649
    11  C   -0.299327
    12  C   -0.142870
    13  C   -0.281124
    14  C    0.620484
    15  O   -0.465593
    16  O   -0.480669
    17  N   -0.671999
    18  C    0.312708
    19  C   -0.027533
    20  C    0.063888
    21  C    0.296430
    22  C   -0.360496
    23  C   -0.103604
    24  C   -0.252519
    25  N   -0.708721
    26  C    0.335203
    27  C   -0.030876
    28  C    0.051172
    29  C    0.323691
    30  C   -0.345511
    31  C   -0.242460
    32  C   -0.314528
    33  N   -0.745077
    34  C    0.212715
    35  C    0.064947
    36  C   -0.031374
    37  C    0.268681
    38  C   -0.365695
    39  C    0.363593
    40  O   -0.412212
    41  C   -0.414868
    42  C    0.609299
    43  O   -0.434774
    44  O   -0.444652
    45  C   -0.071701
    46  C    0.022873
    47  C   -0.136757
    48  C    0.130823
    49  C   -0.371090
    50  C   -0.214127
    51  C   -0.157094
    52  C   -0.168363
    53  C   -0.059067
    54  C   -0.296310
    55  C   -0.175812
    56  C   -0.200434
    57  C   -0.160014
    58  C   -0.052377
    59  C   -0.307670
    60  C   -0.164214
    61  C   -0.200162
    62  C   -0.157493
    63  C   -0.055178
    64  C   -0.305158
    65  C   -0.313451
    66  H    0.087154
    67  H    0.096306
    68  H    0.065190
    69  H    0.111007
    70  H    0.090694
    71  H    0.113685
    72  H    0.116547
    73  H    0.084000
    74  H    0.119465
    75  H    0.116011
    76  H    0.132555
    77  H    0.140657
    78  H    0.126775
    79  H    0.121687
    80  H    0.125446
    81  H    0.098146
    82  H    0.108696
    83  H    0.101937
    84  H    0.137551
    85  H    0.119651
    86  H    0.089994
    87  H    0.118486
    88  H    0.091873
    89  H    0.101280
    90  H    0.116088
    91  H    0.116939
    92  H    0.141372
    93  H    0.123824
    94  H    0.080419
    95  H    0.165764
    96  H    0.098953
    97  H    0.104616
    98  H    0.113062
    99  H    0.132634
   100  H    0.115899
   101  H    0.077364
   102  H    0.104556
   103  H    0.106496
   104  H    0.112036
   105  H    0.056175
   106  H    0.120438
   107  H    0.084258
   108  H    0.082520
   109  H    0.107563
   110  H    0.080282
   111  H    0.090580
   112  H    0.110138
   113  H    0.065145
   114  H    0.093251
   115  H    0.090309
   116  H    0.093618
   117  H    0.127403
   118  H    0.088272
   119  H    0.088222
   120  H    0.043688
   121  H    0.075962
   122  H    0.090776
   123  H    0.085530
   124  H    0.102750
   125  H    0.075348
   126  H    0.098108
   127  H    0.099765
   128  H    0.078316
   129  H    0.098015
   130  H    0.101281
   131  H    0.085167
   132  H    0.104792
   133  H    0.089089
   134  H    0.113632
   135  H    0.082257
   136  H    0.080133
   137  H    0.108960
 Sum of Mulliken charges =   0.00000

 Dipole moment (field-independent basis, Debye):
    X=             -0.0306    Y=              5.8414    Z=              0.5306  Tot=              5.8655
 Quadrupole moment (field-independent basis, Debye-Ang):
   XX=           -322.5913   YY=           -395.3279   ZZ=           -398.3434
   XY=            -22.7857   XZ=              2.2470   YZ=              0.0562

 Normal termination of Gaussian 09 at Fri Jul  5 02:54:37 2019.
