 Gaussian 09, Revision D.01,
 Gaussian 09:  ES64L-G09RevD.01 24-Apr-2013

 -------------------------------------
 # td=(NStates=1) CAM-B3LYP/6-31G(d,p)
 -------------------------------------

 --
 TD
 --
 Symbolic Z-matrix:
 Charge =  0 Multiplicity = 1

                         Standard orientation:
 ---------------------------------------------------------------------
 Center     Atomic      Atomic             Coordinates (Angstroms)
 Number     Number       Type             X           Y           Z
 ---------------------------------------------------------------------
      1         12           0       -7.143811    0.619435    0.140133
      2          6           0       -4.877332   -1.863653    0.644059
      3          6           0       -4.816649    2.843247    1.207220
      4          6           0       -9.473868    3.090245   -0.411239
      5          6           0       -9.463743   -1.771914   -0.892518
      6          7           0       -5.099957    0.456886    0.628424
      7          6           0       -4.277837   -0.735682    0.866519
      8          6           0       -2.873198   -0.354664    1.218122
      9          6           0       -3.015403    1.076897    1.642727
     10          6           0       -4.389735    1.584162    1.224680
     11          6           0       -2.936439    1.133571    3.188512
     12          6           0       -1.935462   -0.529389    0.105817
     13          6           0       -0.473979   -0.311688    0.504541
     14          6           0        0.452432   -0.668328   -0.716081
     15          8           0        0.099768   -1.048349   -1.742849
     16          8           0        1.727359   -0.494930   -0.255862
     17          7           0       -7.107252    2.592969    0.402797
     18          6           0       -6.141953    3.338564    0.770188
     19          6           0       -6.495118    4.742395    0.747990
     20          6           0       -7.763510    4.832743    0.302913
     21          6           0       -8.173066    3.506555    0.038919
     22          6           0       -5.626264    5.884577    1.244022
     23          6           0       -8.492193    5.999051    0.080275
     24          6           0       -8.433495    7.148305    0.855561
     25          7           0       -9.145979    0.692514   -0.525126
     26          6           0       -9.966274    1.811434   -0.625315
     27          6           0      -11.273349    1.431920   -1.159296
     28          6           0      -11.228504    0.067912   -1.276714
     29          6           0       -9.912152   -0.442030   -0.818927
     30          6           0      -12.357712    2.452118   -1.406918
     31          6           0      -12.321478   -0.831592   -1.890347
     32          6           0      -12.141518   -1.001053   -3.395733
     33          7           0       -7.216602   -1.470790   -0.157486
     34          6           0       -8.215376   -2.214567   -0.569495
     35          6           0       -7.863249   -3.625119   -0.464104
     36          6           0       -6.489950   -3.579641   -0.070199
     37          6           0       -6.185245   -2.215342    0.158882
     38          6           0       -8.615464   -4.955869   -0.742186
     39          6           0       -5.271337   -4.346554    0.272835
     40          8           0       -5.191497   -5.542273    0.310659
     41          6           0       -4.135483   -3.278455    0.583487
     42          6           0       -3.577953   -3.640793    1.947479
     43          8           0       -3.914172   -3.217004    3.045496
     44          8           0       -2.736725   -4.685190    1.767108
     45          6           0       -2.239593   -5.226199    2.982893
     46          6           0        2.827209   -0.732235   -1.196878
     47          6           0        4.160367   -0.453580   -0.562346
     48          6           0        5.082288    0.334519   -1.046059
     49          6           0        5.096713    1.104519   -2.274986
     50          6           0        6.473334    0.552163   -0.329201
     51          6           0        7.570990   -0.178170   -0.993691
     52          6           0        8.867587   -0.155421   -0.280870
     53          6           0       10.246305   -0.532667   -1.022461
     54          6           0       10.145277   -1.977968   -1.463101
     55          6           0       11.437159   -0.142792   -0.130961
     56          6           0       12.770438   -0.401566   -0.801834
     57          6           0       13.944705   -0.020425    0.196139
     58          6           0       15.323169   -0.038305   -0.492184
     59          6           0       15.786905   -1.555744   -0.864159
     60          6           0       16.490264    0.440185    0.510979
     61          6           0       17.750424    0.647578   -0.245654
     62          6           0       18.834783    1.150696    0.728274
     63          6           0       20.252650    1.259508    0.312817
     64          6           0       20.457022    2.156099   -0.948959
     65          6           0       21.238622    1.717548    1.507138
     66          1           0       -4.075945    3.605286    1.541540
     67          1           0      -10.267486    3.844531   -0.429196
     68          1           0      -10.215957   -2.431915   -0.987340
     69          1           0       -2.554782   -1.084204    1.824239
     70          1           0       -2.241629    1.793045    1.365998
     71          1           0       -1.790030    1.052726    3.492983
     72          1           0       -3.175218    2.142727    3.745967
     73          1           0       -3.594764    0.563192    3.797097
     74          1           0       -1.843304   -1.529967   -0.386867
     75          1           0       -2.318251    0.019835   -0.640613
     76          1           0       -0.345265    0.824078    0.876622
     77          1           0       -0.188790   -1.048526    1.371976
     78          1           0       -5.853823    6.891575    0.833342
     79          1           0       -5.697128    6.063863    2.354610
     80          1           0       -4.608583    5.585205    0.996916
     81          1           0       -9.365168    5.865617   -0.585791
     82          1           0       -9.220981    7.974596    0.663180
     83          1           0       -7.879346    7.421283    1.774732
     84          1           0      -11.940993    3.101346   -2.242572
     85          1           0      -13.315801    2.062794   -1.813577
     86          1           0      -12.659367    3.041405   -0.629931
     87          1           0      -12.370576   -1.914214   -1.276509
     88          1           0      -13.097129   -0.511346   -1.714280
     89          1           0      -13.032361   -1.569123   -3.791473
     90          1           0      -12.145538   -0.101437   -3.924590
     91          1           0      -10.939959   -1.126933   -3.843026
     92          1           0       -9.070919   -4.724354   -1.795504
     93          1           0       -7.895605   -5.693453   -0.791068
     94          1           0       -9.270436   -5.390792    0.073785
     95          1           0       -3.205953   -3.227616   -0.082381
     96          1           0       -1.591551   -4.488613    3.450977
     97          1           0       -3.137693   -5.662712    3.497565
     98          1           0       -1.420911   -5.967986    2.510515
     99          1           0        2.709920   -1.856674   -1.458260
    100          1           0        2.786149   -0.126036   -1.929216
    101          1           0        4.410628   -0.970353    0.429942
    102          1           0        4.114070    1.240843   -2.545488
    103          1           0        5.249110    2.115844   -1.721706
    104          1           0        5.693808    0.666275   -3.106218
    105          1           0        6.795771    1.647702   -0.211039
    106          1           0        6.329145   -0.122687    0.574809
    107          1           0        7.318938   -1.211027   -1.491370
    108          1           0        7.625146    0.585804   -2.099716
    109          1           0        8.962360    0.685287    0.068000
    110          1           0        9.099296   -0.858884    0.620269
    111          1           0       10.517380    0.094976   -1.905026
    112          1           0        9.410963   -2.271145   -2.147705
    113          1           0       10.995666   -2.284787   -2.055293
    114          1           0       10.010487   -2.572009   -0.648192
    115          1           0       11.336689    0.887493    0.331737
    116          1           0       11.265507   -0.965898    0.758760
    117          1           0       12.854465   -1.398693   -1.165951
    118          1           0       12.761043    0.165359   -1.725847
    119          1           0       13.702311    0.972626    0.578659
    120          1           0       13.973251   -0.725558    1.049294
    121          1           0       15.313942    0.772704   -1.363221
    122          1           0       16.203767   -2.230583   -0.052783
    123          1           0       14.988666   -2.113766   -1.594884
    124          1           0       16.608097   -1.545390   -1.626071
    125          1           0       16.045225    1.374937    1.089185
    126          1           0       16.583865   -0.146462    1.537765
    127          1           0       17.997322   -0.575884   -0.300574
    128          1           0       17.587460    1.318575   -1.171268
    129          1           0       18.458314    2.159516    0.883671
    130          1           0       18.868172    0.586087    1.620555
    131          1           0       20.846026    0.277908    0.353109
    132          1           0       19.757681    3.031001   -0.787458
    133          1           0       21.467759    2.365615   -1.076673
    134          1           0       20.188826    1.718841   -1.937612
    135          1           0       21.159054    1.088979    2.360325
    136          1           0       22.441374    1.547191    1.286731
    137          1           0       21.201390    2.709439    1.719700
 ---------------------------------------------------------------------

 SCF Done:  E(RCAM-B3LYP) =  -2932.54871044     A.U. after   17 cycles

 Excitation energies and oscillator strengths:

 Excited State   1:      Singlet-A      2.0232 eV  612.80 nm  f=0.3206  <S**2>=0.000
     240 -> 243        0.19514
     241 -> 242        0.67262
 This state for optimization and/or second-order correction.
 Total Energy, E(TD-HF/TD-KS) =  -2932.47435772
 Copying the excited state density for this state as the 1-particle RhoCI density.

 The electronic state is 1-A.
 Alpha  occ. eigenvalues --  -46.84240 -19.25405 -19.25393 -19.22217 -19.20423
 Alpha  occ. eigenvalues --  -19.20321 -14.39973 -14.39824 -14.39718 -14.38643
 Alpha  occ. eigenvalues --  -10.39234 -10.38329 -10.35150 -10.31601 -10.31381
 Alpha  occ. eigenvalues --  -10.30057 -10.29943 -10.29938 -10.29251 -10.28962
 Alpha  occ. eigenvalues --  -10.28882 -10.28876 -10.28689 -10.28556 -10.28541
 Alpha  occ. eigenvalues --  -10.28339 -10.28172 -10.28132 -10.28016 -10.27973
 Alpha  occ. eigenvalues --  -10.27887 -10.27738 -10.27197 -10.26961 -10.26937
 Alpha  occ. eigenvalues --  -10.26918 -10.26689 -10.26668 -10.26622 -10.26616
 Alpha  occ. eigenvalues --  -10.26560 -10.26411 -10.26394 -10.26392 -10.26361
 Alpha  occ. eigenvalues --  -10.26278 -10.26130 -10.26104 -10.26073 -10.26065
 Alpha  occ. eigenvalues --  -10.25910 -10.25878 -10.25857 -10.25831 -10.25707
 Alpha  occ. eigenvalues --  -10.25370 -10.25160 -10.24750 -10.24748 -10.24728
 Alpha  occ. eigenvalues --  -10.24726 -10.24507 -10.24217 -10.24161 -10.22932
 Alpha  occ. eigenvalues --   -3.13166  -1.87888  -1.87392  -1.87345  -1.19182
 Alpha  occ. eigenvalues --   -1.17685  -1.11787  -1.11251  -1.08279  -1.05677
 Alpha  occ. eigenvalues --   -1.05060  -1.01448  -0.99819  -0.92504  -0.91709
 Alpha  occ. eigenvalues --   -0.90904  -0.90344  -0.90211  -0.89675  -0.88589
 Alpha  occ. eigenvalues --   -0.88077  -0.87529  -0.87020  -0.86188  -0.86013
 Alpha  occ. eigenvalues --   -0.84727  -0.84006  -0.83989  -0.83096  -0.82614
 Alpha  occ. eigenvalues --   -0.82107  -0.80979  -0.80190  -0.79845  -0.78077
 Alpha  occ. eigenvalues --   -0.77921  -0.77111  -0.77090  -0.75783  -0.75421
 Alpha  occ. eigenvalues --   -0.75147  -0.74846  -0.73917  -0.73833  -0.72785
 Alpha  occ. eigenvalues --   -0.71188  -0.70544  -0.70019  -0.69220  -0.68750
 Alpha  occ. eigenvalues --   -0.67947  -0.66166  -0.65453  -0.65078  -0.64160
 Alpha  occ. eigenvalues --   -0.63277  -0.63053  -0.62974  -0.61776  -0.61588
 Alpha  occ. eigenvalues --   -0.61311  -0.60859  -0.60306  -0.59547  -0.58776
 Alpha  occ. eigenvalues --   -0.58342  -0.58231  -0.57853  -0.57061  -0.56290
 Alpha  occ. eigenvalues --   -0.55881  -0.55776  -0.55577  -0.55239  -0.55079
 Alpha  occ. eigenvalues --   -0.55035  -0.54720  -0.54493  -0.53445  -0.53385
 Alpha  occ. eigenvalues --   -0.52931  -0.52866  -0.52254  -0.52127  -0.51609
 Alpha  occ. eigenvalues --   -0.51204  -0.51078  -0.50894  -0.50593  -0.50540
 Alpha  occ. eigenvalues --   -0.50221  -0.50126  -0.49992  -0.49750  -0.49716
 Alpha  occ. eigenvalues --   -0.49377  -0.49230  -0.48860  -0.48596  -0.48419
 Alpha  occ. eigenvalues --   -0.48243  -0.47819  -0.47679  -0.47577  -0.47397
 Alpha  occ. eigenvalues --   -0.47269  -0.46891  -0.46497  -0.46429  -0.46165
 Alpha  occ. eigenvalues --   -0.45727  -0.45510  -0.45378  -0.45136  -0.45040
 Alpha  occ. eigenvalues --   -0.44993  -0.44842  -0.44611  -0.44236  -0.44177
 Alpha  occ. eigenvalues --   -0.43853  -0.43706  -0.43634  -0.43455  -0.43075
 Alpha  occ. eigenvalues --   -0.42892  -0.42690  -0.42597  -0.42333  -0.42161
 Alpha  occ. eigenvalues --   -0.41813  -0.41780  -0.41615  -0.41334  -0.41145
 Alpha  occ. eigenvalues --   -0.40965  -0.40664  -0.40514  -0.40402  -0.40021
 Alpha  occ. eigenvalues --   -0.39942  -0.39560  -0.39475  -0.39112  -0.38855
 Alpha  occ. eigenvalues --   -0.38494  -0.38382  -0.38147  -0.37935  -0.37657
 Alpha  occ. eigenvalues --   -0.37585  -0.37400  -0.36997  -0.36717  -0.36441
 Alpha  occ. eigenvalues --   -0.36047  -0.35956  -0.35628  -0.35261  -0.35103
 Alpha  occ. eigenvalues --   -0.34582  -0.34261  -0.34135  -0.33282  -0.33123
 Alpha  occ. eigenvalues --   -0.32861  -0.32431  -0.31573  -0.31056  -0.30540
 Alpha  occ. eigenvalues --   -0.29921  -0.28950  -0.28397  -0.27464  -0.22978
 Alpha  occ. eigenvalues --   -0.21552
 Alpha virt. eigenvalues --   -0.07041  -0.02247   0.02490   0.03433   0.06141
 Alpha virt. eigenvalues --    0.06327   0.06516   0.06877   0.07439   0.07653
 Alpha virt. eigenvalues --    0.08751   0.10590   0.10677   0.11541   0.12044

 Mulliken charges:
               1
     1  Mg   0.818752
     2  C    0.075017
     3  C   -0.225571
     4  C   -0.183140
     5  C   -0.115130
     6  N   -0.665120
     7  C    0.263216
     8  C   -0.070423
     9  C   -0.162157
    10  C    0.369383
    11  C   -0.313350
    12  C   -0.175959
    13  C   -0.269141
    14  C    0.609515
    15  O   -0.418156
    16  O   -0.501789
    17  N   -0.706065
    18  C    0.364092
    19  C   -0.018362
    20  C    0.103062
    21  C    0.229135
    22  C   -0.370548
    23  C   -0.114647
    24  C   -0.243607
    25  N   -0.679990
    26  C    0.276556
    27  C    0.053742
    28  C   -0.054467
    29  C    0.271273
    30  C   -0.379195
    31  C   -0.142784
    32  C   -0.314200
    33  N   -0.710104
    34  C    0.292654
    35  C   -0.024081
    36  C   -0.004524
    37  C    0.275635
    38  C   -0.363006
    39  C    0.391033
    40  O   -0.446017
    41  C   -0.338205
    42  C    0.606254
    43  O   -0.481514
    44  O   -0.445124
    45  C   -0.076239
    46  C    0.047432
    47  C   -0.149077
    48  C    0.107149
    49  C   -0.349646
    50  C   -0.215203
    51  C   -0.153334
    52  C   -0.118827
    53  C   -0.085428
    54  C   -0.309685
    55  C   -0.160804
    56  C   -0.185373
    57  C   -0.165541
    58  C   -0.043638
    59  C   -0.325907
    60  C   -0.176126
    61  C   -0.157267
    62  C   -0.149100
    63  C   -0.057421
    64  C   -0.314679
    65  C   -0.326091
    66  H    0.077875
    67  H    0.095738
    68  H    0.092637
    69  H    0.110170
    70  H    0.110258
    71  H    0.086207
    72  H    0.085378
    73  H    0.140749
    74  H    0.110590
    75  H    0.123076
    76  H    0.112290
    77  H    0.124425
    78  H    0.120052
    79  H    0.118041
    80  H    0.112640
    81  H    0.097856
    82  H    0.092891
    83  H    0.118705
    84  H    0.117435
    85  H    0.112421
    86  H    0.136933
    87  H    0.065239
    88  H    0.090657
    89  H    0.104365
    90  H    0.124106
    91  H    0.081666
    92  H    0.113725
    93  H    0.158114
    94  H    0.127247
    95  H    0.156840
    96  H    0.128113
    97  H    0.143914
    98  H    0.105095
    99  H    0.114869
   100  H    0.110674
   101  H    0.084109
   102  H    0.112494
   103  H    0.113294
   104  H    0.143748
   105  H    0.105700
   106  H    0.091728
   107  H    0.092797
   108  H    0.022472
   109  H    0.086673
   110  H    0.075805
   111  H    0.070953
   112  H    0.109681
   113  H    0.095670
   114  H    0.106614
   115  H    0.091934
   116  H    0.051377
   117  H    0.110087
   118  H    0.089303
   119  H    0.091038
   120  H    0.096974
   121  H    0.076198
   122  H    0.111877
   123  H    0.074197
   124  H    0.113401
   125  H    0.054094
   126  H    0.080786
   127  H    0.079802
   128  H    0.098392
   129  H    0.087336
   130  H    0.090577
   131  H    0.082631
   132  H    0.092975
   133  H    0.111703
   134  H    0.100639
   135  H    0.108344
   136  H    0.063614
   137  H    0.111855
 Sum of Mulliken charges =   0.00000

 Dipole moment (field-independent basis, Debye):
    X=              1.2259    Y=              4.7215    Z=             -0.3650  Tot=              4.8917
 Quadrupole moment (field-independent basis, Debye-Ang):
   XX=           -324.7204   YY=           -393.1580   ZZ=           -398.4544
   XY=            -29.6908   XZ=             10.9046   YZ=              1.3930

 Normal termination of Gaussian 09 at Sat Jul  6 06:37:54 2019.
