 Gaussian 16, Revision A.03,
 Gaussian 16:  ES64L-G16RevA.03 25-Dec-2016

 ----------------------------------------------------------------------
 # td=(NStates=1) iop(3/107=0140000000,3/108=0140000000) CAM-B3LYP/6-31
 G(d,p)
 ----------------------------------------------------------------------

 --
 TD
 --
 Symbolic Z-matrix:
 Charge =  0 Multiplicity = 1

                         Standard orientation:
 ---------------------------------------------------------------------
 Center     Atomic      Atomic             Coordinates (Angstroms)
 Number     Number       Type             X           Y           Z
 ---------------------------------------------------------------------
      1         12           0       -7.153680    0.645355    0.176169
      2          6           0       -4.869098   -1.948241    0.443888
      3          6           0       -4.763756    2.829332    1.053867
      4          6           0       -9.376894    3.084388   -0.308801
      5          6           0       -9.537074   -1.699326   -0.957440
      6          7           0       -5.090298    0.373082    0.707347
      7          6           0       -4.379703   -0.711434    0.728410
      8          6           0       -2.896142   -0.478943    1.265364
      9          6           0       -3.100688    1.056391    1.621447
     10          6           0       -4.419239    1.493298    1.077097
     11          6           0       -3.009538    1.123068    3.123181
     12          6           0       -1.984612   -0.587475    0.045209
     13          6           0       -0.503111   -0.458630    0.450399
     14          6           0        0.434214   -0.667537   -0.686042
     15          8           0        0.207407   -1.034354   -1.819855
     16          8           0        1.771824   -0.633611   -0.204768
     17          7           0       -7.079876    2.622551    0.337205
     18          6           0       -6.106473    3.397884    0.748830
     19          6           0       -6.331587    4.765049    0.794374
     20          6           0       -7.649232    4.879150    0.267578
     21          6           0       -8.126759    3.486729    0.107050
     22          6           0       -5.329971    5.806806    1.150106
     23          6           0       -8.434332    6.142460    0.159070
     24          6           0       -8.228338    7.309119    0.688568
     25          7           0       -9.109132    0.796391   -0.418436
     26          6           0       -9.933614    1.830299   -0.605424
     27          6           0      -11.199345    1.461694   -1.072191
     28          6           0      -11.245710    0.153604   -1.173691
     29          6           0       -9.902052   -0.381554   -0.893678
     30          6           0      -12.269477    2.582739   -1.326449
     31          6           0      -12.374116   -0.738325   -1.715115
     32          6           0      -12.132880   -1.197762   -3.080594
     33          7           0       -7.248730   -1.400720   -0.050290
     34          6           0       -8.299306   -2.229791   -0.457770
     35          6           0       -7.900987   -3.700865   -0.459802
     36          6           0       -6.619299   -3.541234   -0.106479
     37          6           0       -6.134636   -2.189391    0.151025
     38          6           0       -8.663351   -4.794908   -0.759960
     39          6           0       -5.332220   -4.353811    0.218622
     40          8           0       -5.196388   -5.586228    0.193161
     41          6           0       -4.169318   -3.391250    0.513162
     42          6           0       -3.488190   -3.642452    1.817109
     43          8           0       -3.724750   -3.076965    2.916607
     44          8           0       -2.748629   -4.679293    1.742337
     45          6           0       -2.225909   -5.164037    2.960567
     46          6           0        2.751761   -0.757822   -1.187689
     47          6           0        4.145041   -0.504657   -0.566058
     48          6           0        5.087512    0.264807   -1.034451
     49          6           0        4.890012    1.257792   -2.240338
     50          6           0        6.396261    0.394191   -0.327225
     51          6           0        7.622374   -0.166331   -1.054848
     52          6           0        8.896673    0.033937   -0.266585
     53          6           0       10.137434   -0.563330   -1.006746
     54          6           0        9.954716   -2.170068   -1.307151
     55          6           0       11.415273   -0.243627   -0.010053
     56          6           0       12.815911   -0.429798   -0.665679
     57          6           0       14.002383   -0.164531    0.171999
     58          6           0       15.397606   -0.210423   -0.425167
     59          6           0       15.691929   -1.618519   -0.915859
     60          6           0       16.404997    0.349595    0.482065
     61          6           0       17.841773    0.501675   -0.137879
     62          6           0       18.762461    1.263995    0.769110
     63          6           0       20.353444    1.364391    0.285509
     64          6           0       20.469647    2.337374   -0.946947
     65          6           0       21.222661    1.836738    1.421865
     66          1           0       -4.128348    3.540850    1.496826
     67          1           0      -10.220840    3.865007   -0.566544
     68          1           0      -10.231413   -2.594098   -1.112168
     69          1           0       -2.806411   -1.121060    1.956239
     70          1           0       -2.370167    1.757494    1.401563
     71          1           0       -2.008347    0.774663    3.444288
     72          1           0       -2.853943    2.263828    3.117146
     73          1           0       -3.950005    0.593464    3.594782
     74          1           0       -2.172932   -1.542538   -0.416074
     75          1           0       -2.252266   -0.016810   -0.708364
     76          1           0       -0.290140    0.521070    1.047572
     77          1           0       -0.223832   -1.294608    1.197961
     78          1           0       -5.518667    6.798458    0.414436
     79          1           0       -5.571745    6.094430    2.171969
     80          1           0       -4.275564    5.578117    1.062629
     81          1           0       -9.423119    5.917743   -0.525864
     82          1           0       -9.050581    7.985266    0.687869
     83          1           0       -7.245432    7.453381    1.207982
     84          1           0      -12.206887    3.337715   -2.252227
     85          1           0      -13.231459    2.015386   -1.407170
     86          1           0      -12.334114    3.346345   -0.496295
     87          1           0      -12.634735   -1.680028   -1.271412
     88          1           0      -13.267243    0.045965   -1.700184
     89          1           0      -12.865032   -1.902903   -3.527225
     90          1           0      -12.160893   -0.188868   -3.774645
     91          1           0      -11.139542   -1.648517   -3.260671
     92          1           0       -9.212677   -4.532352   -1.663125
     93          1           0       -8.083926   -5.729464   -0.837888
     94          1           0       -9.519768   -4.984857   -0.059928
     95          1           0       -3.370259   -3.393185   -0.320323
     96          1           0       -1.495777   -4.461944    3.243600
     97          1           0       -2.995480   -5.335617    3.894990
     98          1           0       -1.828651   -6.278567    2.755951
     99          1           0        2.868987   -1.646526   -1.570184
    100          1           0        2.618270   -0.121270   -2.078063
    101          1           0        4.336332   -0.929825    0.182892
    102          1           0        3.886019    1.167005   -2.593866
    103          1           0        5.093426    2.452544   -1.802944
    104          1           0        5.727110    1.326627   -2.964433
    105          1           0        6.817997    1.417359    0.033084
    106          1           0        6.396613   -0.303385    0.527308
    107          1           0        7.388708   -1.338770   -1.191823
    108          1           0        7.681241    0.386896   -1.917675
    109          1           0        8.862304    1.139794   -0.089640
    110          1           0        8.770809   -0.390150    0.775009
    111          1           0       10.419379   -0.144533   -2.034458
    112          1           0        9.173215   -2.386838   -1.880535
    113          1           0       10.889150   -2.510754   -1.722948
    114          1           0        9.915021   -2.886795   -0.283926
    115          1           0       11.378840    0.749964    0.509850
    116          1           0       11.379615   -0.873793    0.785973
    117          1           0       12.670347   -1.477835   -1.035743
    118          1           0       12.916149    0.133442   -1.712293
    119          1           0       14.117657    0.709337    0.567989
    120          1           0       14.027073   -0.978885    0.998711
    121          1           0       15.315802    0.506092   -1.218727
    122          1           0       15.871329   -2.598045   -0.303077
    123          1           0       14.914686   -2.104621   -1.679043
    124          1           0       16.600381   -1.528101   -1.648501
    125          1           0       15.766385    1.292666    0.847006
    126          1           0       16.454802   -0.213591    1.502468
    127          1           0       18.334883   -0.490520   -0.385416
    128          1           0       17.738197    1.081670   -1.233606
    129          1           0       18.451394    2.343214    0.932356
    130          1           0       18.918803    0.729232    1.697617
    131          1           0       20.573007    0.395301   -0.228350
    132          1           0       20.078936    3.316028   -0.621911
    133          1           0       21.419266    2.284242   -1.318156
    134          1           0       19.463868    1.792869   -1.540727
    135          1           0       21.108005    1.467499    2.366236
    136          1           0       22.259973    1.954099    1.111855
    137          1           0       20.858159    2.892179    1.741173
 ---------------------------------------------------------------------

 SCF Done:  E(RCAM-B3LYP) =  -2933.40162270     A.U. after   16 cycles

 Excitation energies and oscillator strengths:

 Excited State   1:      Singlet-A      2.0349 eV  609.29 nm  f=0.3252  <S**2>=0.000
     240 -> 243       -0.21362
     241 -> 242        0.66963
 This state for optimization and/or second-order correction.
 Total Energy, E(TD-HF/TD-DFT) =  -2933.32684200
 Copying the excited state density for this state as the 1-particle RhoCI density.

 The electronic state is 1-A.
 Alpha  occ. eigenvalues --  -46.79768 -19.24158 -19.21275 -19.18087 -19.16588
 Alpha  occ. eigenvalues --  -19.16254 -14.37396 -14.35269 -14.35191 -14.35124
 Alpha  occ. eigenvalues --  -10.35338 -10.35087 -10.31332 -10.29090 -10.25915
 Alpha  occ. eigenvalues --  -10.25771 -10.25754 -10.25588 -10.25571 -10.25320
 Alpha  occ. eigenvalues --  -10.25245 -10.24910 -10.24719 -10.24077 -10.24039
 Alpha  occ. eigenvalues --  -10.23703 -10.23658 -10.23627 -10.23516 -10.23478
 Alpha  occ. eigenvalues --  -10.23393 -10.23356 -10.23356 -10.23243 -10.22843
 Alpha  occ. eigenvalues --  -10.22626 -10.22474 -10.22359 -10.22175 -10.22161
 Alpha  occ. eigenvalues --  -10.22138 -10.22080 -10.22046 -10.21974 -10.21905
 Alpha  occ. eigenvalues --  -10.21734 -10.21715 -10.21706 -10.21697 -10.21604
 Alpha  occ. eigenvalues --  -10.21564 -10.21481 -10.21480 -10.21449 -10.21292
 Alpha  occ. eigenvalues --  -10.21250 -10.21196 -10.21181 -10.20941 -10.20713
 Alpha  occ. eigenvalues --  -10.20566 -10.20550 -10.19830 -10.19309 -10.18854
 Alpha  occ. eigenvalues --   -3.08402  -1.83343  -1.82861  -1.82824  -1.17024
 Alpha  occ. eigenvalues --   -1.12355  -1.05105  -1.04798  -1.02883  -1.00673
 Alpha  occ. eigenvalues --   -0.99816  -0.97523  -0.96764  -0.87685  -0.86450
 Alpha  occ. eigenvalues --   -0.86100  -0.85708  -0.84642  -0.84458  -0.83991
 Alpha  occ. eigenvalues --   -0.83536  -0.83109  -0.82654  -0.82231  -0.81334
 Alpha  occ. eigenvalues --   -0.80507  -0.79942  -0.79281  -0.78815  -0.77975
 Alpha  occ. eigenvalues --   -0.77450  -0.76461  -0.76051  -0.75102  -0.73956
 Alpha  occ. eigenvalues --   -0.73316  -0.72745  -0.72142  -0.71119  -0.70847
 Alpha  occ. eigenvalues --   -0.70628  -0.70446  -0.69732  -0.69037  -0.68317
 Alpha  occ. eigenvalues --   -0.67066  -0.66624  -0.64422  -0.64237  -0.63822
 Alpha  occ. eigenvalues --   -0.63152  -0.62251  -0.61578  -0.60602  -0.60192
 Alpha  occ. eigenvalues --   -0.60034  -0.59764  -0.58963  -0.58393  -0.58104
 Alpha  occ. eigenvalues --   -0.57604  -0.56786  -0.56637  -0.55773  -0.55604
 Alpha  occ. eigenvalues --   -0.54904  -0.54532  -0.54351  -0.53703  -0.52777
 Alpha  occ. eigenvalues --   -0.52721  -0.52497  -0.52120  -0.51987  -0.51298
 Alpha  occ. eigenvalues --   -0.51096  -0.50877  -0.50832  -0.50162  -0.49561
 Alpha  occ. eigenvalues --   -0.49251  -0.49122  -0.48743  -0.48262  -0.48028
 Alpha  occ. eigenvalues --   -0.47954  -0.47766  -0.47395  -0.47323  -0.47151
 Alpha  occ. eigenvalues --   -0.46837  -0.46735  -0.46586  -0.46296  -0.46085
 Alpha  occ. eigenvalues --   -0.45786  -0.45605  -0.45093  -0.44743  -0.44661
 Alpha  occ. eigenvalues --   -0.44491  -0.44406  -0.44005  -0.43808  -0.43543
 Alpha  occ. eigenvalues --   -0.43412  -0.43305  -0.43076  -0.42919  -0.42570
 Alpha  occ. eigenvalues --   -0.42499  -0.42383  -0.42243  -0.42076  -0.41818
 Alpha  occ. eigenvalues --   -0.41671  -0.41514  -0.41164  -0.41131  -0.40931
 Alpha  occ. eigenvalues --   -0.40790  -0.40554  -0.40445  -0.40322  -0.39766
 Alpha  occ. eigenvalues --   -0.39702  -0.39469  -0.39274  -0.39218  -0.38920
 Alpha  occ. eigenvalues --   -0.38884  -0.38666  -0.38598  -0.38349  -0.37910
 Alpha  occ. eigenvalues --   -0.37832  -0.37749  -0.37538  -0.37390  -0.36798
 Alpha  occ. eigenvalues --   -0.36489  -0.36347  -0.35607  -0.35545  -0.35247
 Alpha  occ. eigenvalues --   -0.34889  -0.34752  -0.34749  -0.34583  -0.34291
 Alpha  occ. eigenvalues --   -0.34045  -0.33791  -0.33723  -0.33648  -0.33441
 Alpha  occ. eigenvalues --   -0.33320  -0.32988  -0.32815  -0.32669  -0.32218
 Alpha  occ. eigenvalues --   -0.31788  -0.31739  -0.31606  -0.31085  -0.30392
 Alpha  occ. eigenvalues --   -0.30249  -0.30109  -0.29867  -0.28928  -0.27302
 Alpha  occ. eigenvalues --   -0.27103  -0.26744  -0.26400  -0.25318  -0.22310
 Alpha  occ. eigenvalues --   -0.19516
 Alpha virt. eigenvalues --   -0.06844  -0.03923  -0.00249   0.02222   0.02494
 Alpha virt. eigenvalues --    0.03312   0.04863   0.05094   0.05449   0.05627
 Alpha virt. eigenvalues --    0.06443   0.08608   0.08706   0.09409   0.09440

 Mulliken charges:
               1
     1  Mg   0.802525
     2  C    0.091936
     3  C   -0.189236
     4  C   -0.206006
     5  C   -0.175848
     6  N   -0.647839
     7  C    0.254700
     8  C   -0.099505
     9  C   -0.184593
    10  C    0.381288
    11  C   -0.279751
    12  C   -0.157727
    13  C   -0.269752
    14  C    0.613332
    15  O   -0.454389
    16  O   -0.489761
    17  N   -0.704226
    18  C    0.315430
    19  C    0.045709
    20  C   -0.008604
    21  C    0.320249
    22  C   -0.390344
    23  C   -0.037486
    24  C   -0.252078
    25  N   -0.688895
    26  C    0.338256
    27  C    0.075774
    28  C    0.011846
    29  C    0.257326
    30  C   -0.379919
    31  C   -0.223373
    32  C   -0.299252
    33  N   -0.730395
    34  C    0.225719
    35  C    0.100170
    36  C   -0.023190
    37  C    0.314838
    38  C   -0.431955
    39  C    0.385124
    40  O   -0.469408
    41  C   -0.301871
    42  C    0.608178
    43  O   -0.512877
    44  O   -0.372659
    45  C   -0.088140
    46  C    0.040050
    47  C   -0.106206
    48  C    0.170581
    49  C   -0.356892
    50  C   -0.248485
    51  C   -0.170092
    52  C   -0.158986
    53  C   -0.061384
    54  C   -0.316556
    55  C   -0.181795
    56  C   -0.178894
    57  C   -0.131351
    58  C   -0.057143
    59  C   -0.312224
    60  C   -0.156416
    61  C   -0.173251
    62  C   -0.170955
    63  C   -0.074699
    64  C   -0.281016
    65  C   -0.306516
    66  H    0.065089
    67  H    0.067522
    68  H    0.084806
    69  H    0.104844
    70  H    0.094254
    71  H    0.108313
    72  H    0.080531
    73  H    0.119780
    74  H    0.102971
    75  H    0.128438
    76  H    0.131496
    77  H    0.141895
    78  H    0.102491
    79  H    0.138222
    80  H    0.125766
    81  H    0.063427
    82  H    0.109212
    83  H    0.092932
    84  H    0.110718
    85  H    0.109596
    86  H    0.122342
    87  H    0.111393
    88  H    0.084840
    89  H    0.102087
    90  H    0.076040
    91  H    0.115503
    92  H    0.129718
    93  H    0.153047
    94  H    0.134742
    95  H    0.161821
    96  H    0.136344
    97  H    0.127098
    98  H    0.117548
    99  H    0.128791
   100  H    0.098162
   101  H    0.042388
   102  H    0.114654
   103  H    0.069429
   104  H    0.122518
   105  H    0.083141
   106  H    0.090991
   107  H    0.074406
   108  H    0.100756
   109  H    0.084802
   110  H    0.089147
   111  H    0.088190
   112  H    0.125812
   113  H    0.109499
   114  H    0.066670
   115  H    0.080406
   116  H    0.107306
   117  H    0.092798
   118  H    0.059305
   119  H    0.080054
   120  H    0.071294
   121  H    0.095945
   122  H    0.099462
   123  H    0.081828
   124  H    0.082692
   125  H    0.070363
   126  H    0.081460
   127  H    0.107791
   128  H    0.069374
   129  H    0.088726
   130  H    0.098686
   131  H    0.081845
   132  H    0.101173
   133  H    0.112597
   134  H    0.058940
   135  H    0.110527
   136  H    0.101955
   137  H    0.080201
 Sum of Mulliken charges =  -0.00000

 Dipole moment (field-independent basis, Debye):
    X=              0.7690    Y=              2.2972    Z=              1.1420  Tot=              2.6782
 Quadrupole moment (field-independent basis, Debye-Ang):
   XX=           -356.1344   YY=           -388.9420   ZZ=           -402.7386
   XY=            -11.4542   XZ=             15.5009   YZ=             -0.4077

 Normal termination of Gaussian 16 at Sat Sep 14 16:10:12 2019.
