 Gaussian 09, Revision D.01,
 Gaussian 09:  ES64L-G09RevD.01 24-Apr-2013

 -------------------------------------
 # td=(NStates=1) CAM-B3LYP/6-31G(d,p)
 -------------------------------------

 --
 TD
 --
 Symbolic Z-matrix:
 Charge =  0 Multiplicity = 1

                         Standard orientation:
 ---------------------------------------------------------------------
 Center     Atomic      Atomic             Coordinates (Angstroms)
 Number     Number       Type             X           Y           Z
 ---------------------------------------------------------------------
      1         12           0       -7.117830    0.542676    0.164850
      2          6           0       -4.833795   -1.869933    0.626466
      3          6           0       -4.750848    2.866028    1.120555
      4          6           0       -9.404104    3.101955   -0.327112
      5          6           0       -9.480825   -1.695539   -0.957561
      6          7           0       -5.016883    0.522475    0.661397
      7          6           0       -4.293601   -0.629943    0.837673
      8          6           0       -2.930352   -0.221436    1.233289
      9          6           0       -2.988874    1.183339    1.719722
     10          6           0       -4.298921    1.590940    1.115414
     11          6           0       -2.991554    1.263320    3.225235
     12          6           0       -1.946411   -0.609124    0.156251
     13          6           0       -0.481267   -0.514021    0.552214
     14          6           0        0.461748   -0.695908   -0.650256
     15          8           0        0.154649   -1.048505   -1.746816
     16          8           0        1.732844   -0.406494   -0.195842
     17          7           0       -7.060646    2.628281    0.310344
     18          6           0       -6.024549    3.388633    0.690319
     19          6           0       -6.391731    4.739779    0.821091
     20          6           0       -7.659703    4.922709    0.314117
     21          6           0       -8.127730    3.508919    0.048056
     22          6           0       -5.277146    5.880903    1.229797
     23          6           0       -8.559112    6.048795    0.170380
     24          6           0       -8.381056    7.222996    0.802078
     25          7           0       -9.059807    0.613989   -0.521374
     26          6           0       -9.837246    1.749449   -0.668230
     27          6           0      -11.183914    1.458624   -1.199254
     28          6           0      -11.209627    0.098335   -1.281375
     29          6           0       -9.936124   -0.410972   -0.961834
     30          6           0      -12.294283    2.380792   -1.527368
     31          6           0      -12.343216   -0.727518   -1.816595
     32          6           0      -12.426403   -1.039210   -3.316659
     33          7           0       -7.223500   -1.453483   -0.104802
     34          6           0       -8.204012   -2.175108   -0.493700
     35          6           0       -7.767077   -3.605131   -0.554075
     36          6           0       -6.451341   -3.569013   -0.132001
     37          6           0       -6.152796   -2.192991    0.187996
     38          6           0       -8.558261   -4.806641   -0.838071
     39          6           0       -5.312547   -4.329765    0.198106
     40          8           0       -5.063784   -5.547358    0.120929
     41          6           0       -4.200564   -3.301861    0.637443
     42          6           0       -3.643159   -3.628312    1.959024
     43          8           0       -3.851254   -3.062210    3.033920
     44          8           0       -2.951204   -4.834931    1.866539
     45          6           0       -2.409631   -5.233485    3.124195
     46          6           0        2.873950   -0.787436   -1.175696
     47          6           0        4.219079   -0.483720   -0.597475
     48          6           0        5.149855    0.348878   -1.025290
     49          6           0        5.045282    1.151111   -2.303200
     50          6           0        6.345996    0.368431   -0.201980
     51          6           0        7.618258   -0.276442   -0.987535
     52          6           0        8.923197   -0.173639   -0.169913
     53          6           0       10.217146   -0.586589   -0.921581
     54          6           0       10.115863   -2.161192   -1.240840
     55          6           0       11.442422   -0.314599   -0.002339
     56          6           0       12.797598   -0.403268   -0.754263
     57          6           0       13.987131   -0.165982    0.121414
     58          6           0       15.269217   -0.156552   -0.596266
     59          6           0       15.644450   -1.584240   -0.838388
     60          6           0       16.354215    0.558545    0.267099
     61          6           0       17.747302    0.524565   -0.239393
     62          6           0       18.711093    1.262398    0.809983
     63          6           0       20.204688    1.338413    0.239539
     64          6           0       20.432195    2.212934   -0.950961
     65          6           0       21.041220    1.799525    1.379248
     66          1           0       -4.024466    3.562018    1.452565
     67          1           0      -10.092271    3.951970   -0.439151
     68          1           0      -10.332813   -2.497921   -1.423015
     69          1           0       -2.611940   -0.951191    2.072928
     70          1           0       -2.016247    1.778460    1.371830
     71          1           0       -1.967903    0.893621    3.511246
     72          1           0       -3.065310    2.345882    3.507475
     73          1           0       -3.757784    0.691427    3.585418
     74          1           0       -2.241833   -1.841620   -0.447000
     75          1           0       -2.039928   -0.023693   -0.767532
     76          1           0       -0.050810    0.485646    0.893674
     77          1           0       -0.341488   -1.276257    1.305248
     78          1           0       -5.600171    6.768375    1.022485
     79          1           0       -5.101931    5.962722    2.338013
     80          1           0       -4.254796    5.768066    0.855337
     81          1           0       -9.030599    5.930749   -0.838661
     82          1           0       -9.080705    7.895910    0.297207
     83          1           0       -7.760553    7.437911    1.714386
     84          1           0      -12.264361    2.940567   -2.495466
     85          1           0      -13.310917    1.846746   -1.560051
     86          1           0      -12.306004    3.297418   -0.698475
     87          1           0      -12.136823   -1.712121   -1.281192
     88          1           0      -13.028327   -0.202502   -1.359996
     89          1           0      -13.442734   -1.563496   -3.438536
     90          1           0      -12.502035   -0.246976   -3.928729
     91          1           0      -11.637749   -1.629837   -3.633318
     92          1           0       -8.799174   -4.604819   -1.868082
     93          1           0       -8.044525   -5.780458   -0.632070
     94          1           0       -9.568494   -4.880678   -0.305383
     95          1           0       -3.389166   -3.580660   -0.080097
     96          1           0       -2.045355   -4.327436    3.557148
     97          1           0       -3.208521   -5.654507    3.646759
     98          1           0       -1.752710   -5.842138    2.861181
     99          1           0        2.516020   -1.775504   -1.463330
    100          1           0        2.777062   -0.340387   -2.203349
    101          1           0        4.310593   -0.867551    0.467741
    102          1           0        4.142600    0.943212   -2.647575
    103          1           0        5.451294    2.284836   -1.932443
    104          1           0        5.937998    0.839857   -2.992994
    105          1           0        6.831805    1.396065   -0.346297
    106          1           0        6.271145    0.033734    0.947991
    107          1           0        7.382322   -1.423330   -1.161062
    108          1           0        7.738506    0.349990   -1.884539
    109          1           0        9.027947    0.988442    0.105051
    110          1           0        9.072757   -0.663773    0.943935
    111          1           0       10.086438    0.026073   -1.952896
    112          1           0        9.294583   -2.499193   -1.913618
    113          1           0       11.281387   -2.427159   -1.634361
    114          1           0        9.924058   -2.679067   -0.330897
    115          1           0       11.530012    0.589704    0.370441
    116          1           0       11.505418   -1.006223    0.868710
    117          1           0       12.875055   -1.305211   -1.029463
    118          1           0       12.842722    0.088812   -1.800689
    119          1           0       13.701085    0.973622    0.449114
    120          1           0       13.723537   -0.699663    1.063578
    121          1           0       15.125808    0.299681   -1.639016
    122          1           0       15.815863   -2.301306    0.050076
    123          1           0       14.955772   -2.148164   -1.581289
    124          1           0       16.508200   -1.548583   -1.531046
    125          1           0       16.055756    1.638858    0.489705
    126          1           0       16.111534    0.184683    1.380945
    127          1           0       18.278052   -0.395088   -0.355131
    128          1           0       17.697246    1.176553   -1.250229
    129          1           0       18.475155    2.270608    0.988395
    130          1           0       18.702817    0.371680    1.588858
    131          1           0       20.377352    0.188695   -0.212699
    132          1           0       20.045875    3.161868   -1.063346
    133          1           0       21.512839    2.277803   -1.216126
    134          1           0       19.818564    1.885650   -1.898350
    135          1           0       20.882889    1.159520    2.373351
    136          1           0       22.099655    1.908653    1.294953
    137          1           0       20.789793    2.881004    1.689801
 ---------------------------------------------------------------------

 SCF Done:  E(RCAM-B3LYP) =  -2932.61176662     A.U. after   18 cycles

 Excitation energies and oscillator strengths:

 Excited State   1:      Singlet-A      2.0536 eV  603.75 nm  f=0.3005  <S**2>=0.000
     240 -> 242       -0.12941
     240 -> 243       -0.21363
     241 -> 242        0.65074
 This state for optimization and/or second-order correction.
 Total Energy, E(TD-HF/TD-KS) =  -2932.53629926
 Copying the excited state density for this state as the 1-particle RhoCI density.

 The electronic state is 1-A.
 Alpha  occ. eigenvalues --  -46.84961 -19.25347 -19.24181 -19.21277 -19.20458
 Alpha  occ. eigenvalues --  -19.19112 -14.40958 -14.39854 -14.39586 -14.39271
 Alpha  occ. eigenvalues --  -10.38797 -10.38232 -10.34248 -10.32319 -10.30243
 Alpha  occ. eigenvalues --  -10.30073 -10.29938 -10.29826 -10.29769 -10.29166
 Alpha  occ. eigenvalues --  -10.29105 -10.28807 -10.28410 -10.28260 -10.28090
 Alpha  occ. eigenvalues --  -10.28052 -10.28052 -10.28045 -10.27985 -10.27910
 Alpha  occ. eigenvalues --  -10.27883 -10.27797 -10.27752 -10.27742 -10.27714
 Alpha  occ. eigenvalues --  -10.27707 -10.27582 -10.27551 -10.27525 -10.27485
 Alpha  occ. eigenvalues --  -10.27404 -10.27139 -10.26822 -10.26820 -10.26501
 Alpha  occ. eigenvalues --  -10.26365 -10.26267 -10.26206 -10.26201 -10.26038
 Alpha  occ. eigenvalues --  -10.25982 -10.25961 -10.25959 -10.25633 -10.25488
 Alpha  occ. eigenvalues --  -10.25358 -10.25330 -10.25324 -10.25310 -10.24757
 Alpha  occ. eigenvalues --  -10.24755 -10.24618 -10.24528 -10.24443 -10.23047
 Alpha  occ. eigenvalues --   -3.13863  -1.88580  -1.88112  -1.88022  -1.16350
 Alpha  occ. eigenvalues --   -1.15902  -1.08489  -1.08460  -1.07525  -1.06102
 Alpha  occ. eigenvalues --   -1.04275  -1.03189  -1.01984  -0.92314  -0.92274
 Alpha  occ. eigenvalues --   -0.91474  -0.90137  -0.89617  -0.89329  -0.89253
 Alpha  occ. eigenvalues --   -0.88325  -0.88273  -0.87528  -0.86997  -0.85818
 Alpha  occ. eigenvalues --   -0.85267  -0.84262  -0.83595  -0.83068  -0.82846
 Alpha  occ. eigenvalues --   -0.81742  -0.81293  -0.80450  -0.79897  -0.78568
 Alpha  occ. eigenvalues --   -0.78222  -0.77767  -0.76457  -0.76305  -0.75998
 Alpha  occ. eigenvalues --   -0.75201  -0.74811  -0.74219  -0.72833  -0.72603
 Alpha  occ. eigenvalues --   -0.72307  -0.70922  -0.69910  -0.69433  -0.68811
 Alpha  occ. eigenvalues --   -0.67932  -0.66097  -0.65158  -0.65045  -0.64221
 Alpha  occ. eigenvalues --   -0.63353  -0.62701  -0.62283  -0.61859  -0.61367
 Alpha  occ. eigenvalues --   -0.61281  -0.60260  -0.60108  -0.59386  -0.58850
 Alpha  occ. eigenvalues --   -0.58354  -0.58042  -0.57628  -0.56591  -0.56149
 Alpha  occ. eigenvalues --   -0.55912  -0.55609  -0.55430  -0.55118  -0.54581
 Alpha  occ. eigenvalues --   -0.54401  -0.54272  -0.53712  -0.53327  -0.53203
 Alpha  occ. eigenvalues --   -0.52843  -0.52384  -0.52331  -0.52185  -0.51528
 Alpha  occ. eigenvalues --   -0.51325  -0.51178  -0.50830  -0.50439  -0.50269
 Alpha  occ. eigenvalues --   -0.50207  -0.49889  -0.49782  -0.49568  -0.49382
 Alpha  occ. eigenvalues --   -0.48995  -0.48865  -0.48639  -0.48512  -0.48298
 Alpha  occ. eigenvalues --   -0.48137  -0.47990  -0.47885  -0.47738  -0.47476
 Alpha  occ. eigenvalues --   -0.47131  -0.46980  -0.46948  -0.46396  -0.45853
 Alpha  occ. eigenvalues --   -0.45711  -0.45601  -0.45224  -0.44932  -0.44821
 Alpha  occ. eigenvalues --   -0.44776  -0.44387  -0.44108  -0.43971  -0.43839
 Alpha  occ. eigenvalues --   -0.43537  -0.43454  -0.43319  -0.43189  -0.43016
 Alpha  occ. eigenvalues --   -0.42895  -0.42671  -0.42553  -0.42417  -0.41973
 Alpha  occ. eigenvalues --   -0.41893  -0.41640  -0.41578  -0.41471  -0.41220
 Alpha  occ. eigenvalues --   -0.40932  -0.40914  -0.40616  -0.40450  -0.40391
 Alpha  occ. eigenvalues --   -0.40275  -0.40167  -0.39830  -0.39497  -0.39224
 Alpha  occ. eigenvalues --   -0.39176  -0.38721  -0.38487  -0.37938  -0.37789
 Alpha  occ. eigenvalues --   -0.37308  -0.37206  -0.36848  -0.36727  -0.36548
 Alpha  occ. eigenvalues --   -0.36206  -0.36075  -0.35499  -0.35446  -0.35055
 Alpha  occ. eigenvalues --   -0.34841  -0.34619  -0.34046  -0.33814  -0.33476
 Alpha  occ. eigenvalues --   -0.33267  -0.32955  -0.32031  -0.31066  -0.29653
 Alpha  occ. eigenvalues --   -0.29401  -0.29340  -0.28615  -0.28168  -0.23226
 Alpha  occ. eigenvalues --   -0.20854
 Alpha virt. eigenvalues --   -0.06414  -0.02889   0.01529   0.03515   0.04588
 Alpha virt. eigenvalues --    0.05457   0.05934   0.06846   0.07272   0.07563
 Alpha virt. eigenvalues --    0.08772   0.10092   0.10519   0.10784   0.11088

 Mulliken charges:
               1
     1  Mg   0.827765
     2  C    0.089244
     3  C   -0.202725
     4  C   -0.188470
     5  C   -0.203918
     6  N   -0.665090
     7  C    0.332179
     8  C   -0.153812
     9  C   -0.154477
    10  C    0.363534
    11  C   -0.282792
    12  C   -0.160981
    13  C   -0.261137
    14  C    0.611162
    15  O   -0.456078
    16  O   -0.514906
    17  N   -0.693849
    18  C    0.337543
    19  C   -0.016236
    20  C    0.018105
    21  C    0.278337
    22  C   -0.360044
    23  C   -0.098464
    24  C   -0.228779
    25  N   -0.689066
    26  C    0.282630
    27  C    0.065224
    28  C   -0.005940
    29  C    0.315814
    30  C   -0.387505
    31  C   -0.203120
    32  C   -0.300527
    33  N   -0.715125
    34  C    0.283802
    35  C   -0.010429
    36  C    0.064868
    37  C    0.239582
    38  C   -0.376860
    39  C    0.340583
    40  O   -0.481976
    41  C   -0.338368
    42  C    0.633220
    43  O   -0.492321
    44  O   -0.477131
    45  C   -0.055349
    46  C   -0.008056
    47  C   -0.138050
    48  C    0.160111
    49  C   -0.327118
    50  C   -0.231374
    51  C   -0.183759
    52  C   -0.154389
    53  C   -0.051383
    54  C   -0.304015
    55  C   -0.180222
    56  C   -0.177508
    57  C   -0.165582
    58  C   -0.050679
    59  C   -0.308980
    60  C   -0.154878
    61  C   -0.177688
    62  C   -0.171566
    63  C   -0.034761
    64  C   -0.312758
    65  C   -0.300073
    66  H    0.070297
    67  H    0.087167
    68  H    0.086569
    69  H    0.112939
    70  H    0.094397
    71  H    0.105423
    72  H    0.102569
    73  H    0.137801
    74  H    0.066528
    75  H    0.119218
    76  H    0.131759
    77  H    0.140866
    78  H    0.118985
    79  H    0.107786
    80  H    0.122875
    81  H    0.111810
    82  H    0.105634
    83  H    0.126028
    84  H    0.128336
    85  H    0.113319
    86  H    0.095360
    87  H    0.089764
    88  H    0.109288
    89  H    0.096842
    90  H    0.120699
    91  H    0.119330
    92  H    0.131823
    93  H    0.149247
    94  H    0.118920
    95  H    0.167594
    96  H    0.122883
    97  H    0.129080
    98  H    0.118131
    99  H    0.133774
   100  H    0.113526
   101  H    0.087184
   102  H    0.120874
   103  H    0.101432
   104  H    0.116477
   105  H    0.082619
   106  H    0.105982
   107  H    0.091958
   108  H    0.103812
   109  H    0.064668
   110  H    0.068084
   111  H    0.067461
   112  H    0.106525
   113  H    0.075684
   114  H    0.110338
   115  H    0.107172
   116  H    0.089619
   117  H    0.106950
   118  H    0.072045
   119  H    0.045931
   120  H    0.095040
   121  H    0.086761
   122  H    0.099771
   123  H    0.090453
   124  H    0.099693
   125  H    0.089073
   126  H    0.069058
   127  H    0.106149
   128  H    0.071978
   129  H    0.102035
   130  H    0.094460
   131  H    0.056946
   132  H    0.110473
   133  H    0.104301
   134  H    0.078222
   135  H    0.082408
   136  H    0.105083
   137  H    0.091325
 Sum of Mulliken charges =   0.00000

 Dipole moment (field-independent basis, Debye):
    X=              1.5675    Y=              6.0503    Z=             -0.3527  Tot=              6.2600
 Quadrupole moment (field-independent basis, Debye-Ang):
   XX=           -324.0597   YY=           -394.1265   ZZ=           -396.5440
   XY=            -23.8856   XZ=             12.9833   YZ=             -1.8110

 Normal termination of Gaussian 09 at Wed Jul  3 03:20:38 2019.
