 Gaussian 16, Revision A.03,
 Gaussian 16:  ES64L-G16RevA.03 25-Dec-2016

 -------------------------------------
 # td=(NStates=1) CAM-B3LYP/6-31G(d,p)
 -------------------------------------

 --
 TD
 --
 Symbolic Z-matrix:
 Charge =  0 Multiplicity = 1

                         Standard orientation:
 ---------------------------------------------------------------------
 Center     Atomic      Atomic             Coordinates (Angstroms)
 Number     Number       Type             X           Y           Z
 ---------------------------------------------------------------------
      1         12           0       -7.122061    0.604212    0.118224
      2          6           0       -4.850117   -1.909021    0.452986
      3          6           0       -4.737936    2.864082    1.007497
      4          6           0       -9.395343    3.191155   -0.358424
      5          6           0       -9.584012   -1.685747   -0.867129
      6          7           0       -5.017692    0.499096    0.595868
      7          6           0       -4.371260   -0.688727    0.760708
      8          6           0       -2.930373   -0.396217    1.156801
      9          6           0       -2.984512    1.102588    1.581949
     10          6           0       -4.257388    1.436264    1.007818
     11          6           0       -2.899533    1.348885    3.100036
     12          6           0       -1.970329   -0.648736    0.031354
     13          6           0       -0.438869   -0.697103    0.509252
     14          6           0        0.554926   -0.734511   -0.691729
     15          8           0        0.285322   -1.135213   -1.770820
     16          8           0        1.822464   -0.418215   -0.251522
     17          7           0       -7.038189    2.590154    0.326211
     18          6           0       -6.051627    3.337018    0.733666
     19          6           0       -6.407461    4.714121    0.747482
     20          6           0       -7.699594    4.861415    0.324791
     21          6           0       -8.101931    3.438233    0.129455
     22          6           0       -5.479722    5.834133    1.129836
     23          6           0       -8.620521    6.058605    0.337496
     24          6           0       -8.446906    7.131784    1.116941
     25          7           0       -9.105086    0.698479   -0.465545
     26          6           0       -9.845770    1.781956   -0.662576
     27          6           0      -11.192338    1.497616   -1.150503
     28          6           0      -11.261286    0.097687   -1.256393
     29          6           0      -10.005869   -0.388448   -0.804854
     30          6           0      -12.284066    2.435563   -1.455145
     31          6           0      -12.390440   -0.692649   -1.632188
     32          6           0      -12.438724   -0.987199   -3.160577
     33          7           0       -7.240266   -1.410997   -0.188342
     34          6           0       -8.244109   -2.208939   -0.502256
     35          6           0       -7.827649   -3.626464   -0.412362
     36          6           0       -6.500740   -3.593955   -0.042991
     37          6           0       -6.185493   -2.214195    0.100507
     38          6           0       -8.633032   -4.827187   -0.783379
     39          6           0       -5.301589   -4.443949    0.149841
     40          8           0       -5.099401   -5.583486    0.242186
     41          6           0       -4.111987   -3.269242    0.451428
     42          6           0       -3.551484   -3.725979    1.856009
     43          8           0       -3.623769   -3.171648    2.931746
     44          8           0       -2.703662   -4.763498    1.677818
     45          6           0       -2.218868   -5.376034    2.914206
     46          6           0        2.804539   -0.544812   -1.269018
     47          6           0        4.149344   -0.340029   -0.568305
     48          6           0        5.147576    0.423842   -0.999059
     49          6           0        5.049424    1.269929   -2.234085
     50          6           0        6.390728    0.527979   -0.214575
     51          6           0        7.660824   -0.027153   -0.909320
     52          6           0        8.905311    0.038437   -0.100790
     53          6           0       10.117972   -0.573368   -0.809387
     54          6           0       10.124196   -2.145001   -1.027076
     55          6           0       11.420518   -0.291595   -0.051040
     56          6           0       12.787241   -0.509915   -0.691883
     57          6           0       13.903789   -0.127453    0.134791
     58          6           0       15.299615   -0.286861   -0.444299
     59          6           0       15.642768   -1.694443   -0.692252
     60          6           0       16.402610    0.350055    0.425500
     61          6           0       17.738378    0.604057   -0.202675
     62          6           0       18.789651    1.325041    0.657898
     63          6           0       20.231773    1.354837    0.179611
     64          6           0       20.233238    2.198026   -1.058161
     65          6           0       21.104133    1.885530    1.389641
     66          1           0       -4.023229    3.541388    1.424168
     67          1           0      -10.053846    3.995405   -0.555374
     68          1           0      -10.313033   -2.314155   -1.278150
     69          1           0       -2.741767   -0.885708    2.059557
     70          1           0       -2.437626    1.643276    0.908249
     71          1           0       -1.948112    1.128225    3.321043
     72          1           0       -2.931340    2.456545    3.097787
     73          1           0       -3.560462    0.839572    3.717994
     74          1           0       -2.077247   -1.514178   -0.442640
     75          1           0       -1.974607    0.104465   -0.660968
     76          1           0       -0.234526    0.157888    1.222526
     77          1           0       -0.328257   -1.491256    1.206999
     78          1           0       -6.005308    6.771840    0.623745
     79          1           0       -5.547594    5.878179    2.189812
     80          1           0       -4.432075    5.584289    0.687165
     81          1           0       -9.307460    5.946526   -0.277903
     82          1           0       -9.116198    7.933558    1.072642
     83          1           0       -7.607371    7.190499    1.848925
     84          1           0      -12.066510    2.987975   -2.585705
     85          1           0      -13.141154    1.951730   -1.375459
     86          1           0      -12.073441    3.197042   -0.652574
     87          1           0      -12.192330   -1.732078   -1.184713
     88          1           0      -13.297897   -0.175218   -1.337764
     89          1           0      -13.303953   -1.646589   -3.522571
     90          1           0      -12.412261   -0.043944   -3.788053
     91          1           0      -11.594337   -1.515155   -3.434859
     92          1           0       -9.090460   -4.734658   -1.783256
     93          1           0       -8.023198   -5.752605   -0.678342
     94          1           0       -9.538265   -4.846006   -0.139882
     95          1           0       -3.475194   -3.624705   -0.355823
     96          1           0       -1.987375   -4.651437    3.693641
     97          1           0       -2.978327   -6.001315    3.604431
     98          1           0       -1.449954   -6.066082    2.667666
     99          1           0        2.813642   -1.557007   -1.832828
    100          1           0        2.481849    0.034976   -2.117645
    101          1           0        4.293961   -0.914548    0.285399
    102          1           0        4.037627    1.135515   -3.015004
    103          1           0        5.164174    2.235325   -2.106649
    104          1           0        5.890448    1.046788   -2.929045
    105          1           0        6.458337    1.617273    0.065121
    106          1           0        6.175453   -0.132237    0.713329
    107          1           0        7.460437   -1.105514   -0.933081
    108          1           0        7.784740    0.748461   -1.845381
    109          1           0        9.187829    1.070253    0.094114
    110          1           0        8.606739   -0.344583    0.821680
    111          1           0       10.108957   -0.194792   -1.850501
    112          1           0        9.410826   -2.505340   -1.696498
    113          1           0       11.159551   -2.227537   -1.445904
    114          1           0       10.130347   -2.727338   -0.148150
    115          1           0       11.476886    0.828910    0.188341
    116          1           0       11.530650   -0.984602    0.836590
    117          1           0       12.719846   -1.471774   -0.927766
    118          1           0       12.606797    0.030808   -1.573298
    119          1           0       13.687936    1.031206    0.133561
    120          1           0       14.003964   -0.581957    1.033255
    121          1           0       15.340522    0.188456   -1.540648
    122          1           0       15.617131   -2.362946    0.195067
    123          1           0       14.931356   -1.971621   -1.469420
    124          1           0       16.707265   -1.834077   -1.237977
    125          1           0       15.932498    1.397685    0.917999
    126          1           0       16.417919   -0.209345    1.382209
    127          1           0       18.213775   -0.588004   -0.539415
    128          1           0       17.671520    0.927293   -1.278549
    129          1           0       18.356753    2.267104    0.719320
    130          1           0       18.909226    0.859159    1.613886
    131          1           0       20.627865    0.338350   -0.072909
    132          1           0       19.743852    3.161750   -0.980761
    133          1           0       21.202059    2.513980   -1.548360
    134          1           0       19.774344    1.834671   -2.047867
    135          1           0       21.195282    1.059426    2.118245
    136          1           0       22.145387    2.215523    1.014561
    137          1           0       20.686639    2.822374    1.770956
 ---------------------------------------------------------------------

 SCF Done:  E(RCAM-B3LYP) =  -2932.72207415     A.U. after   17 cycles

 Excitation energies and oscillator strengths:

 Excited State   1:      Singlet-A      2.2787 eV  544.11 nm  f=0.1752  <S**2>=0.000
     240 -> 242       -0.23052
     240 -> 243        0.23157
     241 -> 242        0.58623
     241 -> 243        0.20350
 This state for optimization and/or second-order correction.
 Total Energy, E(TD-HF/TD-DFT) =  -2932.63833457
 Copying the excited state density for this state as the 1-particle RhoCI density.

 The electronic state is 1-A.
 Alpha  occ. eigenvalues --  -46.84921 -19.26013 -19.25717 -19.21957 -19.21431
 Alpha  occ. eigenvalues --  -19.20236 -14.41547 -14.39568 -14.39362 -14.39299
 Alpha  occ. eigenvalues --  -10.39470 -10.38837 -10.35436 -10.31406 -10.31054
 Alpha  occ. eigenvalues --  -10.30971 -10.30207 -10.30041 -10.29713 -10.29018
 Alpha  occ. eigenvalues --  -10.28466 -10.28310 -10.28151 -10.27776 -10.27593
 Alpha  occ. eigenvalues --  -10.27341 -10.27031 -10.26990 -10.26967 -10.26937
 Alpha  occ. eigenvalues --  -10.26901 -10.26900 -10.26822 -10.26804 -10.26757
 Alpha  occ. eigenvalues --  -10.26639 -10.26589 -10.26578 -10.26568 -10.26535
 Alpha  occ. eigenvalues --  -10.26437 -10.26362 -10.26316 -10.26200 -10.26064
 Alpha  occ. eigenvalues --  -10.26047 -10.25915 -10.25836 -10.25808 -10.25673
 Alpha  occ. eigenvalues --  -10.25546 -10.25517 -10.25417 -10.25303 -10.25301
 Alpha  occ. eigenvalues --  -10.25032 -10.24669 -10.24667 -10.24646 -10.24540
 Alpha  occ. eigenvalues --  -10.24329 -10.24099 -10.24046 -10.23843 -10.22734
 Alpha  occ. eigenvalues --   -3.13923  -1.88633  -1.88177  -1.88085  -1.18584
 Alpha  occ. eigenvalues --   -1.17223  -1.14630  -1.10796  -1.07836  -1.06969
 Alpha  occ. eigenvalues --   -1.05255  -1.04159  -1.02262  -0.92153  -0.91405
 Alpha  occ. eigenvalues --   -0.91378  -0.90826  -0.90134  -0.89837  -0.89827
 Alpha  occ. eigenvalues --   -0.88924  -0.87764  -0.87387  -0.86305  -0.86227
 Alpha  occ. eigenvalues --   -0.85728  -0.84166  -0.83512  -0.83213  -0.82557
 Alpha  occ. eigenvalues --   -0.81472  -0.80694  -0.80283  -0.79769  -0.78463
 Alpha  occ. eigenvalues --   -0.77644  -0.76968  -0.76932  -0.75827  -0.75822
 Alpha  occ. eigenvalues --   -0.75138  -0.75001  -0.74516  -0.74136  -0.72172
 Alpha  occ. eigenvalues --   -0.71757  -0.70822  -0.70195  -0.69263  -0.69079
 Alpha  occ. eigenvalues --   -0.67399  -0.66930  -0.66178  -0.64607  -0.64342
 Alpha  occ. eigenvalues --   -0.64041  -0.63791  -0.63274  -0.63075  -0.62142
 Alpha  occ. eigenvalues --   -0.61542  -0.61344  -0.60261  -0.59871  -0.59183
 Alpha  occ. eigenvalues --   -0.58635  -0.58130  -0.57347  -0.57156  -0.56961
 Alpha  occ. eigenvalues --   -0.56555  -0.55817  -0.55514  -0.55338  -0.54772
 Alpha  occ. eigenvalues --   -0.54198  -0.54033  -0.53917  -0.53664  -0.53321
 Alpha  occ. eigenvalues --   -0.53235  -0.52866  -0.52692  -0.52386  -0.52185
 Alpha  occ. eigenvalues --   -0.51981  -0.51358  -0.50993  -0.50825  -0.50670
 Alpha  occ. eigenvalues --   -0.50419  -0.50196  -0.50045  -0.49837  -0.49648
 Alpha  occ. eigenvalues --   -0.49550  -0.49323  -0.49263  -0.49031  -0.48664
 Alpha  occ. eigenvalues --   -0.48429  -0.48236  -0.48001  -0.47929  -0.47611
 Alpha  occ. eigenvalues --   -0.47520  -0.47204  -0.46917  -0.46403  -0.46373
 Alpha  occ. eigenvalues --   -0.46065  -0.45816  -0.45751  -0.45584  -0.45364
 Alpha  occ. eigenvalues --   -0.45150  -0.44974  -0.44845  -0.44772  -0.44499
 Alpha  occ. eigenvalues --   -0.44470  -0.44304  -0.44018  -0.43721  -0.43309
 Alpha  occ. eigenvalues --   -0.43061  -0.42889  -0.42800  -0.42644  -0.42471
 Alpha  occ. eigenvalues --   -0.42367  -0.42150  -0.42130  -0.41810  -0.41610
 Alpha  occ. eigenvalues --   -0.41514  -0.41427  -0.41132  -0.40775  -0.40760
 Alpha  occ. eigenvalues --   -0.40392  -0.40283  -0.40111  -0.39558  -0.39343
 Alpha  occ. eigenvalues --   -0.38864  -0.38653  -0.38456  -0.37924  -0.37583
 Alpha  occ. eigenvalues --   -0.37372  -0.37195  -0.37177  -0.37004  -0.36877
 Alpha  occ. eigenvalues --   -0.36446  -0.36279  -0.36102  -0.35798  -0.35642
 Alpha  occ. eigenvalues --   -0.34816  -0.34677  -0.34564  -0.34328  -0.33606
 Alpha  occ. eigenvalues --   -0.33281  -0.32981  -0.31714  -0.30880  -0.29424
 Alpha  occ. eigenvalues --   -0.29407  -0.29096  -0.28656  -0.27553  -0.22616
 Alpha  occ. eigenvalues --   -0.20896
 Alpha virt. eigenvalues --   -0.05190  -0.02596   0.02069   0.04279   0.05706
 Alpha virt. eigenvalues --    0.06354   0.06493   0.06701   0.07348   0.07440
 Alpha virt. eigenvalues --    0.09238   0.10335   0.11144   0.11381   0.11569

 Mulliken charges:
               1
     1  Mg   0.828959
     2  C    0.089198
     3  C   -0.243211
     4  C   -0.199070
     5  C   -0.166182
     6  N   -0.590147
     7  C    0.254657
     8  C   -0.170852
     9  C   -0.162081
    10  C    0.330725
    11  C   -0.296315
    12  C   -0.150794
    13  C   -0.297899
    14  C    0.609968
    15  O   -0.439973
    16  O   -0.475557
    17  N   -0.722970
    18  C    0.393030
    19  C   -0.034835
    20  C   -0.008299
    21  C    0.302432
    22  C   -0.367819
    23  C    0.004440
    24  C   -0.246925
    25  N   -0.684353
    26  C    0.325631
    27  C   -0.019920
    28  C    0.093202
    29  C    0.256678
    30  C   -0.333864
    31  C   -0.266286
    32  C   -0.311220
    33  N   -0.687577
    34  C    0.251331
    35  C   -0.017601
    36  C    0.033070
    37  C    0.237909
    38  C   -0.380660
    39  C    0.338557
    40  O   -0.398268
    41  C   -0.357734
    42  C    0.629740
    43  O   -0.484507
    44  O   -0.446347
    45  C   -0.091782
    46  C    0.011468
    47  C   -0.143053
    48  C    0.163093
    49  C   -0.362152
    50  C   -0.247808
    51  C   -0.166445
    52  C   -0.154963
    53  C   -0.059339
    54  C   -0.327746
    55  C   -0.185776
    56  C   -0.186042
    57  C   -0.135890
    58  C   -0.068588
    59  C   -0.293251
    60  C   -0.144037
    61  C   -0.164268
    62  C   -0.152071
    63  C   -0.053608
    64  C   -0.321562
    65  C   -0.316071
    66  H    0.063508
    67  H    0.084019
    68  H    0.081480
    69  H    0.126326
    70  H    0.122635
    71  H    0.126756
    72  H    0.109205
    73  H    0.139615
    74  H    0.133283
    75  H    0.111742
    76  H    0.112759
    77  H    0.147667
    78  H    0.111422
    79  H    0.134903
    80  H    0.111898
    81  H    0.071575
    82  H    0.109737
    83  H    0.111560
    84  H    0.092579
    85  H    0.118018
    86  H    0.114873
    87  H    0.102002
    88  H    0.111078
    89  H    0.096864
    90  H    0.104376
    91  H    0.121133
    92  H    0.120185
    93  H    0.137175
    94  H    0.118813
    95  H    0.166771
    96  H    0.142119
    97  H    0.100594
    98  H    0.128021
    99  H    0.111300
   100  H    0.119915
   101  H    0.089561
   102  H    0.077399
   103  H    0.130246
   104  H    0.114310
   105  H    0.098157
   106  H    0.084214
   107  H    0.107909
   108  H    0.075428
   109  H    0.086637
   110  H    0.094477
   111  H    0.083535
   112  H    0.106897
   113  H    0.096750
   114  H    0.108238
   115  H    0.069112
   116  H    0.083217
   117  H    0.101183
   118  H    0.096795
   119  H    0.079291
   120  H    0.094120
   121  H    0.059562
   122  H    0.093698
   123  H    0.104977
   124  H    0.086483
   125  H    0.044913
   126  H    0.090326
   127  H    0.024734
   128  H    0.102459
   129  H    0.106741
   130  H    0.091026
   131  H    0.091108
   132  H    0.102016
   133  H    0.084140
   134  H    0.095865
   135  H    0.109716
   136  H    0.091804
   137  H    0.108676
 Sum of Mulliken charges =  -0.00000

 Dipole moment (field-independent basis, Debye):
    X=              0.4706    Y=              4.9580    Z=              0.4931  Tot=              5.0046
 Quadrupole moment (field-independent basis, Debye-Ang):
   XX=           -343.4401   YY=           -391.5459   ZZ=           -394.4134
   XY=            -24.5478   XZ=             10.2588   YZ=             -1.0357

 Normal termination of Gaussian 16 at Sun Jun 30 09:51:54 2019.
