 Gaussian 16, Revision A.03,
 Gaussian 16:  ES64L-G16RevA.03 25-Dec-2016

 ----------------------------------------------------------------------
 # td=(NStates=1) iop(3/107=0140000000,3/108=0140000000) CAM-B3LYP/6-31
 G(d,p)
 ----------------------------------------------------------------------

 --
 TD
 --
 Symbolic Z-matrix:
 Charge =  0 Multiplicity = 1

                         Standard orientation:
 ---------------------------------------------------------------------
 Center     Atomic      Atomic             Coordinates (Angstroms)
 Number     Number       Type             X           Y           Z
 ---------------------------------------------------------------------
      1         12           0       -7.193264    0.553704    0.121667
      2          6           0       -4.872881   -2.001803    0.454697
      3          6           0       -4.812944    2.877711    1.212271
      4          6           0       -9.468926    3.112874   -0.351740
      5          6           0       -9.578019   -1.740180   -0.859346
      6          7           0       -5.123159    0.359992    0.722697
      7          6           0       -4.364457   -0.682188    0.817979
      8          6           0       -2.911494   -0.344551    1.225304
      9          6           0       -3.058969    1.047976    1.710454
     10          6           0       -4.449339    1.469926    1.163391
     11          6           0       -3.065048    1.146642    3.213411
     12          6           0       -1.917346   -0.445371   -0.029744
     13          6           0       -0.418174   -0.409604    0.473097
     14          6           0        0.509746   -0.615707   -0.601658
     15          8           0        0.280537   -1.038702   -1.729227
     16          8           0        1.840332   -0.476566   -0.149100
     17          7           0       -7.130674    2.626371    0.323457
     18          6           0       -6.008848    3.380251    0.756522
     19          6           0       -6.398546    4.747656    0.763670
     20          6           0       -7.751344    4.857581    0.363992
     21          6           0       -8.160974    3.466733   -0.014472
     22          6           0       -5.492508    5.861657    1.166775
     23          6           0       -8.554998    5.980860    0.102611
     24          6           0       -8.427355    7.196902    0.625032
     25          7           0       -9.138007    0.711625   -0.479030
     26          6           0       -9.926210    1.758800   -0.677286
     27          6           0      -11.260966    1.436189   -1.073160
     28          6           0      -11.314921    0.035036   -1.161736
     29          6           0      -10.011548   -0.376804   -0.800115
     30          6           0      -12.333479    2.518664   -1.377529
     31          6           0      -12.495556   -0.748398   -1.648619
     32          6           0      -12.312558   -1.049022   -3.196982
     33          7           0       -7.146903   -1.466948   -0.262152
     34          6           0       -8.254773   -2.206879   -0.688146
     35          6           0       -7.829801   -3.611289   -0.579614
     36          6           0       -6.523116   -3.647902   -0.034669
     37          6           0       -6.140806   -2.171993    0.043075
     38          6           0       -8.597420   -4.867798   -0.904447
     39          6           0       -5.351271   -4.346920    0.209100
     40          8           0       -5.097821   -5.579009    0.211682
     41          6           0       -4.101947   -3.347329    0.505580
     42          6           0       -3.523540   -3.608914    1.855722
     43          8           0       -3.808039   -3.004311    2.916635
     44          8           0       -2.757871   -4.703197    1.875041
     45          6           0       -2.154341   -5.206395    3.025531
     46          6           0        2.844357   -0.735864   -1.243838
     47          6           0        4.164289   -0.510227   -0.511809
     48          6           0        5.102816    0.261017   -0.958042
     49          6           0        5.055205    1.265628   -2.055115
     50          6           0        6.434228    0.457101   -0.270285
     51          6           0        7.726096   -0.145927   -1.044993
     52          6           0        8.944722   -0.144238   -0.242681
     53          6           0       10.205600   -0.582929   -0.914807
     54          6           0       10.145972   -1.977542   -1.511940
     55          6           0       11.457171   -0.271285   -0.156381
     56          6           0       12.830468   -0.552499   -0.662542
     57          6           0       13.993860   -0.161104    0.255620
     58          6           0       15.299452   -0.240940   -0.456449
     59          6           0       15.752136   -1.679728   -0.883533
     60          6           0       16.437655    0.377864    0.440777
     61          6           0       17.881112    0.570634   -0.130757
     62          6           0       18.776117    1.286769    0.789446
     63          6           0       20.220639    1.406973    0.301172
     64          6           0       20.411449    2.100359   -1.095567
     65          6           0       21.120804    2.016291    1.361416
     66          1           0       -4.114263    3.763183    1.673708
     67          1           0      -10.207114    3.927682   -0.261896
     68          1           0      -10.248723   -2.632797   -1.121084
     69          1           0       -2.499230   -0.914746    2.011815
     70          1           0       -2.190841    1.643896    1.438943
     71          1           0       -2.124413    0.861938    3.765808
     72          1           0       -3.375902    2.173177    3.792073
     73          1           0       -3.749302    0.156409    3.604971
     74          1           0       -2.068758   -1.465546   -0.224043
     75          1           0       -2.108362    0.334951   -0.791733
     76          1           0       -0.057080    0.543818    0.935850
     77          1           0       -0.293889   -1.202294    1.394546
     78          1           0       -5.581148    6.698073    0.679217
     79          1           0       -5.406415    6.134869    2.183733
     80          1           0       -4.456616    5.655205    0.562107
     81          1           0       -9.392258    5.851141   -0.701052
     82          1           0       -9.325133    8.019571    0.288457
     83          1           0       -7.622696    7.298583    1.441901
     84          1           0      -11.878740    3.069740   -2.140877
     85          1           0      -13.348384    2.081518   -1.611348
     86          1           0      -12.384156    3.241481   -0.436687
     87          1           0      -12.344346   -1.584645   -1.032374
     88          1           0      -13.589128   -0.342110   -1.439987
     89          1           0      -13.192680   -1.756776   -3.606003
     90          1           0      -12.192133   -0.106108   -3.741855
     91          1           0      -11.408257   -1.509507   -3.360431
     92          1           0       -9.176132   -4.848196   -1.928115
     93          1           0       -7.752192   -5.552285   -0.918781
     94          1           0       -9.481702   -4.804091   -0.259078
     95          1           0       -3.591938   -3.505279   -0.392784
     96          1           0       -1.509355   -4.397379    3.556083
     97          1           0       -3.028737   -5.366524    3.745999
     98          1           0       -1.530361   -6.108827    2.830103
     99          1           0        2.800695   -1.701897   -1.622314
    100          1           0        2.602493    0.056323   -1.972648
    101          1           0        4.118256   -1.058177    0.482146
    102          1           0        4.044452    1.241590   -2.608855
    103          1           0        5.077944    2.350417   -1.927000
    104          1           0        5.720245    1.295566   -2.874706
    105          1           0        6.516685    1.378292   -0.198032
    106          1           0        6.365623   -0.012911    0.879095
    107          1           0        7.525716   -1.278867   -1.316563
    108          1           0        7.830801    0.261802   -1.844607
    109          1           0        9.157117    0.732035    0.162124
    110          1           0        8.888228   -0.952727    0.551046
    111          1           0       10.321483    0.331598   -1.744934
    112          1           0        9.418760   -2.112515   -2.172180
    113          1           0       11.140721   -2.262987   -1.865182
    114          1           0       10.291217   -2.804512   -0.690137
    115          1           0       11.253252    0.656098    0.339628
    116          1           0       11.285850   -0.920921    0.669266
    117          1           0       12.895324   -1.581180   -0.879284
    118          1           0       12.796415    0.019423   -1.596289
    119          1           0       13.780087    0.883441    0.528649
    120          1           0       14.049679   -0.692857    1.099481
    121          1           0       15.264307    0.378694   -1.445340
    122          1           0       15.637013   -2.260091    0.131273
    123          1           0       15.040472   -2.226841   -1.320979
    124          1           0       16.910833   -1.659392   -1.111995
    125          1           0       16.040969    1.500181    0.473600
    126          1           0       16.621557   -0.126913    1.345606
    127          1           0       18.228537   -0.370611   -0.415075
    128          1           0       17.919811    1.092979   -1.107587
    129          1           0       18.354913    2.301025    1.031937
    130          1           0       18.933238    0.936017    1.897651
    131          1           0       20.612520    0.357513    0.148019
    132          1           0       19.995078    3.136998   -1.029180
    133          1           0       21.384340    2.269672   -1.620637
    134          1           0       19.733450    1.768418   -1.917516
    135          1           0       21.188385    1.629835    2.304460
    136          1           0       22.192062    1.900604    0.918007
    137          1           0       20.908302    3.098729    1.594964
 ---------------------------------------------------------------------

 SCF Done:  E(RCAM-B3LYP) =  -2933.44431681     A.U. after   16 cycles

 Excitation energies and oscillator strengths:

 Excited State   1:      Singlet-A      2.0523 eV  604.12 nm  f=0.1905  <S**2>=0.000
     240 -> 242       -0.11619
     240 -> 243        0.28452
     241 -> 242        0.62551
 This state for optimization and/or second-order correction.
 Total Energy, E(TD-HF/TD-DFT) =  -2933.36889574
 Copying the excited state density for this state as the 1-particle RhoCI density.

 The electronic state is 1-A.
 Alpha  occ. eigenvalues --  -46.80959 -19.21811 -19.20573 -19.16781 -19.15949
 Alpha  occ. eigenvalues --  -19.14995 -14.38798 -14.35645 -14.35450 -14.35296
 Alpha  occ. eigenvalues --  -10.34872 -10.34112 -10.29997 -10.27847 -10.27822
 Alpha  occ. eigenvalues --  -10.26982 -10.26470 -10.25626 -10.25371 -10.25225
 Alpha  occ. eigenvalues --  -10.25186 -10.25114 -10.24893 -10.24641 -10.24634
 Alpha  occ. eigenvalues --  -10.24228 -10.24081 -10.23844 -10.23563 -10.23509
 Alpha  occ. eigenvalues --  -10.23299 -10.23076 -10.23065 -10.22803 -10.22789
 Alpha  occ. eigenvalues --  -10.22771 -10.22749 -10.22734 -10.22668 -10.22659
 Alpha  occ. eigenvalues --  -10.22636 -10.22528 -10.22455 -10.22088 -10.22019
 Alpha  occ. eigenvalues --  -10.21998 -10.21888 -10.21684 -10.21641 -10.21449
 Alpha  occ. eigenvalues --  -10.21405 -10.21326 -10.21243 -10.21097 -10.21094
 Alpha  occ. eigenvalues --  -10.20725 -10.20689 -10.20297 -10.20147 -10.20062
 Alpha  occ. eigenvalues --  -10.20025 -10.19997 -10.19766 -10.19211 -10.19176
 Alpha  occ. eigenvalues --   -3.09399  -1.84351  -1.83890  -1.83774  -1.13144
 Alpha  occ. eigenvalues --   -1.10359  -1.03192  -1.02434  -1.02353  -1.01387
 Alpha  occ. eigenvalues --   -0.99654  -0.98318  -0.96638  -0.87136  -0.87133
 Alpha  occ. eigenvalues --   -0.85974  -0.85623  -0.84990  -0.84240  -0.84109
 Alpha  occ. eigenvalues --   -0.83693  -0.83251  -0.82967  -0.82053  -0.81285
 Alpha  occ. eigenvalues --   -0.80594  -0.79450  -0.78794  -0.78428  -0.77531
 Alpha  occ. eigenvalues --   -0.77055  -0.76604  -0.75697  -0.75290  -0.73810
 Alpha  occ. eigenvalues --   -0.73309  -0.72637  -0.72319  -0.71870  -0.71636
 Alpha  occ. eigenvalues --   -0.70990  -0.70764  -0.70039  -0.69042  -0.67753
 Alpha  occ. eigenvalues --   -0.67411  -0.67025  -0.66244  -0.65659  -0.64164
 Alpha  occ. eigenvalues --   -0.63659  -0.62187  -0.61716  -0.61030  -0.60563
 Alpha  occ. eigenvalues --   -0.59872  -0.58988  -0.58561  -0.58447  -0.57913
 Alpha  occ. eigenvalues --   -0.57375  -0.56758  -0.56289  -0.55513  -0.55436
 Alpha  occ. eigenvalues --   -0.55012  -0.54603  -0.53816  -0.53389  -0.52476
 Alpha  occ. eigenvalues --   -0.52328  -0.52210  -0.51561  -0.51425  -0.51208
 Alpha  occ. eigenvalues --   -0.50888  -0.50650  -0.50039  -0.49813  -0.49311
 Alpha  occ. eigenvalues --   -0.49146  -0.48768  -0.48681  -0.48570  -0.48215
 Alpha  occ. eigenvalues --   -0.48008  -0.47811  -0.47362  -0.47160  -0.47014
 Alpha  occ. eigenvalues --   -0.46658  -0.46616  -0.46484  -0.46350  -0.46059
 Alpha  occ. eigenvalues --   -0.45730  -0.45543  -0.45311  -0.45077  -0.44795
 Alpha  occ. eigenvalues --   -0.44510  -0.44229  -0.43865  -0.43771  -0.43673
 Alpha  occ. eigenvalues --   -0.43336  -0.43191  -0.43054  -0.42847  -0.42285
 Alpha  occ. eigenvalues --   -0.42136  -0.41948  -0.41884  -0.41697  -0.41578
 Alpha  occ. eigenvalues --   -0.41171  -0.41040  -0.40940  -0.40866  -0.40545
 Alpha  occ. eigenvalues --   -0.40497  -0.40467  -0.40211  -0.39997  -0.39743
 Alpha  occ. eigenvalues --   -0.39632  -0.39277  -0.39186  -0.39100  -0.38671
 Alpha  occ. eigenvalues --   -0.38454  -0.38334  -0.38262  -0.38199  -0.37916
 Alpha  occ. eigenvalues --   -0.37810  -0.37675  -0.37615  -0.37419  -0.37362
 Alpha  occ. eigenvalues --   -0.36855  -0.36544  -0.36535  -0.35947  -0.35841
 Alpha  occ. eigenvalues --   -0.35648  -0.35625  -0.35339  -0.34853  -0.34827
 Alpha  occ. eigenvalues --   -0.34463  -0.34077  -0.33940  -0.33754  -0.33545
 Alpha  occ. eigenvalues --   -0.33321  -0.32991  -0.32873  -0.32284  -0.32200
 Alpha  occ. eigenvalues --   -0.31834  -0.31784  -0.31592  -0.30598  -0.30230
 Alpha  occ. eigenvalues --   -0.30064  -0.29719  -0.29519  -0.28364  -0.27614
 Alpha  occ. eigenvalues --   -0.27243  -0.25961  -0.25716  -0.24622  -0.21662
 Alpha  occ. eigenvalues --   -0.20131
 Alpha virt. eigenvalues --   -0.06930  -0.05027  -0.01035   0.01922   0.02420
 Alpha virt. eigenvalues --    0.03110   0.04249   0.04818   0.05064   0.05317
 Alpha virt. eigenvalues --    0.06295   0.08705   0.08953   0.09921   0.10275

 Mulliken charges:
               1
     1  Mg   0.817562
     2  C    0.047385
     3  C   -0.198744
     4  C   -0.178845
     5  C   -0.179353
     6  N   -0.608712
     7  C    0.334564
     8  C   -0.163767
     9  C   -0.119390
    10  C    0.314196
    11  C   -0.310633
    12  C   -0.154350
    13  C   -0.280790
    14  C    0.623267
    15  O   -0.474724
    16  O   -0.519010
    17  N   -0.720415
    18  C    0.354857
    19  C   -0.000509
    20  C    0.029045
    21  C    0.296429
    22  C   -0.389069
    23  C   -0.065828
    24  C   -0.255063
    25  N   -0.672197
    26  C    0.310366
    27  C    0.004192
    28  C    0.032384
    29  C    0.251572
    30  C   -0.364896
    31  C   -0.231828
    32  C   -0.307243
    33  N   -0.760579
    34  C    0.289944
    35  C   -0.035883
    36  C    0.091665
    37  C    0.324773
    38  C   -0.369160
    39  C    0.278201
    40  O   -0.494945
    41  C   -0.293559
    42  C    0.631012
    43  O   -0.503265
    44  O   -0.416260
    45  C   -0.081011
    46  C    0.020686
    47  C   -0.142883
    48  C    0.154316
    49  C   -0.401196
    50  C   -0.208433
    51  C   -0.148033
    52  C   -0.139043
    53  C   -0.049740
    54  C   -0.314167
    55  C   -0.183789
    56  C   -0.171651
    57  C   -0.154672
    58  C   -0.054032
    59  C   -0.309292
    60  C   -0.168050
    61  C   -0.188094
    62  C   -0.156634
    63  C   -0.039575
    64  C   -0.331005
    65  C   -0.311991
    66  H    0.099023
    67  H    0.089319
    68  H    0.092481
    69  H    0.118750
    70  H    0.100812
    71  H    0.105996
    72  H    0.095224
    73  H    0.096516
    74  H    0.132114
    75  H    0.123553
    76  H    0.135172
    77  H    0.133487
    78  H    0.136599
    79  H    0.133548
    80  H    0.086435
    81  H    0.087836
    82  H    0.089777
    83  H    0.097954
    84  H    0.140115
    85  H    0.112648
    86  H    0.106962
    87  H    0.112768
    88  H    0.096546
    89  H    0.086392
    90  H    0.115782
    91  H    0.124150
    92  H    0.108446
    93  H    0.158474
    94  H    0.139116
    95  H    0.170304
    96  H    0.105367
    97  H    0.127709
    98  H    0.132174
    99  H    0.140367
   100  H    0.122377
   101  H    0.102599
   102  H    0.088908
   103  H    0.126017
   104  H    0.128985
   105  H    0.109748
   106  H    0.059381
   107  H    0.078453
   108  H    0.094647
   109  H    0.089449
   110  H    0.077712
   111  H    0.023701
   112  H    0.117626
   113  H    0.103399
   114  H    0.081995
   115  H    0.083060
   116  H    0.076702
   117  H    0.094773
   118  H    0.092680
   119  H    0.090390
   120  H    0.100057
   121  H    0.068292
   122  H    0.067345
   123  H    0.113233
   124  H    0.103914
   125  H    0.070877
   126  H    0.098012
   127  H    0.094708
   128  H    0.093927
   129  H    0.084634
   130  H    0.073647
   131  H    0.085003
   132  H    0.094228
   133  H    0.104368
   134  H    0.098152
   135  H    0.112562
   136  H    0.085308
   137  H    0.093104
 Sum of Mulliken charges =  -0.00000

 Dipole moment (field-independent basis, Debye):
    X=              0.8326    Y=              4.5979    Z=              0.0161  Tot=              4.6727
 Quadrupole moment (field-independent basis, Debye-Ang):
   XX=           -348.7484   YY=           -397.4981   ZZ=           -398.9288
   XY=            -21.4576   XZ=             15.7826   YZ=             -1.0668

 Normal termination of Gaussian 16 at Tue Sep 10 07:11:00 2019.
