 Gaussian 16, Revision A.03,
 Gaussian 16:  ES64L-G16RevA.03 25-Dec-2016

 ----------------------------------------------------------------------
 # td=(NStates=1) iop(3/107=0140000000,3/108=0140000000) CAM-B3LYP/6-31
 G(d,p)
 ----------------------------------------------------------------------

 --
 TD
 --
 Symbolic Z-matrix:
 Charge =  0 Multiplicity = 1

                         Standard orientation:
 ---------------------------------------------------------------------
 Center     Atomic      Atomic             Coordinates (Angstroms)
 Number     Number       Type             X           Y           Z
 ---------------------------------------------------------------------
      1         12           0       -7.056818    0.621501    0.058120
      2          6           0       -4.827257   -1.987364    0.512650
      3          6           0       -4.858116    2.854032    1.151606
      4          6           0       -9.373311    3.137333   -0.452497
      5          6           0       -9.509292   -1.711804   -0.807988
      6          7           0       -5.167512    0.447910    0.801507
      7          6           0       -4.361828   -0.728429    0.776840
      8          6           0       -2.932789   -0.454592    1.343117
      9          6           0       -3.033363    1.035115    1.672385
     10          6           0       -4.374624    1.491627    1.236226
     11          6           0       -2.978257    1.249602    3.225113
     12          6           0       -1.914021   -0.733928    0.144692
     13          6           0       -0.434376   -0.533702    0.526729
     14          6           0        0.478886   -0.682641   -0.637136
     15          8           0        0.185876   -1.111688   -1.696843
     16          8           0        1.722230   -0.307114   -0.135140
     17          7           0       -7.122318    2.575946    0.268894
     18          6           0       -6.044316    3.401990    0.829199
     19          6           0       -6.410191    4.800365    0.859357
     20          6           0       -7.702024    4.859810    0.311579
     21          6           0       -8.120442    3.507487   -0.018753
     22          6           0       -5.450601    5.868889    1.202992
     23          6           0       -8.517707    6.012648    0.065285
     24          6           0       -8.336329    7.241505    0.682651
     25          7           0       -9.130147    0.652719   -0.511482
     26          6           0       -9.863263    1.862131   -0.697461
     27          6           0      -11.191982    1.491588   -1.118926
     28          6           0      -11.175021    0.148712   -1.249442
     29          6           0       -9.885832   -0.342342   -0.819653
     30          6           0      -12.231810    2.553303   -1.363408
     31          6           0      -12.458958   -0.681198   -1.630501
     32          6           0      -12.404776   -1.011749   -3.083363
     33          7           0       -7.237813   -1.469761   -0.158093
     34          6           0       -8.245093   -2.306069   -0.538059
     35          6           0       -7.914144   -3.703719   -0.489151
     36          6           0       -6.515452   -3.566829   -0.157410
     37          6           0       -6.183785   -2.215562    0.016845
     38          6           0       -8.676350   -4.816355   -0.956715
     39          6           0       -5.338443   -4.330699    0.108042
     40          8           0       -5.197632   -5.621822    0.122797
     41          6           0       -4.152870   -3.314629    0.540765
     42          6           0       -3.660204   -3.665345    1.829395
     43          8           0       -3.806690   -3.161805    2.931882
     44          8           0       -2.893818   -4.802168    1.700224
     45          6           0       -2.464771   -5.330767    2.949891
     46          6           0        2.720328   -0.442203   -1.133229
     47          6           0        4.162096   -0.454404   -0.642084
     48          6           0        5.151246    0.426135   -0.897466
     49          6           0        5.110286    1.435189   -2.132062
     50          6           0        6.457459    0.471624   -0.141400
     51          6           0        7.601324   -0.079415   -1.021803
     52          6           0        8.941662   -0.106061   -0.282376
     53          6           0       10.176393   -0.696657   -0.919422
     54          6           0       10.179483   -2.105780   -1.337411
     55          6           0       11.530702   -0.363080   -0.053269
     56          6           0       12.892265   -0.587595   -0.781112
     57          6           0       14.022786   -0.085758    0.206325
     58          6           0       15.400754   -0.218638   -0.522433
     59          6           0       15.806834   -1.745485   -0.798987
     60          6           0       16.367447    0.518951    0.368156
     61          6           0       17.800430    0.654718   -0.268225
     62          6           0       18.829119    1.120463    0.788681
     63          6           0       20.260025    1.331374    0.265757
     64          6           0       20.382996    2.270970   -0.921548
     65          6           0       21.264613    1.812988    1.319494
     66          1           0       -4.098108    3.595171    1.445849
     67          1           0       -9.922429    3.909288   -0.741542
     68          1           0      -10.305268   -2.345861   -1.133097
     69          1           0       -2.653596   -1.024215    2.091523
     70          1           0       -2.336111    1.482331    0.962760
     71          1           0       -1.863617    1.227070    3.865921
     72          1           0       -3.328128    2.267903    3.417810
     73          1           0       -3.520639    0.592634    3.692182
     74          1           0       -2.184355   -1.724723   -0.128099
     75          1           0       -2.310827    0.025423   -0.787179
     76          1           0       -0.070479    0.560567    0.859404
     77          1           0       -0.173147   -1.135186    1.353308
     78          1           0       -5.573018    6.728399    0.688008
     79          1           0       -5.454491    6.064887    2.161641
     80          1           0       -4.588085    5.617232    0.888289
     81          1           0       -9.453856    5.905994   -0.517777
     82          1           0       -8.791953    8.178759    0.473714
     83          1           0       -7.554260    7.318859    1.288290
     84          1           0      -12.140548    3.111568   -2.256222
     85          1           0      -13.206501    1.952108   -1.166585
     86          1           0      -12.362560    3.382888   -0.462702
     87          1           0      -12.492707   -1.501563   -0.971232
     88          1           0      -13.438433   -0.077384   -1.398302
     89          1           0      -13.364572   -1.621425   -3.308544
     90          1           0      -12.386630   -0.175152   -3.841088
     91          1           0      -11.632194   -1.816826   -3.360999
     92          1           0       -8.745369   -4.981910   -2.035543
     93          1           0       -8.014897   -5.740450   -0.714335
     94          1           0       -9.775130   -4.911690   -0.614264
     95          1           0       -3.415968   -3.450263   -0.183221
     96          1           0       -1.874410   -4.448467    3.340831
     97          1           0       -3.221843   -5.867191    3.445406
     98          1           0       -1.851318   -6.087801    2.538795
     99          1           0        2.583510   -1.466066   -1.616381
    100          1           0        2.601224    0.156588   -1.860151
    101          1           0        4.232516   -1.021010    0.244702
    102          1           0        4.213676    1.497080   -2.841980
    103          1           0        5.391514    2.560952   -1.541884
    104          1           0        5.861082    1.339584   -2.926712
    105          1           0        6.731252    1.497080    0.314143
    106          1           0        6.298337   -0.278121    0.865067
    107          1           0        7.320063   -1.183808   -1.009298
    108          1           0        7.496341    0.367237   -2.027464
    109          1           0        8.995054    1.032537   -0.061288
    110          1           0        8.805775   -0.864604    0.708792
    111          1           0       10.321646   -0.152641   -1.999519
    112          1           0        9.384512   -2.362774   -2.102908
    113          1           0       11.124083   -2.467107   -1.728564
    114          1           0        9.989036   -2.748217   -0.447700
    115          1           0       11.513385    0.631122    0.341992
    116          1           0       11.492780   -0.909767    0.824886
    117          1           0       12.963929   -1.742161   -1.063961
    118          1           0       12.877074   -0.074166   -1.675541
    119          1           0       13.786418    1.082018    0.515268
    120          1           0       14.010643   -0.585213    1.280438
    121          1           0       15.458975    0.249972   -1.488978
    122          1           0       15.939678   -2.382980    0.145098
    123          1           0       14.961936   -2.085868   -1.383543
    124          1           0       16.856032   -1.889228   -1.421118
    125          1           0       15.830541    1.403372    0.779989
    126          1           0       16.398871   -0.297528    1.271303
    127          1           0       18.314363   -0.335242   -0.735737
    128          1           0       17.672580    1.255010   -1.255663
    129          1           0       18.371473    2.130882    1.258203
    130          1           0       19.042827    0.464802    1.652844
    131          1           0       20.747704    0.437416   -0.109126
    132          1           0       19.892845    3.365691   -0.804208
    133          1           0       21.454716    2.250505   -1.382741
    134          1           0       19.678141    1.889448   -1.730568
    135          1           0       21.101508    1.327634    2.267520
    136          1           0       22.280008    1.640428    1.024031
    137          1           0       21.342841    3.052728    1.578302
 ---------------------------------------------------------------------

 SCF Done:  E(RCAM-B3LYP) =  -2933.48473248     A.U. after   16 cycles

 Excitation energies and oscillator strengths:

 Excited State   1:      Singlet-A      1.9452 eV  637.39 nm  f=0.2735  <S**2>=0.000
     240 -> 243        0.19501
     241 -> 242        0.67553
 This state for optimization and/or second-order correction.
 Total Energy, E(TD-HF/TD-DFT) =  -2933.41324865
 Copying the excited state density for this state as the 1-particle RhoCI density.

 The electronic state is 1-A.
 Alpha  occ. eigenvalues --  -46.79931 -19.22259 -19.19866 -19.18283 -19.16125
 Alpha  occ. eigenvalues --  -19.15072 -14.38444 -14.35154 -14.35115 -14.34465
 Alpha  occ. eigenvalues --  -10.34786 -10.33283 -10.30204 -10.27770 -10.26302
 Alpha  occ. eigenvalues --  -10.25916 -10.25651 -10.24940 -10.24844 -10.24703
 Alpha  occ. eigenvalues --  -10.24515 -10.24401 -10.24320 -10.24092 -10.24068
 Alpha  occ. eigenvalues --  -10.24066 -10.24065 -10.23988 -10.23825 -10.23702
 Alpha  occ. eigenvalues --  -10.23689 -10.23611 -10.23497 -10.23323 -10.23263
 Alpha  occ. eigenvalues --  -10.23198 -10.23148 -10.23147 -10.23128 -10.22922
 Alpha  occ. eigenvalues --  -10.22913 -10.22736 -10.22404 -10.22387 -10.22212
 Alpha  occ. eigenvalues --  -10.22191 -10.22085 -10.22041 -10.21946 -10.21931
 Alpha  occ. eigenvalues --  -10.21730 -10.21718 -10.21689 -10.21597 -10.21548
 Alpha  occ. eigenvalues --  -10.21530 -10.21439 -10.21375 -10.21160 -10.21074
 Alpha  occ. eigenvalues --  -10.21058 -10.20720 -10.20395 -10.20196 -10.18888
 Alpha  occ. eigenvalues --   -3.08536  -1.83474  -1.82998  -1.82955  -1.13753
 Alpha  occ. eigenvalues --   -1.11878  -1.06868  -1.02984  -1.01184  -0.99988
 Alpha  occ. eigenvalues --   -0.98552  -0.97866  -0.95886  -0.88121  -0.85633
 Alpha  occ. eigenvalues --   -0.85043  -0.84834  -0.84608  -0.84229  -0.83748
 Alpha  occ. eigenvalues --   -0.83247  -0.82942  -0.82854  -0.82254  -0.81635
 Alpha  occ. eigenvalues --   -0.80447  -0.79637  -0.79363  -0.78259  -0.77684
 Alpha  occ. eigenvalues --   -0.76668  -0.76629  -0.75544  -0.74830  -0.74709
 Alpha  occ. eigenvalues --   -0.73537  -0.72341  -0.71691  -0.71023  -0.70650
 Alpha  occ. eigenvalues --   -0.69769  -0.69549  -0.69462  -0.68703  -0.68461
 Alpha  occ. eigenvalues --   -0.67785  -0.66271  -0.65041  -0.64274  -0.64244
 Alpha  occ. eigenvalues --   -0.63386  -0.62090  -0.61657  -0.60878  -0.60451
 Alpha  occ. eigenvalues --   -0.59968  -0.59727  -0.58145  -0.57451  -0.57277
 Alpha  occ. eigenvalues --   -0.56943  -0.56778  -0.56496  -0.56021  -0.55285
 Alpha  occ. eigenvalues --   -0.54926  -0.54703  -0.54375  -0.54075  -0.53517
 Alpha  occ. eigenvalues --   -0.52562  -0.52230  -0.51617  -0.51261  -0.51171
 Alpha  occ. eigenvalues --   -0.50590  -0.50182  -0.49673  -0.49581  -0.49303
 Alpha  occ. eigenvalues --   -0.49035  -0.48702  -0.48498  -0.48026  -0.47835
 Alpha  occ. eigenvalues --   -0.47707  -0.47514  -0.47126  -0.47065  -0.46994
 Alpha  occ. eigenvalues --   -0.46906  -0.46746  -0.46449  -0.46186  -0.46134
 Alpha  occ. eigenvalues --   -0.45583  -0.45554  -0.45213  -0.44661  -0.44597
 Alpha  occ. eigenvalues --   -0.44432  -0.44264  -0.44153  -0.43889  -0.43519
 Alpha  occ. eigenvalues --   -0.43309  -0.42930  -0.42679  -0.42555  -0.42478
 Alpha  occ. eigenvalues --   -0.42386  -0.42290  -0.42147  -0.41794  -0.41691
 Alpha  occ. eigenvalues --   -0.41487  -0.41310  -0.41097  -0.40852  -0.40681
 Alpha  occ. eigenvalues --   -0.40367  -0.40321  -0.40045  -0.39674  -0.39623
 Alpha  occ. eigenvalues --   -0.39499  -0.39242  -0.39009  -0.38883  -0.38763
 Alpha  occ. eigenvalues --   -0.38661  -0.38489  -0.38378  -0.38166  -0.38026
 Alpha  occ. eigenvalues --   -0.37834  -0.37397  -0.37071  -0.36936  -0.36865
 Alpha  occ. eigenvalues --   -0.36577  -0.36451  -0.36348  -0.36328  -0.36039
 Alpha  occ. eigenvalues --   -0.35767  -0.35413  -0.35148  -0.35088  -0.34326
 Alpha  occ. eigenvalues --   -0.34283  -0.34200  -0.33960  -0.33822  -0.33582
 Alpha  occ. eigenvalues --   -0.33503  -0.33334  -0.33106  -0.33032  -0.32609
 Alpha  occ. eigenvalues --   -0.32123  -0.31833  -0.31658  -0.31334  -0.30153
 Alpha  occ. eigenvalues --   -0.30104  -0.30075  -0.29703  -0.28573  -0.27104
 Alpha  occ. eigenvalues --   -0.26515  -0.26071  -0.25975  -0.24830  -0.22162
 Alpha  occ. eigenvalues --   -0.19959
 Alpha virt. eigenvalues --   -0.07677  -0.04079  -0.00773   0.01245   0.03165
 Alpha virt. eigenvalues --    0.03681   0.03975   0.04391   0.04665   0.05679
 Alpha virt. eigenvalues --    0.06838   0.08780   0.08908   0.09555   0.09831

 Mulliken charges:
               1
     1  Mg   0.814776
     2  C    0.105642
     3  C   -0.232523
     4  C   -0.141938
     5  C   -0.172185
     6  N   -0.638434
     7  C    0.256239
     8  C   -0.121820
     9  C   -0.137556
    10  C    0.327326
    11  C   -0.297917
    12  C   -0.176721
    13  C   -0.276843
    14  C    0.632947
    15  O   -0.437488
    16  O   -0.486693
    17  N   -0.735506
    18  C    0.315890
    19  C    0.015897
    20  C    0.024303
    21  C    0.320922
    22  C   -0.349130
    23  C   -0.097086
    24  C   -0.240636
    25  N   -0.692463
    26  C    0.263868
    27  C    0.067785
    28  C   -0.023600
    29  C    0.363489
    30  C   -0.374917
    31  C   -0.225977
    32  C   -0.301679
    33  N   -0.707924
    34  C    0.252417
    35  C    0.105555
    36  C    0.018932
    37  C    0.319315
    38  C   -0.414027
    39  C    0.298248
    40  O   -0.507436
    41  C   -0.333109
    42  C    0.644559
    43  O   -0.492075
    44  O   -0.464637
    45  C   -0.071584
    46  C    0.042953
    47  C   -0.145837
    48  C    0.141592
    49  C   -0.355551
    50  C   -0.220512
    51  C   -0.170384
    52  C   -0.141758
    53  C   -0.042036
    54  C   -0.307563
    55  C   -0.184253
    56  C   -0.176298
    57  C   -0.176865
    58  C   -0.050664
    59  C   -0.302768
    60  C   -0.152067
    61  C   -0.175211
    62  C   -0.149102
    63  C   -0.050983
    64  C   -0.291681
    65  C   -0.298453
    66  H    0.068414
    67  H    0.054997
    68  H    0.073456
    69  H    0.118910
    70  H    0.116434
    71  H    0.067921
    72  H    0.112463
    73  H    0.150600
    74  H    0.120829
    75  H    0.080192
    76  H    0.126375
    77  H    0.149828
    78  H    0.125472
    79  H    0.135994
    80  H    0.123071
    81  H    0.091376
    82  H    0.108315
    83  H    0.095837
    84  H    0.137491
    85  H    0.104438
    86  H    0.093919
    87  H    0.115207
    88  H    0.093237
    89  H    0.085497
    90  H    0.116562
    91  H    0.102947
    92  H    0.141140
    93  H    0.145470
    94  H    0.115029
    95  H    0.175734
    96  H    0.118894
    97  H    0.135705
    98  H    0.121319
    99  H    0.106886
   100  H    0.108290
   101  H    0.084476
   102  H    0.111123
   103  H    0.075727
   104  H    0.125710
   105  H    0.095241
   106  H    0.069453
   107  H    0.101071
   108  H    0.101876
   109  H    0.082122
   110  H    0.058303
   111  H    0.045407
   112  H    0.098936
   113  H    0.110490
   114  H    0.088127
   115  H    0.089348
   116  H    0.097649
   117  H    0.082618
   118  H    0.112070
   119  H    0.070017
   120  H    0.089987
   121  H    0.088252
   122  H    0.096253
   123  H    0.108394
   124  H    0.080947
   125  H    0.092535
   126  H    0.062542
   127  H    0.075945
   128  H    0.091535
   129  H    0.072976
   130  H    0.098258
   131  H    0.096485
   132  H    0.083123
   133  H    0.088533
   134  H    0.084127
   135  H    0.095703
   136  H    0.106072
   137  H    0.061556
 Sum of Mulliken charges =  -0.00000

 Dipole moment (field-independent basis, Debye):
    X=              1.0865    Y=              5.4737    Z=             -0.7928  Tot=              5.6365
 Quadrupole moment (field-independent basis, Debye-Ang):
   XX=           -359.8028   YY=           -396.7841   ZZ=           -397.9566
   XY=            -33.8173   XZ=             10.5143   YZ=             -0.7509

 Normal termination of Gaussian 16 at Thu Sep 12 11:52:53 2019.
