 Gaussian 09, Revision D.01,
 Gaussian 09:  ES64L-G09RevD.01 24-Apr-2013

 -------------------------------------
 # td=(NStates=1) CAM-B3LYP/6-31G(d,p)
 -------------------------------------

 --
 TD
 --
 Symbolic Z-matrix:
 Charge =  0 Multiplicity = 1

                         Standard orientation:
 ---------------------------------------------------------------------
 Center     Atomic      Atomic             Coordinates (Angstroms)
 Number     Number       Type             X           Y           Z
 ---------------------------------------------------------------------
      1         12           0       -7.113791    0.622715    0.174819
      2          6           0       -4.765277   -1.917217    0.529462
      3          6           0       -4.850387    2.860912    1.144165
      4          6           0       -9.402726    3.071568   -0.369212
      5          6           0       -9.536246   -1.748663   -0.790325
      6          7           0       -5.114707    0.462812    0.776089
      7          6           0       -4.307971   -0.597553    0.900489
      8          6           0       -2.873205   -0.314176    1.214297
      9          6           0       -2.986124    1.078479    1.671551
     10          6           0       -4.393181    1.466758    1.144122
     11          6           0       -2.844753    1.184703    3.134071
     12          6           0       -1.898435   -0.582220   -0.038874
     13          6           0       -0.471025   -0.563074    0.485600
     14          6           0        0.418886   -0.745540   -0.630610
     15          8           0        0.146756   -1.105178   -1.743201
     16          8           0        1.763872   -0.577615   -0.172604
     17          7           0       -7.168553    2.606100    0.305810
     18          6           0       -6.011936    3.362397    0.832526
     19          6           0       -6.459366    4.728697    0.734382
     20          6           0       -7.778477    4.861556    0.306825
     21          6           0       -8.115181    3.470899   -0.017618
     22          6           0       -5.602566    5.850418    1.128326
     23          6           0       -8.619226    6.030640   -0.045123
     24          6           0       -8.645689    7.175528    0.657731
     25          7           0       -9.153718    0.701074   -0.342929
     26          6           0       -9.945360    1.740200   -0.559446
     27          6           0      -11.201291    1.366175   -1.142193
     28          6           0      -11.251580    0.011770   -1.255616
     29          6           0       -9.937813   -0.427505   -0.787814
     30          6           0      -12.334463    2.338170   -1.279683
     31          6           0      -12.422422   -0.829031   -1.633178
     32          6           0      -12.374578   -1.319584   -3.145514
     33          7           0       -7.224447   -1.369121   -0.124327
     34          6           0       -8.239589   -2.179968   -0.497445
     35          6           0       -7.737205   -3.523811   -0.420291
     36          6           0       -6.470316   -3.440995   -0.071058
     37          6           0       -6.059933   -2.120538    0.069392
     38          6           0       -8.583449   -4.679261   -0.817687
     39          6           0       -5.334444   -4.260909    0.175727
     40          8           0       -5.149710   -5.523948    0.175218
     41          6           0       -4.137625   -3.261773    0.494297
     42          6           0       -3.467954   -3.645632    1.905608
     43          8           0       -3.642995   -3.101044    2.895129
     44          8           0       -2.624997   -4.743393    1.596876
     45          6           0       -1.983114   -5.191830    2.850206
     46          6           0        2.776515   -0.727917   -1.194792
     47          6           0        4.072030   -0.425718   -0.579808
     48          6           0        5.004890    0.419348   -1.004030
     49          6           0        4.946454    1.202980   -2.280516
     50          6           0        6.356770    0.369643   -0.293331
     51          6           0        7.574819    0.053454   -1.172824
     52          6           0        8.952553   -0.019213   -0.372951
     53          6           0       10.245014   -0.562900   -1.014280
     54          6           0       10.235937   -2.031808   -1.149738
     55          6           0       11.427008   -0.248329    0.022080
     56          6           0       12.821364   -0.434410   -0.624983
     57          6           0       13.999342   -0.115846    0.222553
     58          6           0       15.375886   -0.232782   -0.413553
     59          6           0       15.679834   -1.698064   -0.716523
     60          6           0       16.509372    0.357336    0.545500
     61          6           0       17.851951    0.381565   -0.098723
     62          6           0       18.795492    1.322824    0.736524
     63          6           0       20.210948    1.396975    0.208133
     64          6           0       20.299788    2.261778   -1.173462
     65          6           0       21.107598    2.046693    1.256656
     66          1           0       -3.925519    3.729906    1.278486
     67          1           0      -10.227725    3.814466   -0.432191
     68          1           0      -10.275439   -2.526887   -0.972721
     69          1           0       -2.602740   -1.262272    2.086120
     70          1           0       -2.249441    1.647098    1.279389
     71          1           0       -1.708664    1.184341    3.393958
     72          1           0       -3.067083    2.394780    3.463789
     73          1           0       -3.624093    0.694724    3.627658
     74          1           0       -2.190422   -1.385179   -0.574647
     75          1           0       -2.220221    0.214139   -0.562861
     76          1           0       -0.289772    0.324157    1.220173
     77          1           0       -0.433142   -1.409531    1.406670
     78          1           0       -5.863074    6.876693    0.632756
     79          1           0       -5.750779    6.362159    2.280139
     80          1           0       -4.625722    5.458208    0.971940
     81          1           0       -9.034686    5.960642   -1.040091
     82          1           0       -9.444458    7.927050    0.402092
     83          1           0       -7.926655    7.377914    1.524202
     84          1           0      -12.204080    3.060036   -2.189518
     85          1           0      -13.437120    1.654404   -1.442132
     86          1           0      -12.624793    2.935283   -0.385215
     87          1           0      -12.541409   -1.777713   -0.860909
     88          1           0      -13.209513   -0.275305   -1.453811
     89          1           0      -13.196112   -1.754575   -3.470978
     90          1           0      -12.320009   -0.350910   -3.682165
     91          1           0      -11.484026   -1.906529   -3.421349
     92          1           0       -9.138463   -4.347518   -1.837406
     93          1           0       -8.003519   -5.679983   -0.733248
     94          1           0       -9.626274   -4.891056   -0.261731
     95          1           0       -3.391554   -3.344367   -0.373462
     96          1           0       -1.564969   -4.409848    3.483875
     97          1           0       -2.718513   -5.918315    3.392254
     98          1           0       -1.280964   -6.061294    2.446720
     99          1           0        3.013084   -1.706523   -1.685508
    100          1           0        2.694815   -0.006533   -2.016659
    101          1           0        4.167256   -1.109660    0.222117
    102          1           0        3.950960    0.955061   -2.603078
    103          1           0        5.165466    2.209361   -2.128691
    104          1           0        5.469252    0.682978   -2.876378
    105          1           0        6.538932    1.215745   -0.006822
    106          1           0        6.252842   -0.425290    0.510688
    107          1           0        7.304930   -1.005714   -1.602414
    108          1           0        7.549558    0.629543   -2.067561
    109          1           0        9.154969    1.113191   -0.034850
    110          1           0        8.663791   -0.622136    0.393152
    111          1           0       10.334970    0.031608   -1.877269
    112          1           0        9.400964   -2.328966   -1.897064
    113          1           0       11.124525   -2.482565   -1.486522
    114          1           0       10.128377   -2.352007   -0.255250
    115          1           0       11.387187    0.793723    0.204467
    116          1           0       11.483072   -0.888288    0.986397
    117          1           0       13.009078   -1.575896   -0.573808
    118          1           0       12.735332    0.019970   -1.812949
    119          1           0       13.801930    0.979815    0.465449
    120          1           0       14.097020   -0.477630    1.318835
    121          1           0       15.182390    0.221990   -1.263910
    122          1           0       15.829760   -2.207331    0.288883
    123          1           0       14.810439   -2.281941   -1.300147
    124          1           0       16.665942   -1.567835   -1.309661
    125          1           0       16.350176    1.551167    0.788243
    126          1           0       16.559385   -0.193414    1.496403
    127          1           0       18.267761   -0.737199   -0.085068
    128          1           0       17.934883    0.835386   -1.076318
    129          1           0       18.373027    2.304055    0.841211
    130          1           0       18.962683    0.935125    1.820444
    131          1           0       20.686873    0.355988    0.066864
    132          1           0       20.272912    3.310059   -1.001923
    133          1           0       21.351611    1.944280   -1.438529
    134          1           0       19.519769    1.909764   -1.832058
    135          1           0       20.811955    1.515448    2.194191
    136          1           0       22.343052    1.705453    0.995467
    137          1           0       21.184812    3.174083    1.358019
 ---------------------------------------------------------------------

 SCF Done:  E(RCAM-B3LYP) =  -2932.52523507     A.U. after   16 cycles

 Excitation energies and oscillator strengths:

 Excited State   1:      Singlet-A      2.0786 eV  596.48 nm  f=0.1842  <S**2>=0.000
     240 -> 243        0.28493
     241 -> 242        0.63877
 This state for optimization and/or second-order correction.
 Total Energy, E(TD-HF/TD-KS) =  -2932.44884840
 Copying the excited state density for this state as the 1-particle RhoCI density.

 The electronic state is 1-A.
 Alpha  occ. eigenvalues --  -46.84127 -19.25999 -19.25795 -19.23686 -19.22795
 Alpha  occ. eigenvalues --  -19.19400 -14.43926 -14.39058 -14.39020 -14.39002
 Alpha  occ. eigenvalues --  -10.40122 -10.40035 -10.34531 -10.32634 -10.32367
 Alpha  occ. eigenvalues --  -10.30825 -10.30773 -10.30297 -10.30108 -10.29439
 Alpha  occ. eigenvalues --  -10.28956 -10.28913 -10.28827 -10.28694 -10.28536
 Alpha  occ. eigenvalues --  -10.28421 -10.27989 -10.27964 -10.27937 -10.27904
 Alpha  occ. eigenvalues --  -10.27791 -10.27692 -10.27511 -10.27502 -10.27383
 Alpha  occ. eigenvalues --  -10.27374 -10.27281 -10.27041 -10.27022 -10.26857
 Alpha  occ. eigenvalues --  -10.26663 -10.26606 -10.26570 -10.26471 -10.26322
 Alpha  occ. eigenvalues --  -10.26320 -10.26091 -10.26038 -10.26033 -10.26006
 Alpha  occ. eigenvalues --  -10.25895 -10.25703 -10.25658 -10.25615 -10.25475
 Alpha  occ. eigenvalues --  -10.25191 -10.25014 -10.24801 -10.24683 -10.24655
 Alpha  occ. eigenvalues --  -10.24197 -10.23785 -10.23750 -10.23595 -10.22717
 Alpha  occ. eigenvalues --   -3.13281  -1.87978  -1.87555  -1.87431  -1.19805
 Alpha  occ. eigenvalues --   -1.17227  -1.10682  -1.09663  -1.08695  -1.06985
 Alpha  occ. eigenvalues --   -1.03750  -1.03040  -1.01991  -0.93176  -0.92475
 Alpha  occ. eigenvalues --   -0.91708  -0.90874  -0.89778  -0.89678  -0.88990
 Alpha  occ. eigenvalues --   -0.88709  -0.88358  -0.88154  -0.86936  -0.86635
 Alpha  occ. eigenvalues --   -0.85293  -0.84411  -0.83860  -0.82997  -0.82379
 Alpha  occ. eigenvalues --   -0.81835  -0.81216  -0.80597  -0.79577  -0.78764
 Alpha  occ. eigenvalues --   -0.77314  -0.77201  -0.76438  -0.75537  -0.75205
 Alpha  occ. eigenvalues --   -0.74783  -0.74147  -0.73788  -0.73303  -0.72075
 Alpha  occ. eigenvalues --   -0.71686  -0.71392  -0.70788  -0.68492  -0.68189
 Alpha  occ. eigenvalues --   -0.66689  -0.66485  -0.66163  -0.65089  -0.64359
 Alpha  occ. eigenvalues --   -0.63840  -0.63524  -0.63503  -0.62335  -0.62113
 Alpha  occ. eigenvalues --   -0.61894  -0.61382  -0.60435  -0.60135  -0.59600
 Alpha  occ. eigenvalues --   -0.58495  -0.57954  -0.57753  -0.57523  -0.56845
 Alpha  occ. eigenvalues --   -0.56420  -0.56060  -0.55087  -0.55052  -0.54905
 Alpha  occ. eigenvalues --   -0.54607  -0.54422  -0.54207  -0.53633  -0.53217
 Alpha  occ. eigenvalues --   -0.53147  -0.52670  -0.52568  -0.52398  -0.52038
 Alpha  occ. eigenvalues --   -0.51843  -0.51482  -0.51365  -0.51002  -0.50781
 Alpha  occ. eigenvalues --   -0.50487  -0.50201  -0.50130  -0.50043  -0.49622
 Alpha  occ. eigenvalues --   -0.49498  -0.49270  -0.49027  -0.48722  -0.48648
 Alpha  occ. eigenvalues --   -0.48428  -0.48160  -0.48039  -0.47954  -0.47688
 Alpha  occ. eigenvalues --   -0.47351  -0.47208  -0.46779  -0.46608  -0.46221
 Alpha  occ. eigenvalues --   -0.45702  -0.45537  -0.45263  -0.45186  -0.44756
 Alpha  occ. eigenvalues --   -0.44518  -0.44375  -0.44173  -0.44130  -0.44000
 Alpha  occ. eigenvalues --   -0.43913  -0.43660  -0.43650  -0.43536  -0.43248
 Alpha  occ. eigenvalues --   -0.43042  -0.42951  -0.42600  -0.42384  -0.42290
 Alpha  occ. eigenvalues --   -0.42225  -0.42007  -0.41953  -0.41609  -0.41249
 Alpha  occ. eigenvalues --   -0.40938  -0.40816  -0.40779  -0.40487  -0.40333
 Alpha  occ. eigenvalues --   -0.40102  -0.39914  -0.39875  -0.39550  -0.39439
 Alpha  occ. eigenvalues --   -0.39310  -0.39100  -0.38682  -0.38519  -0.37641
 Alpha  occ. eigenvalues --   -0.37394  -0.37271  -0.37119  -0.36801  -0.36626
 Alpha  occ. eigenvalues --   -0.36085  -0.35954  -0.35830  -0.35766  -0.35241
 Alpha  occ. eigenvalues --   -0.35093  -0.35025  -0.34926  -0.34520  -0.33830
 Alpha  occ. eigenvalues --   -0.33395  -0.33049  -0.32540  -0.30486  -0.29551
 Alpha  occ. eigenvalues --   -0.29448  -0.29185  -0.28383  -0.27800  -0.22928
 Alpha  occ. eigenvalues --   -0.20767
 Alpha virt. eigenvalues --   -0.05790  -0.03889   0.00734   0.02964   0.03617
 Alpha virt. eigenvalues --    0.05726   0.06125   0.06300   0.06867   0.07682
 Alpha virt. eigenvalues --    0.08113   0.09700   0.10318   0.10505   0.11078

 Mulliken charges:
               1
     1  Mg   0.810890
     2  C    0.071670
     3  C   -0.247964
     4  C   -0.206135
     5  C   -0.164688
     6  N   -0.586412
     7  C    0.283679
     8  C   -0.175369
     9  C   -0.120082
    10  C    0.315105
    11  C   -0.281832
    12  C   -0.143673
    13  C   -0.278587
    14  C    0.654565
    15  O   -0.446916
    16  O   -0.518378
    17  N   -0.734520
    18  C    0.375989
    19  C    0.004555
    20  C    0.022526
    21  C    0.328924
    22  C   -0.360740
    23  C   -0.074962
    24  C   -0.245272
    25  N   -0.655119
    26  C    0.325581
    27  C    0.011573
    28  C    0.069247
    29  C    0.242319
    30  C   -0.371075
    31  C   -0.220763
    32  C   -0.314247
    33  N   -0.750477
    34  C    0.291078
    35  C    0.040213
    36  C    0.075951
    37  C    0.254962
    38  C   -0.393075
    39  C    0.335650
    40  O   -0.501468
    41  C   -0.344679
    42  C    0.627346
    43  O   -0.399369
    44  O   -0.469028
    45  C   -0.103723
    46  C    0.020391
    47  C   -0.133855
    48  C    0.064982
    49  C   -0.336677
    50  C   -0.176700
    51  C   -0.221909
    52  C   -0.153209
    53  C   -0.066170
    54  C   -0.287399
    55  C   -0.177313
    56  C   -0.167784
    57  C   -0.181962
    58  C   -0.040722
    59  C   -0.305337
    60  C   -0.157540
    61  C   -0.171425
    62  C   -0.172356
    63  C   -0.061642
    64  C   -0.315725
    65  C   -0.285622
    66  H    0.081166
    67  H    0.077966
    68  H    0.097563
    69  H    0.088707
    70  H    0.105908
    71  H    0.112967
    72  H    0.064053
    73  H    0.140276
    74  H    0.134276
    75  H    0.122220
    76  H    0.137418
    77  H    0.134226
    78  H    0.115182
    79  H    0.087144
    80  H    0.105562
    81  H    0.120264
    82  H    0.107770
    83  H    0.107869
    84  H    0.113880
    85  H    0.065604
    86  H    0.131960
    87  H    0.080444
    88  H    0.109314
    89  H    0.118755
    90  H    0.108479
    91  H    0.114144
    92  H    0.106308
    93  H    0.143120
    94  H    0.103734
    95  H    0.162721
    96  H    0.139981
    97  H    0.124464
    98  H    0.118935
    99  H    0.122162
   100  H    0.102296
   101  H    0.089674
   102  H    0.094346
   103  H    0.122292
   104  H    0.140665
   105  H    0.103911
   106  H    0.089632
   107  H    0.069885
   108  H    0.094580
   109  H    0.067565
   110  H    0.101694
   111  H    0.087800
   112  H    0.083686
   113  H    0.109530
   114  H    0.110985
   115  H    0.092888
   116  H    0.087833
   117  H    0.082778
   118  H    0.066728
   119  H    0.066103
   120  H    0.077161
   121  H    0.093388
   122  H    0.091492
   123  H    0.094178
   124  H    0.099590
   125  H    0.065517
   126  H    0.100551
   127  H    0.082776
   128  H    0.100271
   129  H    0.098344
   130  H    0.067491
   131  H    0.087786
   132  H    0.111112
   133  H    0.102551
   134  H    0.102463
   135  H    0.098973
   136  H    0.046447
   137  H    0.105198
 Sum of Mulliken charges =   0.00000

 Dipole moment (field-independent basis, Debye):
    X=              1.2417    Y=              5.5008    Z=              0.7231  Tot=              5.6854
 Quadrupole moment (field-independent basis, Debye-Ang):
   XX=           -358.3318   YY=           -399.0855   ZZ=           -397.4547
   XY=            -24.8193   XZ=             10.2797   YZ=             -5.5341

 Normal termination of Gaussian 09 at Tue Jul  2 22:23:07 2019.
