 Gaussian 16, Revision A.03,
 Gaussian 16:  ES64L-G16RevA.03 25-Dec-2016

 ----------------------------------------------------------------------
 # td=(NStates=1) iop(3/107=0140000000,3/108=0140000000) CAM-B3LYP/6-31
 G(d,p)
 ----------------------------------------------------------------------

 --
 TD
 --
 Symbolic Z-matrix:
 Charge =  0 Multiplicity = 1

                         Standard orientation:
 ---------------------------------------------------------------------
 Center     Atomic      Atomic             Coordinates (Angstroms)
 Number     Number       Type             X           Y           Z
 ---------------------------------------------------------------------
      1         12           0       -7.123756    0.524607    0.112235
      2          6           0       -4.831006   -1.975620    0.480265
      3          6           0       -4.795363    2.952510    1.240253
      4          6           0       -9.433471    3.111397   -0.385569
      5          6           0       -9.607408   -1.737214   -0.815015
      6          7           0       -5.125466    0.415263    0.745461
      7          6           0       -4.269298   -0.711820    0.879320
      8          6           0       -2.896645   -0.359701    1.202135
      9          6           0       -2.913705    1.133538    1.535899
     10          6           0       -4.390492    1.564456    1.132135
     11          6           0       -2.867052    1.465118    3.092862
     12          6           0       -1.898878   -0.609596   -0.000282
     13          6           0       -0.498032   -0.444337    0.446775
     14          6           0        0.530061   -0.607735   -0.710839
     15          8           0        0.261409   -1.009591   -1.865242
     16          8           0        1.752920   -0.475362   -0.236262
     17          7           0       -7.175923    2.547934    0.463214
     18          6           0       -6.096982    3.325790    0.848570
     19          6           0       -6.443952    4.698028    0.841845
     20          6           0       -7.780051    4.816465    0.458284
     21          6           0       -8.162379    3.429603    0.078944
     22          6           0       -5.372581    5.852843    1.049529
     23          6           0       -8.542130    6.048215    0.029659
     24          6           0       -8.353547    7.214732    0.557558
     25          7           0       -9.180891    0.680579   -0.560541
     26          6           0       -9.940436    1.796698   -0.669239
     27          6           0      -11.391884    1.507251   -0.937280
     28          6           0      -11.406187    0.184466   -1.101956
     29          6           0       -9.966035   -0.398893   -0.839152
     30          6           0      -12.342455    2.480202   -1.350806
     31          6           0      -12.496679   -0.768029   -1.630755
     32          6           0      -12.280210   -1.330562   -3.153724
     33          7           0       -7.271065   -1.380744   -0.046783
     34          6           0       -8.351718   -2.164511   -0.416215
     35          6           0       -7.913706   -3.574904   -0.457567
     36          6           0       -6.563078   -3.543825   -0.061155
     37          6           0       -6.168393   -2.213412    0.168347
     38          6           0       -8.707919   -4.806887   -0.737356
     39          6           0       -5.314640   -4.361260    0.260282
     40          8           0       -5.201595   -5.606578    0.281513
     41          6           0       -4.169811   -3.288340    0.467747
     42          6           0       -3.472751   -3.694506    1.829770
     43          8           0       -3.704786   -3.058375    2.843002
     44          8           0       -2.636475   -4.719497    1.773891
     45          6           0       -2.047380   -5.124644    3.005323
     46          6           0        2.771938   -0.669366   -1.271778
     47          6           0        4.114148   -0.374639   -0.740022
     48          6           0        5.154800    0.349808   -1.066341
     49          6           0        5.178457    1.256484   -2.371893
     50          6           0        6.395033    0.324194   -0.329996
     51          6           0        7.557506   -0.310839   -1.021925
     52          6           0        8.823815   -0.258024   -0.075994
     53          6           0       10.180999   -0.676856   -0.843300
     54          6           0       10.141642   -2.104238   -1.224522
     55          6           0       11.374154   -0.364699    0.058234
     56          6           0       12.762041   -0.501192   -0.722389
     57          6           0       13.944832   -0.054886    0.093325
     58          6           0       15.365688   -0.130221   -0.603284
     59          6           0       15.712799   -1.520248   -1.086361
     60          6           0       16.452580    0.375274    0.455619
     61          6           0       17.790641    0.610357   -0.097576
     62          6           0       18.782406    1.324968    0.890318
     63          6           0       20.316607    1.318200    0.349725
     64          6           0       20.407632    2.238278   -0.940793
     65          6           0       21.164437    1.887077    1.451841
     66          1           0       -4.000052    3.658769    1.432749
     67          1           0      -10.274235    3.910749   -0.621055
     68          1           0      -10.218281   -2.621070   -1.199175
     69          1           0       -2.565986   -1.100097    1.943906
     70          1           0       -2.333175    1.841350    1.068568
     71          1           0       -1.825897    1.040052    3.409249
     72          1           0       -3.112107    2.470119    3.271257
     73          1           0       -3.586390    0.553028    3.580614
     74          1           0       -2.017958   -1.475971   -0.562988
     75          1           0       -2.214700    0.067978   -0.857266
     76          1           0       -0.127962    0.648912    0.769117
     77          1           0       -0.083858   -0.968617    1.274180
     78          1           0       -5.876920    6.632826    0.566837
     79          1           0       -5.348056    6.302324    2.044981
     80          1           0       -4.319676    5.807732    0.928061
     81          1           0       -9.211914    5.875748   -0.720544
     82          1           0       -8.939396    8.002442    0.009422
     83          1           0       -7.574301    7.409178    1.385118
     84          1           0      -11.694733    3.206931   -2.045220
     85          1           0      -13.354786    2.176320   -1.946587
     86          1           0      -12.991375    2.902904   -0.372008
     87          1           0      -12.439190   -1.622909   -0.986410
     88          1           0      -13.521966   -0.345570   -1.452456
     89          1           0      -13.185317   -1.982928   -3.473311
     90          1           0      -12.049105   -0.312884   -3.973172
     91          1           0      -11.389824   -1.892382   -3.165041
     92          1           0       -9.050561   -4.830385   -1.619466
     93          1           0       -7.916774   -5.720912   -0.479140
     94          1           0       -9.610378   -4.894798   -0.217813
     95          1           0       -3.483408   -3.547798   -0.218710
     96          1           0       -1.571309   -4.110299    3.513926
     97          1           0       -2.836390   -5.530278    3.424698
     98          1           0       -1.223002   -5.855625    3.038621
     99          1           0        2.855080   -1.642361   -1.905613
    100          1           0        2.574250   -0.058776   -2.174404
    101          1           0        4.467455   -0.872959    0.144051
    102          1           0        4.185734    0.944697   -3.028560
    103          1           0        5.351238    2.306586   -2.162757
    104          1           0        5.877650    0.796830   -2.975986
    105          1           0        6.463539    1.325947    0.225172
    106          1           0        6.229516   -0.067872    0.520821
    107          1           0        7.304566   -1.285939   -1.392072
    108          1           0        7.879584    0.323146   -1.986013
    109          1           0        8.846242    0.641752    0.319848
    110          1           0        8.650713   -0.950882    0.794530
    111          1           0       10.274372   -0.092744   -1.753674
    112          1           0        9.345159   -2.212727   -1.974849
    113          1           0       11.073284   -2.213377   -1.854353
    114          1           0        9.864019   -2.737978   -0.431414
    115          1           0       11.412184    0.661839    0.492366
    116          1           0       11.635284   -0.934968    1.009707
    117          1           0       13.036519   -1.449053   -0.935226
    118          1           0       12.917263    0.160544   -1.641155
    119          1           0       13.806257    0.917165    0.373184
    120          1           0       14.159054   -0.524057    1.092658
    121          1           0       15.343548    0.641889   -1.262797
    122          1           0       15.601387   -2.444011   -0.379280
    123          1           0       15.194850   -1.807688   -2.107488
    124          1           0       16.886645   -1.623266   -1.341528
    125          1           0       15.979490    1.380500    0.735868
    126          1           0       16.332010   -0.355448    1.459615
    127          1           0       18.438823   -0.483454   -0.167237
    128          1           0       17.784563    1.061554   -1.182505
    129          1           0       18.605427    2.297572    1.242519
    130          1           0       18.780144    0.710916    1.752547
    131          1           0       20.754826    0.272494    0.153749
    132          1           0       20.015709    3.154145   -0.783381
    133          1           0       21.458790    2.142674   -1.495818
    134          1           0       19.810412    1.704658   -1.743448
    135          1           0       21.314645    1.142661    2.277916
    136          1           0       22.169493    2.004767    1.013034
    137          1           0       20.840205    2.779417    1.940647
 ---------------------------------------------------------------------

 SCF Done:  E(RCAM-B3LYP) =  -2933.44083068     A.U. after   16 cycles

 Excitation energies and oscillator strengths:

 Excited State   1:      Singlet-A      1.9700 eV  629.36 nm  f=0.2472  <S**2>=0.000
     240 -> 243        0.23735
     241 -> 242        0.66607
 This state for optimization and/or second-order correction.
 Total Energy, E(TD-HF/TD-DFT) =  -2933.36843430
 Copying the excited state density for this state as the 1-particle RhoCI density.

 The electronic state is 1-A.
 Alpha  occ. eigenvalues --  -46.79233 -19.24089 -19.22813 -19.16553 -19.16197
 Alpha  occ. eigenvalues --  -19.16102 -14.38125 -14.35674 -14.35427 -14.34764
 Alpha  occ. eigenvalues --  -10.34958 -10.34724 -10.31020 -10.28709 -10.27404
 Alpha  occ. eigenvalues --  -10.27126 -10.26887 -10.25295 -10.25194 -10.25067
 Alpha  occ. eigenvalues --  -10.24977 -10.24725 -10.24492 -10.24372 -10.24209
 Alpha  occ. eigenvalues --  -10.23749 -10.23737 -10.23728 -10.23417 -10.23349
 Alpha  occ. eigenvalues --  -10.23322 -10.23316 -10.23189 -10.23164 -10.23045
 Alpha  occ. eigenvalues --  -10.22801 -10.22683 -10.22667 -10.22602 -10.22576
 Alpha  occ. eigenvalues --  -10.22482 -10.22475 -10.22389 -10.22363 -10.22245
 Alpha  occ. eigenvalues --  -10.22214 -10.21967 -10.21946 -10.21819 -10.21660
 Alpha  occ. eigenvalues --  -10.21656 -10.21598 -10.21259 -10.21192 -10.20889
 Alpha  occ. eigenvalues --  -10.20678 -10.20648 -10.20553 -10.20447 -10.20398
 Alpha  occ. eigenvalues --  -10.20166 -10.20124 -10.19897 -10.19493 -10.19406
 Alpha  occ. eigenvalues --   -3.07961  -1.82888  -1.82429  -1.82386  -1.14352
 Alpha  occ. eigenvalues --   -1.14288  -1.04334  -1.03992  -1.02977  -0.98224
 Alpha  occ. eigenvalues --   -0.97394  -0.97114  -0.95968  -0.87646  -0.87338
 Alpha  occ. eigenvalues --   -0.85335  -0.85140  -0.84050  -0.83702  -0.83434
 Alpha  occ. eigenvalues --   -0.83078  -0.82571  -0.81790  -0.81613  -0.81311
 Alpha  occ. eigenvalues --   -0.80074  -0.79215  -0.78653  -0.78558  -0.77353
 Alpha  occ. eigenvalues --   -0.77024  -0.76288  -0.75433  -0.75117  -0.73596
 Alpha  occ. eigenvalues --   -0.73184  -0.72436  -0.72238  -0.71080  -0.70813
 Alpha  occ. eigenvalues --   -0.70496  -0.70134  -0.69425  -0.69236  -0.67696
 Alpha  occ. eigenvalues --   -0.66701  -0.66537  -0.65133  -0.64776  -0.63360
 Alpha  occ. eigenvalues --   -0.63204  -0.62067  -0.61045  -0.60638  -0.60342
 Alpha  occ. eigenvalues --   -0.60185  -0.59827  -0.59552  -0.58334  -0.58078
 Alpha  occ. eigenvalues --   -0.57786  -0.56438  -0.55643  -0.55286  -0.54889
 Alpha  occ. eigenvalues --   -0.54293  -0.54053  -0.53623  -0.53549  -0.52998
 Alpha  occ. eigenvalues --   -0.52364  -0.51986  -0.51304  -0.51086  -0.50990
 Alpha  occ. eigenvalues --   -0.50854  -0.50515  -0.50150  -0.49552  -0.49375
 Alpha  occ. eigenvalues --   -0.49234  -0.48764  -0.48408  -0.48182  -0.48073
 Alpha  occ. eigenvalues --   -0.47599  -0.47404  -0.46959  -0.46733  -0.46437
 Alpha  occ. eigenvalues --   -0.46334  -0.46240  -0.46078  -0.45769  -0.45706
 Alpha  occ. eigenvalues --   -0.45496  -0.45257  -0.45054  -0.44937  -0.44727
 Alpha  occ. eigenvalues --   -0.44670  -0.44439  -0.44232  -0.43971  -0.43624
 Alpha  occ. eigenvalues --   -0.43345  -0.43168  -0.43044  -0.42965  -0.42730
 Alpha  occ. eigenvalues --   -0.42297  -0.42251  -0.42037  -0.41880  -0.41498
 Alpha  occ. eigenvalues --   -0.41401  -0.41148  -0.41061  -0.40834  -0.40670
 Alpha  occ. eigenvalues --   -0.40448  -0.40425  -0.40109  -0.39617  -0.39580
 Alpha  occ. eigenvalues --   -0.39271  -0.39265  -0.38824  -0.38655  -0.38372
 Alpha  occ. eigenvalues --   -0.38272  -0.38203  -0.38111  -0.37944  -0.37672
 Alpha  occ. eigenvalues --   -0.37562  -0.37104  -0.37038  -0.36842  -0.36654
 Alpha  occ. eigenvalues --   -0.36490  -0.36239  -0.36139  -0.35970  -0.35627
 Alpha  occ. eigenvalues --   -0.35485  -0.35445  -0.35362  -0.35243  -0.35170
 Alpha  occ. eigenvalues --   -0.34944  -0.34244  -0.33820  -0.33746  -0.33610
 Alpha  occ. eigenvalues --   -0.33381  -0.33225  -0.33145  -0.33027  -0.32795
 Alpha  occ. eigenvalues --   -0.32171  -0.32142  -0.31338  -0.30207  -0.30130
 Alpha  occ. eigenvalues --   -0.30027  -0.29839  -0.29479  -0.27860  -0.27546
 Alpha  occ. eigenvalues --   -0.26599  -0.26417  -0.26106  -0.25263  -0.21671
 Alpha  occ. eigenvalues --   -0.19313
 Alpha virt. eigenvalues --   -0.06670  -0.03629  -0.00279   0.03056   0.03660
 Alpha virt. eigenvalues --    0.04379   0.04763   0.05305   0.05386   0.05706
 Alpha virt. eigenvalues --    0.06595   0.08421   0.09100   0.09386   0.09646

 Mulliken charges:
               1
     1  Mg   0.825546
     2  C    0.084730
     3  C   -0.181285
     4  C   -0.177599
     5  C   -0.161967
     6  N   -0.628719
     7  C    0.318833
     8  C   -0.156803
     9  C   -0.135596
    10  C    0.300031
    11  C   -0.292141
    12  C   -0.180675
    13  C   -0.252909
    14  C    0.602420
    15  O   -0.498963
    16  O   -0.442545
    17  N   -0.702754
    18  C    0.342041
    19  C    0.002334
    20  C   -0.018325
    21  C    0.293539
    22  C   -0.387101
    23  C   -0.024483
    24  C   -0.250676
    25  N   -0.652269
    26  C    0.260419
    27  C    0.089693
    28  C    0.010484
    29  C    0.294019
    30  C   -0.383589
    31  C   -0.243380
    32  C   -0.288584
    33  N   -0.789194
    34  C    0.300840
    35  C   -0.027513
    36  C    0.019570
    37  C    0.280219
    38  C   -0.373653
    39  C    0.365908
    40  O   -0.479243
    41  C   -0.314268
    42  C    0.594044
    43  O   -0.474871
    44  O   -0.429896
    45  C   -0.074965
    46  C   -0.000865
    47  C   -0.112466
    48  C    0.091496
    49  C   -0.357284
    50  C   -0.210490
    51  C   -0.174203
    52  C   -0.176305
    53  C   -0.057555
    54  C   -0.301282
    55  C   -0.174106
    56  C   -0.182914
    57  C   -0.196208
    58  C   -0.049076
    59  C   -0.304726
    60  C   -0.159660
    61  C   -0.154758
    62  C   -0.173237
    63  C   -0.060184
    64  C   -0.303117
    65  C   -0.306172
    66  H    0.089163
    67  H    0.086871
    68  H    0.091367
    69  H    0.127305
    70  H    0.112986
    71  H    0.094721
    72  H    0.122459
    73  H    0.106104
    74  H    0.133146
    75  H    0.115725
    76  H    0.113649
    77  H    0.147580
    78  H    0.123492
    79  H    0.115333
    80  H    0.122251
    81  H    0.091904
    82  H    0.094083
    83  H    0.102880
    84  H    0.116049
    85  H    0.107392
    86  H    0.098167
    87  H    0.114562
    88  H    0.094551
    89  H    0.104364
    90  H    0.067108
    91  H    0.124776
    92  H    0.132717
    93  H    0.132331
    94  H    0.125692
    95  H    0.157812
    96  H    0.104530
    97  H    0.148242
    98  H    0.129256
    99  H    0.135738
   100  H    0.126316
   101  H    0.066458
   102  H    0.072092
   103  H    0.121798
   104  H    0.132684
   105  H    0.086855
   106  H    0.102196
   107  H    0.108816
   108  H    0.075226
   109  H    0.102445
   110  H    0.081961
   111  H    0.089425
   112  H    0.094948
   113  H    0.104323
   114  H    0.112109
   115  H    0.084693
   116  H    0.089896
   117  H    0.116457
   118  H    0.075723
   119  H    0.089316
   120  H    0.071465
   121  H    0.096038
   122  H    0.098028
   123  H    0.087775
   124  H    0.084103
   125  H    0.080819
   126  H    0.065693
   127  H    0.059377
   128  H    0.087625
   129  H    0.092882
   130  H    0.101068
   131  H    0.077144
   132  H    0.116104
   133  H    0.082786
   134  H    0.094758
   135  H    0.090687
   136  H    0.095031
   137  H    0.102983
 Sum of Mulliken charges =  -0.00000

 Dipole moment (field-independent basis, Debye):
    X=              3.1675    Y=              4.0189    Z=              0.1125  Tot=              5.1183
 Quadrupole moment (field-independent basis, Debye-Ang):
   XX=           -358.5193   YY=           -393.4766   ZZ=           -400.7612
   XY=            -15.5532   XZ=             18.3867   YZ=             -3.7795

 Normal termination of Gaussian 16 at Thu Sep  5 05:47:51 2019.
