 Gaussian 16, Revision A.03,
 Gaussian 16:  ES64L-G16RevA.03 25-Dec-2016

 ----------------------------------------------------------------------
 # td=(NStates=1) iop(3/107=0140000000,3/108=0140000000) CAM-B3LYP/6-31
 G(d,p)
 ----------------------------------------------------------------------

 --
 TD
 --
 Symbolic Z-matrix:
 Charge =  0 Multiplicity = 1

                         Standard orientation:
 ---------------------------------------------------------------------
 Center     Atomic      Atomic             Coordinates (Angstroms)
 Number     Number       Type             X           Y           Z
 ---------------------------------------------------------------------
      1         12           0       -7.132947    0.602778    0.079600
      2          6           0       -4.888746   -1.863284    0.675753
      3          6           0       -4.820074    2.835564    1.134031
      4          6           0       -9.449126    3.068428   -0.482033
      5          6           0       -9.560081   -1.729273   -0.941978
      6          7           0       -5.176553    0.507009    0.697524
      7          6           0       -4.332036   -0.706509    0.791998
      8          6           0       -2.962324   -0.378115    1.280756
      9          6           0       -3.029338    1.064295    1.675875
     10          6           0       -4.409554    1.454805    1.220499
     11          6           0       -2.978247    1.292181    3.268362
     12          6           0       -1.926671   -0.605794    0.175470
     13          6           0       -0.409691   -0.550961    0.656926
     14          6           0        0.577304   -0.771631   -0.427822
     15          8           0        0.176748   -1.081858   -1.581785
     16          8           0        1.856623   -0.452302   -0.028889
     17          7           0       -7.158187    2.640833    0.361954
     18          6           0       -6.080151    3.376033    0.795712
     19          6           0       -6.444076    4.759937    0.743925
     20          6           0       -7.755315    4.814226    0.402282
     21          6           0       -8.162328    3.433880    0.067017
     22          6           0       -5.519849    5.933311    1.120963
     23          6           0       -8.685024    5.988007    0.287419
     24          6           0       -8.557581    7.219937    0.713554
     25          7           0       -9.145527    0.628707   -0.489720
     26          6           0       -9.941336    1.756206   -0.708273
     27          6           0      -11.107187    1.426499   -1.288249
     28          6           0      -11.154584    0.049621   -1.422828
     29          6           0       -9.914918   -0.432993   -0.941234
     30          6           0      -12.240193    2.422144   -1.648424
     31          6           0      -12.261500   -0.825704   -1.865414
     32          6           0      -12.062747   -1.252851   -3.322796
     33          7           0       -7.216775   -1.371375   -0.248685
     34          6           0       -8.234151   -2.248505   -0.595395
     35          6           0       -7.884141   -3.580808   -0.449031
     36          6           0       -6.506836   -3.551182   -0.086635
     37          6           0       -6.148131   -2.118347    0.130798
     38          6           0       -8.567460   -4.924348   -0.842095
     39          6           0       -5.424667   -4.334151    0.353796
     40          8           0       -5.180664   -5.494908    0.332374
     41          6           0       -4.248670   -3.276825    0.681411
     42          6           0       -3.603977   -3.695484    1.882377
     43          8           0       -3.744155   -3.127411    2.971674
     44          8           0       -2.668541   -4.691531    1.711191
     45          6           0       -2.017923   -5.065626    2.899791
     46          6           0        2.760587   -0.824617   -1.093984
     47          6           0        4.151727   -0.462887   -0.489714
     48          6           0        5.061252    0.369933   -1.047788
     49          6           0        4.917109    1.226761   -2.305580
     50          6           0        6.348058    0.494023   -0.212019
     51          6           0        7.620264   -0.059791   -1.045466
     52          6           0        8.860971    0.007649   -0.174313
     53          6           0       10.144750   -0.543143   -0.818645
     54          6           0        9.981602   -2.082417   -1.095694
     55          6           0       11.396348   -0.261290   -0.100840
     56          6           0       12.755969   -0.509286   -0.831939
     57          6           0       13.957935   -0.157664    0.175866
     58          6           0       15.286592   -0.286712   -0.577451
     59          6           0       15.709515   -1.566534   -1.071042
     60          6           0       16.488188    0.358333    0.454526
     61          6           0       17.880811    0.448413   -0.262410
     62          6           0       18.887833    1.297077    0.724379
     63          6           0       20.358999    1.375186    0.217838
     64          6           0       20.401562    2.019136   -1.067852
     65          6           0       21.243553    1.992567    1.274825
     66          1           0       -4.005551    3.494557    1.726278
     67          1           0      -10.213811    3.972048   -0.572563
     68          1           0      -10.295564   -2.359250   -1.366120
     69          1           0       -2.566134   -0.837181    2.139654
     70          1           0       -2.213565    1.766589    1.484005
     71          1           0       -1.977872    0.922502    3.819315
     72          1           0       -3.144873    2.352416    3.387582
     73          1           0       -3.892351    0.744179    3.872140
     74          1           0       -1.893193   -1.730760   -0.124411
     75          1           0       -2.132216    0.024599   -0.589422
     76          1           0       -0.256533    0.558877    1.065643
     77          1           0       -0.142445   -1.075315    1.505945
     78          1           0       -5.812575    6.957304    0.517446
     79          1           0       -5.351176    6.108826    2.212310
     80          1           0       -4.301280    5.907058    0.793088
     81          1           0       -9.552643    5.645680   -0.294828
     82          1           0       -9.646940    8.003364    0.644672
     83          1           0       -7.798257    7.665854    1.333881
     84          1           0      -11.966554    3.014679   -2.571375
     85          1           0      -13.186109    1.955947   -1.800225
     86          1           0      -12.355473    3.100306   -0.789001
     87          1           0      -12.203184   -1.626707   -1.316636
     88          1           0      -13.216135   -0.328274   -1.779024
     89          1           0      -12.888742   -2.094174   -3.551405
     90          1           0      -12.161988   -0.301700   -3.817882
     91          1           0      -11.255238   -1.754057   -3.251075
     92          1           0       -8.637297   -4.652978   -2.023693
     93          1           0       -8.212301   -5.738903   -0.510985
     94          1           0       -9.510487   -4.939183   -0.468978
     95          1           0       -3.722068   -3.443898   -0.231715
     96          1           0       -1.116129   -4.267718    3.357474
     97          1           0       -2.658966   -5.300855    3.750068
     98          1           0       -1.513001   -5.849888    2.701457
     99          1           0        2.753362   -1.887059   -1.272854
    100          1           0        2.682977   -0.092579   -2.034176
    101          1           0        4.461894   -1.179867    0.546354
    102          1           0        3.785635    1.357322   -2.501756
    103          1           0        5.289238    2.331869   -2.211709
    104          1           0        5.595241    0.875850   -3.034340
    105          1           0        6.556266    1.614699    0.015300
    106          1           0        6.458264   -0.000622    0.572498
    107          1           0        7.490419   -1.069695   -1.379889
    108          1           0        7.597842    0.674075   -1.878171
    109          1           0        8.852288    1.024434    0.098241
    110          1           0        8.666940   -0.335968    0.863527
    111          1           0       10.242750    0.048250   -1.689607
    112          1           0        9.175542   -2.156940   -1.785054
    113          1           0       10.809694   -2.690793   -1.630384
    114          1           0        9.613820   -2.483422   -0.004739
    115          1           0       11.652291    0.830147    0.172297
    116          1           0       11.283725   -0.698865    0.817047
    117          1           0       12.949635   -1.460926   -1.193102
    118          1           0       12.857741    0.314189   -1.550979
    119          1           0       13.979143    0.882832    0.619687
    120          1           0       13.854875   -0.759852    1.134282
    121          1           0       15.346099    0.481791   -1.281051
    122          1           0       15.765174   -2.478002   -0.329014
    123          1           0       14.892205   -1.913997   -1.813180
    124          1           0       16.525896   -1.381139   -1.732285
    125          1           0       16.151123    1.281985    0.696449
    126          1           0       16.586027   -0.227651    1.498627
    127          1           0       18.296931   -0.685511   -0.367934
    128          1           0       17.852862    0.808659   -1.223778
    129          1           0       18.484090    2.379051    0.556819
    130          1           0       18.879502    1.002067    1.607611
    131          1           0       20.607477    0.141259    0.156415
    132          1           0       20.004175    3.083297   -1.048297
    133          1           0       21.512986    2.106339   -1.463503
    134          1           0       19.844724    1.683302   -1.892799
    135          1           0       21.302882    1.421813    2.187063
    136          1           0       22.347011    2.144745    0.751435
    137          1           0       20.732719    2.930965    1.798879
 ---------------------------------------------------------------------

 SCF Done:  E(RCAM-B3LYP) =  -2933.38415294     A.U. after   16 cycles

 Excitation energies and oscillator strengths:

 Excited State   1:      Singlet-A      2.0415 eV  607.31 nm  f=0.2290  <S**2>=0.000
     240 -> 243       -0.19132
     241 -> 242        0.67791
 This state for optimization and/or second-order correction.
 Total Energy, E(TD-HF/TD-DFT) =  -2933.30912753
 Copying the excited state density for this state as the 1-particle RhoCI density.

 The electronic state is 1-A.
 Alpha  occ. eigenvalues --  -46.79841 -19.23236 -19.21616 -19.17007 -19.15389
 Alpha  occ. eigenvalues --  -19.15160 -14.38468 -14.35555 -14.35467 -14.34417
 Alpha  occ. eigenvalues --  -10.35024 -10.33363 -10.29191 -10.28410 -10.27604
 Alpha  occ. eigenvalues --  -10.26366 -10.26087 -10.25721 -10.25615 -10.25080
 Alpha  occ. eigenvalues --  -10.24877 -10.24513 -10.24505 -10.24135 -10.24052
 Alpha  occ. eigenvalues --  -10.23995 -10.23772 -10.23713 -10.23594 -10.23542
 Alpha  occ. eigenvalues --  -10.23490 -10.23473 -10.23404 -10.23337 -10.23309
 Alpha  occ. eigenvalues --  -10.23294 -10.23266 -10.23166 -10.22580 -10.22503
 Alpha  occ. eigenvalues --  -10.22435 -10.22372 -10.22365 -10.22167 -10.22040
 Alpha  occ. eigenvalues --  -10.21957 -10.21648 -10.21569 -10.21305 -10.21180
 Alpha  occ. eigenvalues --  -10.21158 -10.21059 -10.21042 -10.21006 -10.20906
 Alpha  occ. eigenvalues --  -10.20814 -10.20614 -10.20582 -10.20499 -10.20376
 Alpha  occ. eigenvalues --  -10.20361 -10.20342 -10.20294 -10.20116 -10.19640
 Alpha  occ. eigenvalues --   -3.08503  -1.83443  -1.82986  -1.82903  -1.12323
 Alpha  occ. eigenvalues --   -1.11863  -1.07052  -1.03185  -1.02594  -1.00285
 Alpha  occ. eigenvalues --   -0.99097  -0.98311  -0.97397  -0.87834  -0.85874
 Alpha  occ. eigenvalues --   -0.85747  -0.85170  -0.84662  -0.84247  -0.83882
 Alpha  occ. eigenvalues --   -0.83349  -0.83291  -0.82744  -0.81981  -0.81140
 Alpha  occ. eigenvalues --   -0.80064  -0.79423  -0.78913  -0.77894  -0.77320
 Alpha  occ. eigenvalues --   -0.76855  -0.76288  -0.76015  -0.75146  -0.74047
 Alpha  occ. eigenvalues --   -0.72930  -0.72171  -0.71705  -0.71631  -0.71350
 Alpha  occ. eigenvalues --   -0.71316  -0.70368  -0.69287  -0.69247  -0.68301
 Alpha  occ. eigenvalues --   -0.67539  -0.66435  -0.65758  -0.64882  -0.64265
 Alpha  occ. eigenvalues --   -0.62830  -0.62121  -0.61830  -0.61112  -0.60904
 Alpha  occ. eigenvalues --   -0.59614  -0.59384  -0.59102  -0.58173  -0.57724
 Alpha  occ. eigenvalues --   -0.57424  -0.57076  -0.56855  -0.55686  -0.55048
 Alpha  occ. eigenvalues --   -0.54841  -0.54580  -0.54148  -0.53633  -0.52981
 Alpha  occ. eigenvalues --   -0.52737  -0.52061  -0.51617  -0.51536  -0.51127
 Alpha  occ. eigenvalues --   -0.50678  -0.50280  -0.50099  -0.49971  -0.49885
 Alpha  occ. eigenvalues --   -0.49118  -0.49008  -0.48669  -0.48041  -0.47933
 Alpha  occ. eigenvalues --   -0.47671  -0.47527  -0.47174  -0.46943  -0.46853
 Alpha  occ. eigenvalues --   -0.46792  -0.46705  -0.46234  -0.46054  -0.45935
 Alpha  occ. eigenvalues --   -0.45714  -0.45240  -0.45139  -0.45083  -0.44691
 Alpha  occ. eigenvalues --   -0.44322  -0.44154  -0.43950  -0.43840  -0.43714
 Alpha  occ. eigenvalues --   -0.43417  -0.43308  -0.43080  -0.42793  -0.42503
 Alpha  occ. eigenvalues --   -0.42186  -0.42092  -0.41771  -0.41532  -0.41512
 Alpha  occ. eigenvalues --   -0.41117  -0.40989  -0.40673  -0.40548  -0.40457
 Alpha  occ. eigenvalues --   -0.40263  -0.40241  -0.39963  -0.39881  -0.39686
 Alpha  occ. eigenvalues --   -0.39339  -0.39138  -0.39051  -0.38880  -0.38722
 Alpha  occ. eigenvalues --   -0.38649  -0.38590  -0.38304  -0.38100  -0.38077
 Alpha  occ. eigenvalues --   -0.37773  -0.37764  -0.37653  -0.37327  -0.37194
 Alpha  occ. eigenvalues --   -0.37036  -0.36932  -0.36882  -0.36696  -0.36256
 Alpha  occ. eigenvalues --   -0.36141  -0.35440  -0.35258  -0.35200  -0.34890
 Alpha  occ. eigenvalues --   -0.34392  -0.34052  -0.34027  -0.33735  -0.33723
 Alpha  occ. eigenvalues --   -0.33533  -0.33483  -0.33276  -0.32989  -0.32907
 Alpha  occ. eigenvalues --   -0.31699  -0.31497  -0.31347  -0.30801  -0.30259
 Alpha  occ. eigenvalues --   -0.29844  -0.29533  -0.29224  -0.28325  -0.26883
 Alpha  occ. eigenvalues --   -0.26700  -0.26054  -0.26010  -0.25413  -0.22304
 Alpha  occ. eigenvalues --   -0.20663
 Alpha virt. eigenvalues --   -0.07698  -0.03926  -0.00219   0.01840   0.02576
 Alpha virt. eigenvalues --    0.03507   0.04305   0.04915   0.05133   0.05412
 Alpha virt. eigenvalues --    0.06456   0.08673   0.08925   0.09364   0.09687

 Mulliken charges:
               1
     1  Mg   0.805565
     2  C    0.145305
     3  C   -0.202468
     4  C   -0.197567
     5  C   -0.162257
     6  N   -0.618253
     7  C    0.236365
     8  C   -0.131459
     9  C   -0.154900
    10  C    0.375001
    11  C   -0.319771
    12  C   -0.149564
    13  C   -0.291762
    14  C    0.628638
    15  O   -0.483840
    16  O   -0.454089
    17  N   -0.719152
    18  C    0.312854
    19  C    0.043572
    20  C   -0.003912
    21  C    0.344267
    22  C   -0.384798
    23  C   -0.017754
    24  C   -0.251491
    25  N   -0.710788
    26  C    0.320891
    27  C    0.015068
    28  C    0.028387
    29  C    0.341415
    30  C   -0.375065
    31  C   -0.257922
    32  C   -0.278839
    33  N   -0.727727
    34  C    0.258338
    35  C   -0.016259
    36  C    0.028404
    37  C    0.251566
    38  C   -0.322833
    39  C    0.312870
    40  O   -0.450508
    41  C   -0.349475
    42  C    0.655594
    43  O   -0.498665
    44  O   -0.450072
    45  C   -0.053052
    46  C    0.005609
    47  C   -0.136925
    48  C    0.133294
    49  C   -0.371744
    50  C   -0.205069
    51  C   -0.194079
    52  C   -0.187641
    53  C   -0.050509
    54  C   -0.308409
    55  C   -0.156496
    56  C   -0.186576
    57  C   -0.184273
    58  C   -0.054067
    59  C   -0.290345
    60  C   -0.185537
    61  C   -0.188984
    62  C   -0.144542
    63  C   -0.018922
    64  C   -0.298677
    65  C   -0.296712
    66  H    0.065019
    67  H    0.083711
    68  H    0.075930
    69  H    0.134262
    70  H    0.122573
    71  H    0.101001
    72  H    0.114197
    73  H    0.110407
    74  H    0.114068
    75  H    0.121589
    76  H    0.108225
    77  H    0.143908
    78  H    0.107718
    79  H    0.132129
    80  H    0.086552
    81  H    0.086095
    82  H    0.059357
    83  H    0.115901
    84  H    0.119965
    85  H    0.115580
    86  H    0.120660
    87  H    0.115109
    88  H    0.103275
    89  H    0.077129
    90  H    0.119126
    91  H    0.117277
    92  H    0.116130
    93  H    0.140364
    94  H    0.121962
    95  H    0.176490
    96  H    0.056331
    97  H    0.131502
    98  H    0.123713
    99  H    0.139071
   100  H    0.108784
   101  H    0.064793
   102  H    0.116912
   103  H    0.106540
   104  H    0.143126
   105  H    0.081801
   106  H    0.100839
   107  H    0.103432
   108  H    0.089009
   109  H    0.096041
   110  H    0.079032
   111  H    0.083767
   112  H    0.113948
   113  H    0.099418
   114  H    0.083375
   115  H    0.069758
   116  H    0.087066
   117  H    0.104100
   118  H    0.096112
   119  H    0.079218
   120  H    0.083193
   121  H    0.095181
   122  H    0.097820
   123  H    0.077689
   124  H    0.110606
   125  H    0.098004
   126  H    0.066801
   127  H    0.070626
   128  H    0.100040
   129  H    0.070651
   130  H    0.087705
   131  H    0.050413
   132  H    0.091315
   133  H    0.076740
   134  H    0.113771
   135  H    0.110971
   136  H    0.082289
   137  H    0.083536
 Sum of Mulliken charges =  -0.00000

 Dipole moment (field-independent basis, Debye):
    X=              0.6693    Y=              4.7127    Z=             -0.2196  Tot=              4.7650
 Quadrupole moment (field-independent basis, Debye-Ang):
   XX=           -353.3893   YY=           -399.3908   ZZ=           -397.5034
   XY=            -14.3805   XZ=              8.0896   YZ=              1.9562

 Normal termination of Gaussian 16 at Sat Sep  7 08:10:30 2019.
