 Gaussian 09, Revision D.01,
 Gaussian 09:  ES64L-G09RevD.01 24-Apr-2013

 -------------------------------------
 # td=(NStates=1) CAM-B3LYP/6-31G(d,p)
 -------------------------------------

 --
 TD
 --
 Symbolic Z-matrix:
 Charge =  0 Multiplicity = 1

                         Standard orientation:
 ---------------------------------------------------------------------
 Center     Atomic      Atomic             Coordinates (Angstroms)
 Number     Number       Type             X           Y           Z
 ---------------------------------------------------------------------
      1         12           0       -7.159316    0.611700    0.127106
      2          6           0       -4.825373   -1.921401    0.468660
      3          6           0       -4.903687    2.881823    1.239559
      4          6           0       -9.399188    3.029782   -0.454105
      5          6           0       -9.443961   -1.816834   -0.810154
      6          7           0       -5.139559    0.450861    0.808910
      7          6           0       -4.404299   -0.655505    0.751955
      8          6           0       -2.905330   -0.264873    1.165518
      9          6           0       -3.123402    1.180179    1.794263
     10          6           0       -4.410833    1.516468    1.217721
     11          6           0       -3.004041    1.175262    3.423715
     12          6           0       -1.958302   -0.330998   -0.065307
     13          6           0       -0.518959   -0.212332    0.433355
     14          6           0        0.530475   -0.525503   -0.532338
     15          8           0        0.266022   -1.024271   -1.706037
     16          8           0        1.826625   -0.404686   -0.232687
     17          7           0       -7.123557    2.565227    0.271709
     18          6           0       -6.047843    3.367507    0.780719
     19          6           0       -6.495201    4.776794    0.823456
     20          6           0       -7.808595    4.826371    0.289523
     21          6           0       -8.210448    3.474293    0.033317
     22          6           0       -5.519494    5.789143    1.193333
     23          6           0       -8.613995    5.999448    0.091614
     24          6           0       -8.515191    7.204876    0.778574
     25          7           0       -9.037031    0.560161   -0.573735
     26          6           0       -9.863486    1.734296   -0.715112
     27          6           0      -11.157321    1.409478   -1.193981
     28          6           0      -11.178299    0.022295   -1.262132
     29          6           0       -9.904252   -0.485048   -0.863466
     30          6           0      -12.280025    2.231983   -1.504001
     31          6           0      -12.274846   -0.870828   -1.740211
     32          6           0      -12.270248   -1.223896   -3.232222
     33          7           0       -7.108996   -1.388168   -0.195992
     34          6           0       -8.161204   -2.265314   -0.455870
     35          6           0       -7.757264   -3.708582   -0.518977
     36          6           0       -6.410235   -3.521988   -0.129748
     37          6           0       -6.108515   -2.149198   -0.007583
     38          6           0       -8.590516   -4.905415   -0.769131
     39          6           0       -5.236333   -4.281173    0.199296
     40          8           0       -5.153009   -5.522697    0.219365
     41          6           0       -4.177581   -3.354162    0.544675
     42          6           0       -3.514154   -3.648553    1.912637
     43          8           0       -3.775667   -2.987969    2.909867
     44          8           0       -2.672455   -4.626382    1.824958
     45          6           0       -2.169780   -5.117338    3.139499
     46          6           0        2.834095   -0.668855   -1.248780
     47          6           0        4.184462   -0.368750   -0.664189
     48          6           0        5.098117    0.515199   -1.046840
     49          6           0        4.974469    1.402776   -2.256437
     50          6           0        6.446092    0.471567   -0.286814
     51          6           0        7.574971   -0.228122   -1.054785
     52          6           0        8.854567   -0.268155   -0.091650
     53          6           0       10.156304   -0.672553   -0.993087
     54          6           0       10.105899   -2.117199   -1.298271
     55          6           0       11.420578   -0.288772   -0.131520
     56          6           0       12.776177   -0.513992   -0.775944
     57          6           0       13.949844   -0.278330    0.149542
     58          6           0       15.342192   -0.257421   -0.490921
     59          6           0       15.653644   -1.732084   -0.753165
     60          6           0       16.433384    0.285012    0.477305
     61          6           0       17.807371    0.441156   -0.199879
     62          6           0       18.702519    1.183646    0.700113
     63          6           0       20.208820    1.462714    0.280206
     64          6           0       20.244572    2.389264   -1.015384
     65          6           0       21.215160    1.906158    1.326075
     66          1           0       -4.136375    3.563991    1.397684
     67          1           0      -10.149012    3.822103   -0.640589
     68          1           0      -10.213700   -2.444956   -1.003592
     69          1           0       -2.438869   -0.844095    2.062173
     70          1           0       -2.199970    1.816398    1.292540
     71          1           0       -2.101491    0.936663    3.620593
     72          1           0       -3.185349    2.326303    3.607745
     73          1           0       -3.996609    0.625686    3.858560
     74          1           0       -2.102162   -1.399238   -0.563759
     75          1           0       -2.161198    0.487863   -0.720322
     76          1           0       -0.332477    0.746753    0.916237
     77          1           0       -0.329750   -1.130248    1.165350
     78          1           0       -5.976671    6.539328    0.706420
     79          1           0       -5.407137    6.066733    2.258795
     80          1           0       -4.485673    5.867540    0.892803
     81          1           0       -9.302716    6.008396   -0.787612
     82          1           0       -9.158721    7.889097    0.691022
     83          1           0       -7.942967    7.127270    1.835440
     84          1           0      -12.105459    3.063414   -2.351992
     85          1           0      -13.124195    1.748056   -1.883059
     86          1           0      -12.537517    2.905908   -0.653042
     87          1           0      -12.312012   -1.753963   -0.986149
     88          1           0      -13.056826   -0.274571   -1.482299
     89          1           0      -13.244067   -1.957982   -3.561640
     90          1           0      -12.191371   -0.300935   -3.893160
     91          1           0      -11.316829   -1.622675   -3.315511
     92          1           0       -8.737797   -4.975562   -1.810301
     93          1           0       -7.980499   -5.802704   -0.244362
     94          1           0       -9.515277   -4.704727   -0.184710
     95          1           0       -3.338018   -3.332278   -0.157674
     96          1           0       -1.926925   -4.144328    3.755287
     97          1           0       -3.054144   -5.627785    3.888611
     98          1           0       -1.382953   -5.884258    3.016695
     99          1           0        2.753687   -1.663937   -1.327267
    100          1           0        2.691563   -0.119175   -2.199386
    101          1           0        4.611373   -1.093228    0.141254
    102          1           0        3.976137    1.514750   -2.797198
    103          1           0        5.353472    2.417128   -2.164030
    104          1           0        5.714158    0.920342   -3.084896
    105          1           0        6.846190    1.368690   -0.009263
    106          1           0        6.349949   -0.113555    0.689483
    107          1           0        7.272686   -1.285997   -1.318939
    108          1           0        7.565526    0.313933   -1.992405
    109          1           0        9.008251    0.718970    0.282213
    110          1           0        8.560503   -0.848236    0.813779
    111          1           0       10.286257   -0.041069   -1.889050
    112          1           0        9.255832   -2.295272   -2.088967
    113          1           0       11.077438   -2.322625   -1.642738
    114          1           0        9.972966   -2.599664   -0.310337
    115          1           0       11.505470    0.786988    0.340632
    116          1           0       11.605862   -0.888449    0.868704
    117          1           0       13.045237   -1.438893   -1.325285
    118          1           0       12.761304    0.257816   -1.552491
    119          1           0       13.814396    0.657502    0.743544
    120          1           0       13.794192   -0.981120    1.182489
    121          1           0       15.299806    0.249487   -1.466499
    122          1           0       15.672093   -2.365079    0.210527
    123          1           0       15.034049   -2.036029   -1.540900
    124          1           0       16.495443   -1.755518   -1.217308
    125          1           0       16.019044    1.335859    0.748167
    126          1           0       16.673377   -0.466521    1.269429
    127          1           0       18.323729   -0.333989   -0.330414
    128          1           0       17.667386    1.082851   -1.333519
    129          1           0       18.536566    2.363548    0.863093
    130          1           0       18.755735    0.795832    1.769807
    131          1           0       20.525360    0.541493    0.001438
    132          1           0       19.934648    3.288537   -0.605719
    133          1           0       21.274559    2.423629   -1.544869
    134          1           0       19.587149    1.928414   -1.725870
    135          1           0       21.085084    1.251612    2.205782
    136          1           0       22.315010    1.885318    1.146869
    137          1           0       21.157847    2.929654    1.722954
 ---------------------------------------------------------------------

 SCF Done:  E(RCAM-B3LYP) =  -2932.63504677     A.U. after   18 cycles

 Excitation energies and oscillator strengths:

 Excited State   1:      Singlet-A      2.0768 eV  597.00 nm  f=0.1842  <S**2>=0.000
     240 -> 243        0.28958
     241 -> 242        0.63897
 This state for optimization and/or second-order correction.
 Total Energy, E(TD-HF/TD-KS) =  -2932.55872629
 Copying the excited state density for this state as the 1-particle RhoCI density.

 The electronic state is 1-A.
 Alpha  occ. eigenvalues --  -46.82637 -19.28138 -19.25822 -19.20486 -19.18957
 Alpha  occ. eigenvalues --  -19.18334 -14.41890 -14.39146 -14.38544 -14.38398
 Alpha  occ. eigenvalues --  -10.39475 -10.38886 -10.34515 -10.33478 -10.31350
 Alpha  occ. eigenvalues --  -10.31133 -10.30438 -10.29342 -10.28973 -10.28955
 Alpha  occ. eigenvalues --  -10.28954 -10.28929 -10.28882 -10.28511 -10.28343
 Alpha  occ. eigenvalues --  -10.28305 -10.27887 -10.27885 -10.27773 -10.27674
 Alpha  occ. eigenvalues --  -10.27643 -10.27610 -10.27601 -10.27548 -10.27518
 Alpha  occ. eigenvalues --  -10.27076 -10.27070 -10.26579 -10.26577 -10.26527
 Alpha  occ. eigenvalues --  -10.26460 -10.26342 -10.26297 -10.26288 -10.26204
 Alpha  occ. eigenvalues --  -10.26129 -10.26127 -10.26057 -10.25959 -10.25929
 Alpha  occ. eigenvalues --  -10.25917 -10.25775 -10.25578 -10.25553 -10.25544
 Alpha  occ. eigenvalues --  -10.25328 -10.25162 -10.24917 -10.24756 -10.24703
 Alpha  occ. eigenvalues --  -10.24581 -10.24431 -10.24325 -10.23951 -10.22759
 Alpha  occ. eigenvalues --   -3.11975  -1.86658  -1.86223  -1.86172  -1.19788
 Alpha  occ. eigenvalues --   -1.16858  -1.08975  -1.08762  -1.05753  -1.04480
 Alpha  occ. eigenvalues --   -1.03699  -1.01058  -0.99914  -0.92876  -0.91188
 Alpha  occ. eigenvalues --   -0.90928  -0.89836  -0.89468  -0.89357  -0.88913
 Alpha  occ. eigenvalues --   -0.88669  -0.88175  -0.87852  -0.87279  -0.86021
 Alpha  occ. eigenvalues --   -0.85333  -0.84377  -0.83639  -0.83487  -0.82782
 Alpha  occ. eigenvalues --   -0.82097  -0.81303  -0.81071  -0.80748  -0.78522
 Alpha  occ. eigenvalues --   -0.78117  -0.77146  -0.76680  -0.75911  -0.75843
 Alpha  occ. eigenvalues --   -0.75558  -0.75367  -0.74154  -0.73439  -0.72490
 Alpha  occ. eigenvalues --   -0.72363  -0.70621  -0.69597  -0.68998  -0.68503
 Alpha  occ. eigenvalues --   -0.67531  -0.66826  -0.65247  -0.64810  -0.64212
 Alpha  occ. eigenvalues --   -0.63645  -0.63495  -0.63009  -0.62493  -0.62398
 Alpha  occ. eigenvalues --   -0.62063  -0.60660  -0.59909  -0.59354  -0.59135
 Alpha  occ. eigenvalues --   -0.58865  -0.57952  -0.57826  -0.57532  -0.57290
 Alpha  occ. eigenvalues --   -0.55919  -0.55751  -0.55052  -0.54985  -0.54605
 Alpha  occ. eigenvalues --   -0.54504  -0.54276  -0.53934  -0.53348  -0.52952
 Alpha  occ. eigenvalues --   -0.52734  -0.52694  -0.52497  -0.52196  -0.51948
 Alpha  occ. eigenvalues --   -0.51696  -0.51402  -0.50757  -0.50460  -0.50398
 Alpha  occ. eigenvalues --   -0.50271  -0.50179  -0.49857  -0.49662  -0.49480
 Alpha  occ. eigenvalues --   -0.49405  -0.49082  -0.48815  -0.48525  -0.48402
 Alpha  occ. eigenvalues --   -0.47817  -0.47736  -0.47607  -0.47434  -0.47407
 Alpha  occ. eigenvalues --   -0.47264  -0.46892  -0.46665  -0.46420  -0.45968
 Alpha  occ. eigenvalues --   -0.45641  -0.45231  -0.45159  -0.44806  -0.44602
 Alpha  occ. eigenvalues --   -0.44542  -0.44357  -0.44286  -0.44085  -0.43884
 Alpha  occ. eigenvalues --   -0.43802  -0.43640  -0.43357  -0.43040  -0.42964
 Alpha  occ. eigenvalues --   -0.42806  -0.42445  -0.42404  -0.42284  -0.42188
 Alpha  occ. eigenvalues --   -0.42129  -0.41953  -0.41923  -0.41443  -0.41440
 Alpha  occ. eigenvalues --   -0.41166  -0.40768  -0.40665  -0.40375  -0.40117
 Alpha  occ. eigenvalues --   -0.40069  -0.40035  -0.39822  -0.39514  -0.39141
 Alpha  occ. eigenvalues --   -0.39053  -0.38922  -0.38825  -0.38364  -0.38098
 Alpha  occ. eigenvalues --   -0.37582  -0.37154  -0.36995  -0.36878  -0.36324
 Alpha  occ. eigenvalues --   -0.35954  -0.35925  -0.35522  -0.35484  -0.35332
 Alpha  occ. eigenvalues --   -0.34695  -0.34319  -0.34104  -0.33367  -0.33252
 Alpha  occ. eigenvalues --   -0.33180  -0.32106  -0.31469  -0.30444  -0.29696
 Alpha  occ. eigenvalues --   -0.29630  -0.29384  -0.27500  -0.26728  -0.23024
 Alpha  occ. eigenvalues --   -0.20854
 Alpha virt. eigenvalues --   -0.05837  -0.03584   0.01063   0.03371   0.05445
 Alpha virt. eigenvalues --    0.06018   0.06057   0.06452   0.06965   0.07531
 Alpha virt. eigenvalues --    0.08574   0.10537   0.11464   0.11604   0.11621

 Mulliken charges:
               1
     1  Mg   0.807538
     2  C    0.078452
     3  C   -0.199688
     4  C   -0.199948
     5  C   -0.151866
     6  N   -0.616237
     7  C    0.285079
     8  C   -0.169278
     9  C   -0.171615
    10  C    0.337459
    11  C   -0.279132
    12  C   -0.150162
    13  C   -0.255053
    14  C    0.591373
    15  O   -0.532548
    16  O   -0.480080
    17  N   -0.739897
    18  C    0.335607
    19  C    0.003192
    20  C    0.052267
    21  C    0.314928
    22  C   -0.396133
    23  C   -0.111980
    24  C   -0.221847
    25  N   -0.701812
    26  C    0.266953
    27  C    0.107674
    28  C   -0.032236
    29  C    0.293408
    30  C   -0.400560
    31  C   -0.230695
    32  C   -0.287873
    33  N   -0.696984
    34  C    0.216339
    35  C    0.062610
    36  C   -0.025069
    37  C    0.335292
    38  C   -0.370578
    39  C    0.364794
    40  O   -0.499075
    41  C   -0.301028
    42  C    0.629314
    43  O   -0.487419
    44  O   -0.419895
    45  C   -0.096476
    46  C    0.058870
    47  C   -0.153452
    48  C    0.147212
    49  C   -0.377609
    50  C   -0.238086
    51  C   -0.181158
    52  C   -0.185718
    53  C   -0.059694
    54  C   -0.285639
    55  C   -0.187738
    56  C   -0.176274
    57  C   -0.158437
    58  C   -0.079609
    59  C   -0.293629
    60  C   -0.164201
    61  C   -0.138154
    62  C   -0.177430
    63  C   -0.078515
    64  C   -0.304392
    65  C   -0.322577
    66  H    0.075954
    67  H    0.078729
    68  H    0.070388
    69  H    0.104819
    70  H    0.075070
    71  H    0.127406
    72  H    0.100153
    73  H    0.130531
    74  H    0.122097
    75  H    0.123542
    76  H    0.133596
    77  H    0.132424
    78  H    0.132832
    79  H    0.118011
    80  H    0.123526
    81  H    0.101973
    82  H    0.100353
    83  H    0.093570
    84  H    0.095340
    85  H    0.126387
    86  H    0.122391
    87  H    0.093490
    88  H    0.106460
    89  H    0.083842
    90  H    0.106362
    91  H    0.122349
    92  H    0.146893
    93  H    0.148115
    94  H    0.128374
    95  H    0.169266
    96  H    0.144449
    97  H    0.115348
    98  H    0.142520
    99  H    0.130548
   100  H    0.124482
   101  H    0.079344
   102  H    0.117756
   103  H    0.123444
   104  H    0.103019
   105  H    0.107951
   106  H    0.088498
   107  H    0.092268
   108  H    0.094171
   109  H    0.096572
   110  H    0.100749
   111  H    0.091391
   112  H    0.096461
   113  H    0.107900
   114  H    0.106322
   115  H    0.084748
   116  H    0.067143
   117  H    0.097468
   118  H    0.089125
   119  H    0.073005
   120  H    0.050024
   121  H    0.089976
   122  H    0.097127
   123  H    0.096814
   124  H    0.102924
   125  H    0.094484
   126  H    0.097313
   127  H    0.112137
   128  H    0.053595
   129  H    0.064605
   130  H    0.084875
   131  H    0.090567
   132  H    0.110749
   133  H    0.087654
   134  H    0.102525
   135  H    0.093973
   136  H    0.105285
   137  H    0.095565
 Sum of Mulliken charges =   0.00000

 Dipole moment (field-independent basis, Debye):
    X=              2.7471    Y=              3.7638    Z=              1.2760  Tot=              4.8313
 Quadrupole moment (field-independent basis, Debye-Ang):
   XX=           -341.0292   YY=           -394.4222   ZZ=           -393.7510
   XY=            -24.0738   XZ=              4.6690   YZ=             -6.9937

 Normal termination of Gaussian 09 at Thu Jul  4 13:03:26 2019.
