 Gaussian 09, Revision D.01,
 Gaussian 09:  ES64L-G09RevD.01 24-Apr-2013

 -------------------------------------
 # td=(NStates=1) CAM-B3LYP/6-31G(d,p)
 -------------------------------------

 --
 TD
 --
 Symbolic Z-matrix:
 Charge =  0 Multiplicity = 1

                         Standard orientation:
 ---------------------------------------------------------------------
 Center     Atomic      Atomic             Coordinates (Angstroms)
 Number     Number       Type             X           Y           Z
 ---------------------------------------------------------------------
      1         12           0       -7.102036    0.636427   -0.030430
      2          6           0       -4.870667   -1.893899    0.524196
      3          6           0       -4.768211    2.884878    1.110343
      4          6           0       -9.424320    3.073136   -0.479025
      5          6           0       -9.522856   -1.744943   -0.852483
      6          7           0       -5.087558    0.505176    0.703603
      7          6           0       -4.346110   -0.675141    0.812703
      8          6           0       -2.906477   -0.426102    1.230819
      9          6           0       -3.071833    1.051363    1.662120
     10          6           0       -4.317249    1.533842    1.121514
     11          6           0       -2.946164    1.263679    3.238948
     12          6           0       -1.911148   -0.657966    0.054588
     13          6           0       -0.459363   -0.482421    0.549946
     14          6           0        0.473349   -0.726289   -0.723317
     15          8           0        0.173886   -0.971499   -1.800753
     16          8           0        1.834716   -0.437729   -0.294283
     17          7           0       -7.085519    2.597702    0.232329
     18          6           0       -6.050092    3.413283    0.679844
     19          6           0       -6.428869    4.837836    0.806052
     20          6           0       -7.805799    4.860678    0.357271
     21          6           0       -8.156087    3.581991    0.017863
     22          6           0       -5.540724    5.905532    1.160666
     23          6           0       -8.633461    5.946038    0.150971
     24          6           0       -8.542561    7.100671    0.832466
     25          7           0       -9.079746    0.654313   -0.629750
     26          6           0       -9.798809    1.745802   -0.671314
     27          6           0      -11.209546    1.466303   -1.029909
     28          6           0      -11.191982    0.042714   -1.298638
     29          6           0       -9.921790   -0.400386   -0.898171
     30          6           0      -12.299424    2.397336   -1.227900
     31          6           0      -12.339148   -0.809579   -1.688052
     32          6           0      -12.257256   -1.202676   -3.223549
     33          7           0       -7.155143   -1.366616   -0.219434
     34          6           0       -8.214842   -2.259030   -0.580660
     35          6           0       -7.822884   -3.646562   -0.488994
     36          6           0       -6.466590   -3.555415   -0.092575
     37          6           0       -6.153039   -2.234302    0.079419
     38          6           0       -8.696049   -4.757348   -0.785055
     39          6           0       -5.357528   -4.423035    0.157335
     40          8           0       -5.274824   -5.573420    0.140623
     41          6           0       -4.185434   -3.289795    0.611465
     42          6           0       -3.668653   -3.699463    2.008114
     43          8           0       -3.857652   -3.103170    3.073185
     44          8           0       -2.748050   -4.699083    1.890843
     45          6           0       -2.248503   -5.183642    3.086098
     46          6           0        2.818679   -0.680853   -1.288186
     47          6           0        4.137700   -0.437000   -0.570017
     48          6           0        5.177181    0.430607   -0.948749
     49          6           0        5.172601    1.424574   -2.138501
     50          6           0        6.400129    0.478714   -0.106170
     51          6           0        7.591362   -0.115558   -0.939384
     52          6           0        8.940939   -0.076861   -0.226355
     53          6           0       10.166117   -0.514368   -0.992519
     54          6           0        9.952273   -2.004141   -1.407724
     55          6           0       11.441503   -0.335285   -0.132482
     56          6           0       12.800132   -0.409307   -0.913005
     57          6           0       13.983431   -0.207585    0.199067
     58          6           0       15.456897   -0.189248   -0.442787
     59          6           0       15.761962   -1.670293   -0.865187
     60          6           0       16.399360    0.414656    0.436448
     61          6           0       17.772984    0.597952   -0.124597
     62          6           0       18.818626    1.223989    0.810813
     63          6           0       20.306890    1.278943    0.326751
     64          6           0       20.422818    1.954312   -1.026617
     65          6           0       21.182087    1.909104    1.411124
     66          1           0       -4.205477    3.695857    1.502938
     67          1           0       -9.980517    3.810962   -0.873550
     68          1           0      -10.145090   -2.522543   -1.215910
     69          1           0       -2.597275   -1.036050    2.118032
     70          1           0       -2.259703    1.544223    1.117442
     71          1           0       -1.959782    1.011612    3.588433
     72          1           0       -3.126048    2.290892    3.563689
     73          1           0       -3.791673    0.581811    3.743814
     74          1           0       -2.167093   -1.682092   -0.233362
     75          1           0       -2.181633    0.044111   -0.728569
     76          1           0       -0.310466    0.505676    0.947270
     77          1           0       -0.218418   -1.366826    1.306382
     78          1           0       -5.801306    7.018319    0.845437
     79          1           0       -5.421815    5.909912    2.385174
     80          1           0       -4.510807    5.739054    0.802174
     81          1           0       -9.224518    6.013551   -0.668739
     82          1           0       -9.261873    7.748834    0.640364
     83          1           0       -7.791853    7.105538    1.705618
     84          1           0      -12.327841    3.196390   -2.255296
     85          1           0      -13.154322    1.907656   -1.196959
     86          1           0      -12.271255    3.145105   -0.333419
     87          1           0      -12.244740   -1.624134   -1.001636
     88          1           0      -13.179273   -0.132036   -1.404232
     89          1           0      -12.879768   -2.074623   -3.646758
     90          1           0      -12.292156   -0.278370   -4.041972
     91          1           0      -11.393782   -1.730276   -3.413886
     92          1           0       -9.303018   -4.827132   -1.663921
     93          1           0       -7.945984   -5.391470   -0.753083
     94          1           0       -9.410341   -5.097512    0.083145
     95          1           0       -3.401986   -3.536575   -0.063203
     96          1           0       -1.763672   -4.503977    3.418446
     97          1           0       -3.038794   -5.417856    3.730835
     98          1           0       -1.557172   -5.992969    2.776071
     99          1           0        2.667293   -1.749011   -1.872010
    100          1           0        2.762391   -0.008393   -1.910769
    101          1           0        4.290358   -0.816880    0.338433
    102          1           0        4.198958    1.402145   -2.436624
    103          1           0        5.399170    2.415665   -1.818382
    104          1           0        5.809665    1.085558   -2.942288
    105          1           0        6.635200    1.454495    0.045100
    106          1           0        6.360112   -0.172682    0.786216
    107          1           0        7.223068   -1.165886   -0.989938
    108          1           0        7.895089    0.515171   -2.021552
    109          1           0        8.964930    1.008344    0.101292
    110          1           0        8.811648   -0.445544    0.918925
    111          1           0       10.317957    0.135052   -1.877604
    112          1           0        9.110875   -2.444583   -2.101409
    113          1           0       10.871250   -2.161801   -2.065688
    114          1           0        9.881937   -2.750401   -0.556311
    115          1           0       11.594941    0.715135    0.260551
    116          1           0       11.312959   -0.717828    0.821271
    117          1           0       13.118249   -1.173285   -1.544081
    118          1           0       12.832735    0.507326   -1.643433
    119          1           0       13.989327    0.895808    0.514244
    120          1           0       13.736389   -0.910553    1.116983
    121          1           0       15.339087    0.324120   -1.538849
    122          1           0       15.796162   -2.465439   -0.031434
    123          1           0       14.857604   -2.270398   -1.321323
    124          1           0       16.651993   -1.852932   -1.361904
    125          1           0       16.051331    1.338796    0.801651
    126          1           0       16.543775   -0.219461    1.281045
    127          1           0       18.213169   -0.153353   -0.721049
    128          1           0       17.633518    1.407183   -1.055866
    129          1           0       18.531833    2.250530    0.939735
    130          1           0       18.987094    0.731521    1.791734
    131          1           0       20.444149    0.183929    0.246739
    132          1           0       19.959978    2.942647   -0.948162
    133          1           0       21.355436    1.904127   -1.381456
    134          1           0       19.749998    1.482372   -1.779682
    135          1           0       21.087274    1.428658    2.466197
    136          1           0       22.321230    1.566372    1.323223
    137          1           0       21.005607    2.979827    1.416592
 ---------------------------------------------------------------------

 SCF Done:  E(RCAM-B3LYP) =  -2932.61737010     A.U. after   18 cycles

 Excitation energies and oscillator strengths:

 Excited State   1:      Singlet-A      1.9826 eV  625.37 nm  f=0.2426  <S**2>=0.000
     240 -> 243       -0.25133
     241 -> 242        0.65237
 This state for optimization and/or second-order correction.
 Total Energy, E(TD-HF/TD-KS) =  -2932.54451203
 Copying the excited state density for this state as the 1-particle RhoCI density.

 The electronic state is 1-A.
 Alpha  occ. eigenvalues --  -46.83643 -19.25324 -19.24214 -19.23465 -19.21567
 Alpha  occ. eigenvalues --  -19.20431 -14.41478 -14.39361 -14.39088 -14.38979
 Alpha  occ. eigenvalues --  -10.39705 -10.38970 -10.35106 -10.30956 -10.30679
 Alpha  occ. eigenvalues --  -10.30195 -10.30135 -10.29631 -10.29251 -10.28861
 Alpha  occ. eigenvalues --  -10.28687 -10.28498 -10.28429 -10.28423 -10.28259
 Alpha  occ. eigenvalues --  -10.28152 -10.27997 -10.27948 -10.27826 -10.27380
 Alpha  occ. eigenvalues --  -10.27292 -10.27238 -10.27213 -10.27086 -10.27024
 Alpha  occ. eigenvalues --  -10.26965 -10.26938 -10.26908 -10.26883 -10.26874
 Alpha  occ. eigenvalues --  -10.26821 -10.26801 -10.26579 -10.26315 -10.26272
 Alpha  occ. eigenvalues --  -10.26213 -10.26086 -10.26018 -10.25838 -10.25836
 Alpha  occ. eigenvalues --  -10.25773 -10.25770 -10.25697 -10.25680 -10.25573
 Alpha  occ. eigenvalues --  -10.25286 -10.25179 -10.24857 -10.24836 -10.24775
 Alpha  occ. eigenvalues --  -10.24751 -10.24547 -10.24448 -10.23871 -10.23336
 Alpha  occ. eigenvalues --   -3.12766  -1.87464  -1.87009  -1.86958  -1.19246
 Alpha  occ. eigenvalues --   -1.17911  -1.15362  -1.10153  -1.08088  -1.04341
 Alpha  occ. eigenvalues --   -1.03964  -1.02538  -1.00993  -0.91674  -0.90986
 Alpha  occ. eigenvalues --   -0.90546  -0.90505  -0.89696  -0.89202  -0.88883
 Alpha  occ. eigenvalues --   -0.88630  -0.88204  -0.87928  -0.86888  -0.85503
 Alpha  occ. eigenvalues --   -0.84695  -0.83988  -0.83738  -0.82889  -0.82407
 Alpha  occ. eigenvalues --   -0.81959  -0.80839  -0.80711  -0.79450  -0.79022
 Alpha  occ. eigenvalues --   -0.77674  -0.77222  -0.76209  -0.76120  -0.75817
 Alpha  occ. eigenvalues --   -0.75482  -0.74809  -0.73947  -0.72743  -0.72260
 Alpha  occ. eigenvalues --   -0.71726  -0.71081  -0.70154  -0.69311  -0.68549
 Alpha  occ. eigenvalues --   -0.67181  -0.66214  -0.65207  -0.65163  -0.64834
 Alpha  occ. eigenvalues --   -0.64420  -0.62987  -0.62959  -0.62398  -0.62289
 Alpha  occ. eigenvalues --   -0.61518  -0.60710  -0.60623  -0.59922  -0.59193
 Alpha  occ. eigenvalues --   -0.58824  -0.57898  -0.57784  -0.57185  -0.57002
 Alpha  occ. eigenvalues --   -0.56435  -0.56125  -0.55848  -0.54902  -0.54798
 Alpha  occ. eigenvalues --   -0.54680  -0.54526  -0.53885  -0.53740  -0.53264
 Alpha  occ. eigenvalues --   -0.53252  -0.52715  -0.52423  -0.52095  -0.52020
 Alpha  occ. eigenvalues --   -0.51443  -0.51264  -0.51028  -0.50944  -0.50537
 Alpha  occ. eigenvalues --   -0.50384  -0.50209  -0.50015  -0.49623  -0.49438
 Alpha  occ. eigenvalues --   -0.49170  -0.48995  -0.48961  -0.48527  -0.48255
 Alpha  occ. eigenvalues --   -0.47995  -0.47902  -0.47847  -0.47530  -0.47399
 Alpha  occ. eigenvalues --   -0.47006  -0.46892  -0.46730  -0.46385  -0.46184
 Alpha  occ. eigenvalues --   -0.46131  -0.46047  -0.45835  -0.45765  -0.45620
 Alpha  occ. eigenvalues --   -0.45365  -0.45281  -0.44838  -0.44554  -0.44298
 Alpha  occ. eigenvalues --   -0.44241  -0.43981  -0.43850  -0.43808  -0.43465
 Alpha  occ. eigenvalues --   -0.43271  -0.42959  -0.42784  -0.42672  -0.42629
 Alpha  occ. eigenvalues --   -0.41947  -0.41690  -0.41621  -0.41389  -0.41280
 Alpha  occ. eigenvalues --   -0.41027  -0.41006  -0.40716  -0.40496  -0.40464
 Alpha  occ. eigenvalues --   -0.40170  -0.40090  -0.39934  -0.39868  -0.38822
 Alpha  occ. eigenvalues --   -0.38616  -0.38615  -0.38429  -0.37889  -0.37779
 Alpha  occ. eigenvalues --   -0.37759  -0.37322  -0.36747  -0.36734  -0.36605
 Alpha  occ. eigenvalues --   -0.36103  -0.35783  -0.35719  -0.35389  -0.35326
 Alpha  occ. eigenvalues --   -0.35275  -0.35172  -0.34829  -0.34490  -0.33862
 Alpha  occ. eigenvalues --   -0.33596  -0.33251  -0.31446  -0.30792  -0.29758
 Alpha  occ. eigenvalues --   -0.29338  -0.28119  -0.27446  -0.26778  -0.22726
 Alpha  occ. eigenvalues --   -0.21514
 Alpha virt. eigenvalues --   -0.07227  -0.03272   0.01454   0.04179   0.05606
 Alpha virt. eigenvalues --    0.05880   0.06156   0.06445   0.06988   0.07325
 Alpha virt. eigenvalues --    0.08425   0.10754   0.11067   0.11531   0.11913

 Mulliken charges:
               1
     1  Mg   0.808015
     2  C    0.088220
     3  C   -0.215352
     4  C   -0.168640
     5  C   -0.170327
     6  N   -0.636928
     7  C    0.283246
     8  C   -0.155946
     9  C   -0.168054
    10  C    0.389161
    11  C   -0.308053
    12  C   -0.169553
    13  C   -0.264150
    14  C    0.592522
    15  O   -0.388043
    16  O   -0.524766
    17  N   -0.705379
    18  C    0.304081
    19  C    0.069680
    20  C    0.051551
    21  C    0.240624
    22  C   -0.410002
    23  C   -0.096839
    24  C   -0.229591
    25  N   -0.688053
    26  C    0.354765
    27  C    0.001074
    28  C    0.020881
    29  C    0.296494
    30  C   -0.353317
    31  C   -0.233272
    32  C   -0.309310
    33  N   -0.716372
    34  C    0.219753
    35  C    0.053590
    36  C    0.011664
    37  C    0.291318
    38  C   -0.385468
    39  C    0.339134
    40  O   -0.402774
    41  C   -0.372139
    42  C    0.613212
    43  O   -0.491698
    44  O   -0.455888
    45  C   -0.050874
    46  C    0.069508
    47  C   -0.137279
    48  C    0.076610
    49  C   -0.358067
    50  C   -0.216873
    51  C   -0.159031
    52  C   -0.168203
    53  C   -0.050198
    54  C   -0.307075
    55  C   -0.173754
    56  C   -0.192135
    57  C   -0.182991
    58  C   -0.049816
    59  C   -0.322726
    60  C   -0.145527
    61  C   -0.189679
    62  C   -0.164863
    63  C   -0.070483
    64  C   -0.301872
    65  C   -0.303275
    66  H    0.066161
    67  H    0.086588
    68  H    0.089035
    69  H    0.127145
    70  H    0.099288
    71  H    0.115718
    72  H    0.114156
    73  H    0.118093
    74  H    0.122260
    75  H    0.120196
    76  H    0.146218
    77  H    0.130927
    78  H    0.123931
    79  H    0.104211
    80  H    0.130758
    81  H    0.103231
    82  H    0.095891
    83  H    0.102000
    84  H    0.078880
    85  H    0.121236
    86  H    0.109071
    87  H    0.118470
    88  H    0.103461
    89  H    0.091074
    90  H    0.096610
    91  H    0.124099
    92  H    0.131161
    93  H    0.153609
    94  H    0.117862
    95  H    0.155916
    96  H    0.120300
    97  H    0.126343
    98  H    0.112671
    99  H    0.093545
   100  H    0.104455
   101  H    0.080843
   102  H    0.117873
   103  H    0.119819
   104  H    0.128756
   105  H    0.101658
   106  H    0.101058
   107  H    0.100977
   108  H    0.058104
   109  H    0.075441
   110  H    0.060187
   111  H    0.089125
   112  H    0.098977
   113  H    0.091784
   114  H    0.100757
   115  H    0.092734
   116  H    0.101562
   117  H    0.109929
   118  H    0.079806
   119  H    0.079628
   120  H    0.090099
   121  H    0.069155
   122  H    0.081588
   123  H    0.089319
   124  H    0.110897
   125  H    0.101103
   126  H    0.104525
   127  H    0.103418
   128  H    0.048958
   129  H    0.086994
   130  H    0.084038
   131  H    0.082303
   132  H    0.096769
   133  H    0.111634
   134  H    0.096880
   135  H    0.091606
   136  H    0.085549
   137  H    0.111108
 Sum of Mulliken charges =   0.00000

 Dipole moment (field-independent basis, Debye):
    X=              1.0387    Y=              4.1061    Z=              0.0553  Tot=              4.2358
 Quadrupole moment (field-independent basis, Debye-Ang):
   XX=           -346.8035   YY=           -385.8945   ZZ=           -397.6996
   XY=            -17.8126   XZ=             16.1584   YZ=             -0.4245

 Normal termination of Gaussian 09 at Sat Jul  6 11:21:10 2019.
