 Gaussian 16, Revision A.03,
 Gaussian 16:  ES64L-G16RevA.03 25-Dec-2016

 ----------------------------------------------------------------------
 # td=(NStates=1) iop(3/107=0140000000,3/108=0140000000) CAM-B3LYP/6-31
 G(d,p)
 ----------------------------------------------------------------------

 --
 TD
 --
 Symbolic Z-matrix:
 Charge =  0 Multiplicity = 1

                         Standard orientation:
 ---------------------------------------------------------------------
 Center     Atomic      Atomic             Coordinates (Angstroms)
 Number     Number       Type             X           Y           Z
 ---------------------------------------------------------------------
      1         12           0       -7.112478    0.588214    0.083119
      2          6           0       -4.884906   -1.939551    0.554911
      3          6           0       -4.799482    2.850613    1.184731
      4          6           0       -9.321773    3.080950   -0.423010
      5          6           0       -9.573837   -1.809300   -0.916074
      6          7           0       -5.159822    0.393183    0.877793
      7          6           0       -4.433047   -0.730644    0.829966
      8          6           0       -2.884943   -0.427241    1.273601
      9          6           0       -3.058982    1.153722    1.705504
     10          6           0       -4.431422    1.448963    1.251219
     11          6           0       -3.068848    1.184807    3.264445
     12          6           0       -1.969359   -0.611139    0.086115
     13          6           0       -0.543773   -0.496569    0.507655
     14          6           0        0.506043   -0.615717   -0.653731
     15          8           0        0.196147   -0.977734   -1.754058
     16          8           0        1.787539   -0.414532   -0.168809
     17          7           0       -7.112592    2.619234    0.333536
     18          6           0       -6.025739    3.332827    0.788914
     19          6           0       -6.332748    4.747064    0.781942
     20          6           0       -7.679156    4.798441    0.323342
     21          6           0       -8.057872    3.466662    0.063328
     22          6           0       -5.448879    5.897487    1.240712
     23          6           0       -8.482206    6.003902    0.046601
     24          6           0       -8.359852    7.249765    0.743379
     25          7           0       -9.007048    0.756289   -0.574456
     26          6           0       -9.798259    1.797224   -0.743675
     27          6           0      -11.219403    1.421170   -1.129098
     28          6           0      -11.225909    0.119277   -1.279156
     29          6           0       -9.870971   -0.325102   -0.887735
     30          6           0      -12.180681    2.505264   -1.295896
     31          6           0      -12.396255   -0.597064   -1.668479
     32          6           0      -12.167752   -1.142124   -3.122625
     33          7           0       -7.244792   -1.415450   -0.167009
     34          6           0       -8.255667   -2.292167   -0.541041
     35          6           0       -7.851462   -3.686160   -0.603433
     36          6           0       -6.561499   -3.604012    0.054657
     37          6           0       -6.159891   -2.227458    0.152685
     38          6           0       -8.609325   -4.847703   -0.971622
     39          6           0       -5.313027   -4.414226    0.211009
     40          8           0       -5.067014   -5.566409    0.167098
     41          6           0       -4.227804   -3.291191    0.557419
     42          6           0       -3.553328   -3.714164    1.889847
     43          8           0       -3.682530   -3.166575    2.927306
     44          8           0       -2.699809   -4.885484    1.680561
     45          6           0       -2.135606   -5.362808    2.921347
     46          6           0        2.804659   -0.587020   -1.213219
     47          6           0        4.117832   -0.459951   -0.558235
     48          6           0        5.027023    0.557119   -0.924851
     49          6           0        4.923600    1.343554   -2.191920
     50          6           0        6.385131    0.650401   -0.281693
     51          6           0        7.545320   -0.039282   -0.995331
     52          6           0        8.839101    0.000087   -0.196123
     53          6           0       10.048803   -0.503464   -0.907809
     54          6           0        9.955144   -1.866967   -1.586274
     55          6           0       11.470451   -0.448532    0.006503
     56          6           0       12.742397   -0.461367   -0.827886
     57          6           0       13.922215   -0.130253    0.136545
     58          6           0       15.323268   -0.238216   -0.554758
     59          6           0       15.692928   -1.712107   -0.909546
     60          6           0       16.370777    0.366863    0.442421
     61          6           0       17.843498    0.586359   -0.190599
     62          6           0       18.934425    1.157222    0.774916
     63          6           0       20.238672    1.354584    0.319019
     64          6           0       20.424153    2.181001   -0.928215
     65          6           0       21.169064    1.712673    1.424304
     66          1           0       -3.880817    3.535262    1.433476
     67          1           0      -10.048579    3.878391   -0.514972
     68          1           0      -10.320528   -2.512388   -1.164506
     69          1           0       -2.539755   -1.108542    2.050716
     70          1           0       -2.261882    1.671851    1.177516
     71          1           0       -2.036526    0.943550    3.700105
     72          1           0       -3.498761    2.207626    3.771036
     73          1           0       -3.803937    0.401400    3.711727
     74          1           0       -2.137915   -1.613783   -0.353665
     75          1           0       -2.258945    0.111958   -0.811378
     76          1           0       -0.481387    0.620678    0.935700
     77          1           0       -0.153115   -1.197557    1.088531
     78          1           0       -5.663691    6.793568    0.426402
     79          1           0       -5.657817    6.233478    2.312400
     80          1           0       -4.309872    5.548440    1.062074
     81          1           0       -9.231523    5.968982   -0.601069
     82          1           0       -9.076664    7.990306    0.643851
     83          1           0       -7.636575    7.392902    1.551822
     84          1           0      -11.858745    3.457379   -1.867537
     85          1           0      -13.252714    2.422812   -1.830937
     86          1           0      -12.381797    3.065189   -0.308230
     87          1           0      -12.419716   -1.504778   -0.999955
     88          1           0      -13.322352   -0.036298   -1.685415
     89          1           0      -13.070924   -1.799520   -3.413412
     90          1           0      -11.968885   -0.226753   -3.853613
     91          1           0      -11.303782   -1.835666   -3.262294
     92          1           0       -9.104234   -4.749483   -2.078547
     93          1           0       -7.978593   -5.667225   -0.747478
     94          1           0       -9.672460   -5.054603   -0.442316
     95          1           0       -3.375573   -3.336237   -0.173544
     96          1           0       -1.790310   -4.535171    3.466561
     97          1           0       -2.801174   -5.756744    3.671699
     98          1           0       -1.349408   -6.238255    2.800475
     99          1           0        2.693029   -1.644373   -1.645365
    100          1           0        2.620511    0.238901   -1.882989
    101          1           0        4.646351   -1.246738    0.094254
    102          1           0        3.866889    1.466644   -2.395697
    103          1           0        5.341721    2.327248   -2.185616
    104          1           0        5.392846    0.766047   -2.946938
    105          1           0        6.609164    1.665910    0.013798
    106          1           0        6.469176    0.165836    0.782937
    107          1           0        7.177729   -1.128839   -1.313187
    108          1           0        7.582667    0.380248   -1.978627
    109          1           0        8.896080    1.010452    0.304839
    110          1           0        8.693615   -0.746501    0.613477
    111          1           0       10.272997    0.328773   -1.666999
    112          1           0        9.244017   -2.046092   -2.247533
    113          1           0       10.913436   -2.132104   -1.961257
    114          1           0        9.533503   -2.571897   -0.772261
    115          1           0       11.398649    0.392332    0.722330
    116          1           0       11.474083   -1.242023    0.768630
    117          1           0       13.016405   -1.432022   -1.414564
    118          1           0       12.839367    0.393166   -1.640432
    119          1           0       13.540058    0.931328    0.286955
    120          1           0       13.905395   -0.691162    0.976477
    121          1           0       15.392719    0.464616   -1.535918
    122          1           0       15.759509   -2.393138   -0.057477
    123          1           0       14.916353   -2.116974   -1.359581
    124          1           0       16.578763   -1.632489   -1.529639
    125          1           0       15.969550    1.474580    0.646312
    126          1           0       16.553616   -0.271628    1.341282
    127          1           0       18.144428   -0.455339   -0.511259
    128          1           0       17.556747    1.286706   -0.891774
    129          1           0       18.429699    2.027342    1.033686
    130          1           0       18.726422    0.662531    1.797885
    131          1           0       20.512937    0.285942   -0.022284
    132          1           0       20.197933    3.229633   -0.830308
    133          1           0       21.585826    2.359141   -1.194667
    134          1           0       20.012325    1.706006   -1.766229
    135          1           0       21.172447    0.889547    2.365800
    136          1           0       22.271191    1.698099    1.168312
    137          1           0       21.080607    2.765027    1.825142
 ---------------------------------------------------------------------

 SCF Done:  E(RCAM-B3LYP) =  -2933.55260792     A.U. after   16 cycles

 Excitation energies and oscillator strengths:

 Excited State   1:      Singlet-A      1.9682 eV  629.95 nm  f=0.2733  <S**2>=0.000
     240 -> 243       -0.22913
     241 -> 242        0.66647
 This state for optimization and/or second-order correction.
 Total Energy, E(TD-HF/TD-DFT) =  -2933.48027958
 Copying the excited state density for this state as the 1-particle RhoCI density.

 The electronic state is 1-A.
 Alpha  occ. eigenvalues --  -46.80134 -19.21367 -19.20557 -19.18097 -19.16942
 Alpha  occ. eigenvalues --  -19.16281 -14.38249 -14.36241 -14.35264 -14.34911
 Alpha  occ. eigenvalues --  -10.34690 -10.34140 -10.30328 -10.27582 -10.26734
 Alpha  occ. eigenvalues --  -10.26352 -10.25696 -10.25545 -10.25117 -10.24953
 Alpha  occ. eigenvalues --  -10.24926 -10.24680 -10.24402 -10.24182 -10.24113
 Alpha  occ. eigenvalues --  -10.23873 -10.23852 -10.23851 -10.23753 -10.23723
 Alpha  occ. eigenvalues --  -10.23718 -10.23449 -10.23251 -10.23137 -10.23033
 Alpha  occ. eigenvalues --  -10.22977 -10.22852 -10.22777 -10.22661 -10.22657
 Alpha  occ. eigenvalues --  -10.22588 -10.22468 -10.22456 -10.22426 -10.22319
 Alpha  occ. eigenvalues --  -10.22064 -10.22028 -10.22007 -10.21883 -10.21873
 Alpha  occ. eigenvalues --  -10.21840 -10.21796 -10.21756 -10.21720 -10.21598
 Alpha  occ. eigenvalues --  -10.21484 -10.21469 -10.21372 -10.21083 -10.20497
 Alpha  occ. eigenvalues --  -10.20417 -10.20336 -10.19587 -10.19489 -10.19199
 Alpha  occ. eigenvalues --   -3.08808  -1.83743  -1.83296  -1.83209  -1.11791
 Alpha  occ. eigenvalues --   -1.11723  -1.08055  -1.04536  -1.03648  -1.00491
 Alpha  occ. eigenvalues --   -0.99779  -0.98621  -0.96973  -0.87816  -0.86116
 Alpha  occ. eigenvalues --   -0.85920  -0.85865  -0.84887  -0.84377  -0.83602
 Alpha  occ. eigenvalues --   -0.83231  -0.83058  -0.82282  -0.81610  -0.80347
 Alpha  occ. eigenvalues --   -0.79850  -0.78791  -0.78008  -0.77633  -0.76966
 Alpha  occ. eigenvalues --   -0.76557  -0.76047  -0.75791  -0.74732  -0.73152
 Alpha  occ. eigenvalues --   -0.72625  -0.72033  -0.71870  -0.71342  -0.70842
 Alpha  occ. eigenvalues --   -0.70713  -0.69849  -0.69622  -0.68181  -0.67561
 Alpha  occ. eigenvalues --   -0.66711  -0.65561  -0.65317  -0.64246  -0.63634
 Alpha  occ. eigenvalues --   -0.62664  -0.62584  -0.61218  -0.60476  -0.60173
 Alpha  occ. eigenvalues --   -0.59989  -0.58983  -0.58496  -0.57865  -0.57575
 Alpha  occ. eigenvalues --   -0.57192  -0.56685  -0.55932  -0.55548  -0.55119
 Alpha  occ. eigenvalues --   -0.55071  -0.54343  -0.53966  -0.53000  -0.52898
 Alpha  occ. eigenvalues --   -0.52277  -0.51686  -0.51133  -0.50967  -0.50724
 Alpha  occ. eigenvalues --   -0.50450  -0.50287  -0.49948  -0.49816  -0.49502
 Alpha  occ. eigenvalues --   -0.48970  -0.48609  -0.48559  -0.48247  -0.47915
 Alpha  occ. eigenvalues --   -0.47331  -0.47225  -0.47048  -0.46944  -0.46831
 Alpha  occ. eigenvalues --   -0.46576  -0.46481  -0.46296  -0.46119  -0.46000
 Alpha  occ. eigenvalues --   -0.45782  -0.45640  -0.45380  -0.45044  -0.44590
 Alpha  occ. eigenvalues --   -0.44424  -0.44181  -0.43892  -0.43623  -0.43546
 Alpha  occ. eigenvalues --   -0.43501  -0.43390  -0.42718  -0.42591  -0.42390
 Alpha  occ. eigenvalues --   -0.42261  -0.42233  -0.42052  -0.41507  -0.41389
 Alpha  occ. eigenvalues --   -0.41315  -0.41248  -0.41119  -0.41056  -0.40797
 Alpha  occ. eigenvalues --   -0.40775  -0.40565  -0.40550  -0.40308  -0.40177
 Alpha  occ. eigenvalues --   -0.40009  -0.39560  -0.39434  -0.39209  -0.39098
 Alpha  occ. eigenvalues --   -0.38737  -0.38593  -0.38570  -0.38463  -0.38216
 Alpha  occ. eigenvalues --   -0.38084  -0.37878  -0.37765  -0.37602  -0.37107
 Alpha  occ. eigenvalues --   -0.37015  -0.36852  -0.36711  -0.36667  -0.36418
 Alpha  occ. eigenvalues --   -0.35963  -0.35876  -0.35363  -0.35278  -0.34632
 Alpha  occ. eigenvalues --   -0.34416  -0.34251  -0.33958  -0.33924  -0.33509
 Alpha  occ. eigenvalues --   -0.33212  -0.32824  -0.32441  -0.32356  -0.32002
 Alpha  occ. eigenvalues --   -0.31827  -0.31240  -0.31226  -0.31067  -0.30758
 Alpha  occ. eigenvalues --   -0.30296  -0.29821  -0.29508  -0.28535  -0.26992
 Alpha  occ. eigenvalues --   -0.26699  -0.26019  -0.25851  -0.24532  -0.21632
 Alpha  occ. eigenvalues --   -0.19681
 Alpha virt. eigenvalues --   -0.07188  -0.03773  -0.00263   0.01741   0.02050
 Alpha virt. eigenvalues --    0.04086   0.04548   0.04791   0.05209   0.05452
 Alpha virt. eigenvalues --    0.06544   0.08585   0.09040   0.09747   0.09892

 Mulliken charges:
               1
     1  Mg   0.810384
     2  C    0.178466
     3  C   -0.197329
     4  C   -0.201660
     5  C   -0.171136
     6  N   -0.626553
     7  C    0.261954
     8  C   -0.141981
     9  C   -0.146951
    10  C    0.333453
    11  C   -0.303222
    12  C   -0.175192
    13  C   -0.234249
    14  C    0.578673
    15  O   -0.450383
    16  O   -0.483179
    17  N   -0.725222
    18  C    0.325601
    19  C    0.025291
    20  C    0.011113
    21  C    0.368485
    22  C   -0.368524
    23  C   -0.087797
    24  C   -0.246397
    25  N   -0.664482
    26  C    0.302369
    27  C    0.109055
    28  C    0.070033
    29  C    0.246577
    30  C   -0.420624
    31  C   -0.254898
    32  C   -0.312115
    33  N   -0.717313
    34  C    0.276536
    35  C    0.076046
    36  C   -0.057586
    37  C    0.245932
    38  C   -0.388062
    39  C    0.382004
    40  O   -0.424716
    41  C   -0.371178
    42  C    0.611019
    43  O   -0.425967
    44  O   -0.477248
    45  C   -0.087207
    46  C    0.012287
    47  C   -0.106319
    48  C    0.080643
    49  C   -0.360676
    50  C   -0.231840
    51  C   -0.163764
    52  C   -0.173243
    53  C   -0.050430
    54  C   -0.304751
    55  C   -0.193406
    56  C   -0.180281
    57  C   -0.160568
    58  C   -0.061751
    59  C   -0.311275
    60  C   -0.178048
    61  C   -0.196947
    62  C   -0.149927
    63  C   -0.019331
    64  C   -0.314311
    65  C   -0.305603
    66  H    0.089477
    67  H    0.064320
    68  H    0.085994
    69  H    0.118918
    70  H    0.108071
    71  H    0.107275
    72  H    0.088437
    73  H    0.128527
    74  H    0.112922
    75  H    0.099147
    76  H    0.104749
    77  H    0.144456
    78  H    0.112172
    79  H    0.131189
    80  H    0.095416
    81  H    0.085963
    82  H    0.105937
    83  H    0.101351
    84  H    0.118628
    85  H    0.101909
    86  H    0.120778
    87  H    0.104210
    88  H    0.116324
    89  H    0.092643
    90  H    0.099953
    91  H    0.113045
    92  H    0.108395
    93  H    0.152110
    94  H    0.109296
    95  H    0.159085
    96  H    0.122497
    97  H    0.119627
    98  H    0.108758
    99  H    0.123732
   100  H    0.120392
   101  H    0.093099
   102  H    0.111429
   103  H    0.115515
   104  H    0.142195
   105  H    0.102801
   106  H    0.079500
   107  H    0.075700
   108  H    0.096693
   109  H    0.091767
   110  H    0.090433
   111  H    0.070626
   112  H    0.115361
   113  H    0.112488
   114  H    0.080024
   115  H    0.088447
   116  H    0.093471
   117  H    0.083805
   118  H    0.080594
   119  H    0.090423
   120  H    0.100310
   121  H    0.058657
   122  H    0.099509
   123  H    0.108074
   124  H    0.113214
   125  H    0.067598
   126  H    0.085697
   127  H    0.081664
   128  H    0.103992
   129  H    0.089983
   130  H    0.076976
   131  H    0.074932
   132  H    0.105944
   133  H    0.076597
   134  H    0.119399
   135  H    0.072230
   136  H    0.095000
   137  H    0.097867
 Sum of Mulliken charges =  -0.00000

 Dipole moment (field-independent basis, Debye):
    X=              0.8703    Y=              4.6217    Z=             -0.3409  Tot=              4.7153
 Quadrupole moment (field-independent basis, Debye-Ang):
   XX=           -338.4438   YY=           -397.7457   ZZ=           -399.2181
   XY=            -19.6851   XZ=              5.7435   YZ=             -1.6531

 Normal termination of Gaussian 16 at Tue Sep 10 13:47:19 2019.
