 Gaussian 16, Revision A.03,
 Gaussian 16:  ES64L-G16RevA.03 25-Dec-2016

 ----------------------------------------------------------------------
 # td=(NStates=1) iop(3/107=0140000000,3/108=0140000000) CAM-B3LYP/6-31
 G(d,p)
 ----------------------------------------------------------------------

 --
 TD
 --
 Symbolic Z-matrix:
 Charge =  0 Multiplicity = 1

                         Standard orientation:
 ---------------------------------------------------------------------
 Center     Atomic      Atomic             Coordinates (Angstroms)
 Number     Number       Type             X           Y           Z
 ---------------------------------------------------------------------
      1         12           0       -7.159946    0.720931    0.121467
      2          6           0       -4.913882   -1.937284    0.513055
      3          6           0       -4.732255    2.839216    0.988763
      4          6           0       -9.451503    3.094158   -0.280865
      5          6           0       -9.509344   -1.626087   -0.870133
      6          7           0       -5.084932    0.463513    0.728053
      7          6           0       -4.280276   -0.678645    0.860930
      8          6           0       -2.872539   -0.387317    1.228771
      9          6           0       -2.937554    1.009062    1.753735
     10          6           0       -4.270681    1.443983    1.106527
     11          6           0       -2.985916    1.280177    3.203308
     12          6           0       -1.959995   -0.665492    0.076108
     13          6           0       -0.492656   -0.424437    0.539722
     14          6           0        0.428594   -0.671835   -0.601810
     15          8           0        0.245542   -1.189450   -1.694021
     16          8           0        1.795765   -0.369758   -0.259606
     17          7           0       -7.156528    2.620506    0.436293
     18          6           0       -6.036905    3.366633    0.723876
     19          6           0       -6.375311    4.740594    0.833236
     20          6           0       -7.722232    4.849015    0.366027
     21          6           0       -8.192230    3.515517    0.135400
     22          6           0       -5.383174    5.819084    0.967054
     23          6           0       -8.539762    5.987273    0.149208
     24          6           0       -8.470072    7.224369    0.581296
     25          7           0       -9.170398    0.715754   -0.441969
     26          6           0       -9.943490    1.796224   -0.591171
     27          6           0      -11.262015    1.513674   -1.109908
     28          6           0      -11.257340    0.092416   -1.259161
     29          6           0       -9.952907   -0.386708   -0.819657
     30          6           0      -12.406491    2.392527   -1.429481
     31          6           0      -12.405052   -0.695451   -1.725303
     32          6           0      -12.285106   -1.122345   -3.279847
     33          7           0       -7.189008   -1.239978   -0.120907
     34          6           0       -8.317071   -2.137797   -0.482247
     35          6           0       -7.879546   -3.486509   -0.400361
     36          6           0       -6.568639   -3.517863   -0.097408
     37          6           0       -6.239446   -2.144908    0.129512
     38          6           0       -8.681338   -4.767081   -0.877118
     39          6           0       -5.347819   -4.354245    0.231592
     40          8           0       -5.251468   -5.549554    0.220026
     41          6           0       -4.270071   -3.257737    0.657767
     42          6           0       -3.520943   -3.651260    1.928207
     43          8           0       -3.723267   -3.033290    2.991652
     44          8           0       -2.771522   -4.772640    1.798379
     45          6           0       -2.175555   -5.263593    2.927240
     46          6           0        2.723120   -0.665298   -1.152523
     47          6           0        4.112876   -0.510397   -0.517164
     48          6           0        5.204681    0.115783   -1.119215
     49          6           0        5.276389    0.907691   -2.311970
     50          6           0        6.398138    0.102139   -0.197831
     51          6           0        7.609036   -0.501905   -0.895548
     52          6           0        8.897752   -0.305004   -0.158346
     53          6           0       10.198646   -0.693551   -0.887885
     54          6           0       10.161767   -2.101072   -1.414296
     55          6           0       11.414397   -0.343018   -0.097459
     56          6           0       12.831450   -0.447285   -0.782603
     57          6           0       14.016168   -0.017373    0.131335
     58          6           0       15.418194   -0.188763   -0.519678
     59          6           0       15.762573   -1.534869   -0.982093
     60          6           0       16.506224    0.379238    0.403096
     61          6           0       17.848378    0.555924   -0.285862
     62          6           0       18.818464    1.300755    0.756654
     63          6           0       20.244314    1.520588    0.343853
     64          6           0       20.405411    2.473671   -0.929503
     65          6           0       21.057091    2.040573    1.511910
     66          1           0       -4.125244    3.627852    1.394239
     67          1           0      -10.156677    4.036764   -0.538028
     68          1           0      -10.237457   -2.438562   -1.095114
     69          1           0       -2.729490   -1.048208    2.004527
     70          1           0       -2.057959    1.572667    1.453950
     71          1           0       -1.952569    1.057146    3.808753
     72          1           0       -3.184113    2.265336    3.561292
     73          1           0       -3.536744    0.683097    3.803271
     74          1           0       -1.983455   -1.718602   -0.167538
     75          1           0       -2.154726    0.002273   -0.637439
     76          1           0       -0.241819    0.656724    0.771276
     77          1           0       -0.174430   -1.055741    1.336655
     78          1           0       -5.805984    6.800553    0.466454
     79          1           0       -5.429488    6.072048    2.011055
     80          1           0       -4.374002    5.470334    0.476463
     81          1           0       -9.375892    5.872086   -0.678186
     82          1           0       -9.110284    8.182390    0.105546
     83          1           0       -7.604734    7.600114    1.456854
     84          1           0      -11.945110    3.320786   -2.026227
     85          1           0      -13.190629    1.782505   -2.084108
     86          1           0      -12.832959    2.557185   -0.345705
     87          1           0      -12.531695   -1.604764   -1.195304
     88          1           0      -13.404514   -0.114484   -1.749637
     89          1           0      -13.175539   -1.595935   -3.828411
     90          1           0      -12.276782   -0.022529   -3.867313
     91          1           0      -11.250417   -1.423845   -3.459105
     92          1           0       -9.198135   -4.828123   -1.844884
     93          1           0       -7.846729   -5.586498   -0.865965
     94          1           0       -9.474160   -5.049807   -0.097259
     95          1           0       -3.470414   -3.285227   -0.100839
     96          1           0       -1.411975   -4.605275    3.188331
     97          1           0       -2.933252   -5.571195    3.477523
     98          1           0       -1.599381   -6.130384    2.290647
     99          1           0        2.479339   -1.447667   -1.556819
    100          1           0        2.700932   -0.119342   -2.025352
    101          1           0        4.227799   -0.943826    0.430583
    102          1           0        4.173701    1.184518   -2.642164
    103          1           0        5.796134    1.915551   -2.073401
    104          1           0        5.634968    0.332571   -3.188407
    105          1           0        6.571879    1.035865    0.128387
    106          1           0        6.307068   -0.483153    0.788255
    107          1           0        7.408866   -1.422158   -1.198543
    108          1           0        7.744384    0.047140   -1.695498
    109          1           0        8.835975    0.736426    0.071978
    110          1           0        9.028989   -0.841160    0.880913
    111          1           0       10.391336    0.125001   -1.898822
    112          1           0        9.325847   -2.294278   -2.149720
    113          1           0       11.083113   -2.300822   -2.055693
    114          1           0       10.172085   -2.865772   -0.491810
    115          1           0       11.288110    0.629124    0.392754
    116          1           0       11.647809   -0.791090    1.052963
    117          1           0       12.846354   -1.570508   -0.935033
    118          1           0       12.732612    0.336727   -1.597546
    119          1           0       13.889649    1.093634    0.315878
    120          1           0       13.857253   -0.566798    1.025882
    121          1           0       15.312413    0.335843   -1.569100
    122          1           0       16.038554   -2.273268   -0.197796
    123          1           0       14.974978   -2.170946   -1.675878
    124          1           0       16.618222   -1.601580   -1.590673
    125          1           0       16.321598    1.298449    0.722975
    126          1           0       16.726062   -0.234098    1.309507
    127          1           0       18.152688   -0.382157   -0.579429
    128          1           0       18.094058    1.082414   -1.186801
    129          1           0       18.320406    2.238180    0.850299
    130          1           0       18.754892    0.840279    1.718116
    131          1           0       20.465259    0.517988   -0.077820
    132          1           0       19.670152    3.378773   -0.547653
    133          1           0       21.386509    2.360461   -1.449488
    134          1           0       19.717354    2.033058   -1.676845
    135          1           0       20.896774    1.435751    2.439970
    136          1           0       22.128895    2.155587    1.339621
    137          1           0       20.651466    3.211471    1.616666
 ---------------------------------------------------------------------

 SCF Done:  E(RCAM-B3LYP) =  -2933.43708710     A.U. after   16 cycles

 Excitation energies and oscillator strengths:

 Excited State   1:      Singlet-A      2.1059 eV  588.74 nm  f=0.1719  <S**2>=0.000
     240 -> 243        0.29359
     241 -> 242        0.63543
 This state for optimization and/or second-order correction.
 Total Energy, E(TD-HF/TD-DFT) =  -2933.35969582
 Copying the excited state density for this state as the 1-particle RhoCI density.

 The electronic state is 1-A.
 Alpha  occ. eigenvalues --  -46.79079 -19.22655 -19.20278 -19.18215 -19.17384
 Alpha  occ. eigenvalues --  -19.17050 -14.38253 -14.35203 -14.34723 -14.34670
 Alpha  occ. eigenvalues --  -10.35429 -10.35342 -10.31802 -10.27426 -10.26754
 Alpha  occ. eigenvalues --  -10.26734 -10.25299 -10.24962 -10.24903 -10.24791
 Alpha  occ. eigenvalues --  -10.24553 -10.24373 -10.24297 -10.24242 -10.24192
 Alpha  occ. eigenvalues --  -10.24161 -10.23868 -10.23730 -10.23610 -10.23480
 Alpha  occ. eigenvalues --  -10.23247 -10.22953 -10.22935 -10.22891 -10.22868
 Alpha  occ. eigenvalues --  -10.22839 -10.22831 -10.22769 -10.22684 -10.22676
 Alpha  occ. eigenvalues --  -10.22605 -10.22590 -10.22389 -10.22201 -10.22023
 Alpha  occ. eigenvalues --  -10.22002 -10.21991 -10.21946 -10.21933 -10.21849
 Alpha  occ. eigenvalues --  -10.21520 -10.21485 -10.21467 -10.21442 -10.21391
 Alpha  occ. eigenvalues --  -10.21063 -10.20851 -10.20827 -10.20708 -10.20273
 Alpha  occ. eigenvalues --  -10.20118 -10.19998 -10.19684 -10.19368 -10.18012
 Alpha  occ. eigenvalues --   -3.07932  -1.82843  -1.82412  -1.82364  -1.14456
 Alpha  occ. eigenvalues --   -1.13003  -1.07852  -1.05166  -1.04272  -1.00195
 Alpha  occ. eigenvalues --   -0.98226  -0.97655  -0.96938  -0.88060  -0.87356
 Alpha  occ. eigenvalues --   -0.86495  -0.85501  -0.84225  -0.84117  -0.84100
 Alpha  occ. eigenvalues --   -0.83398  -0.83088  -0.83001  -0.82344  -0.82235
 Alpha  occ. eigenvalues --   -0.80487  -0.79863  -0.79111  -0.78228  -0.77759
 Alpha  occ. eigenvalues --   -0.77460  -0.76629  -0.75574  -0.75203  -0.73941
 Alpha  occ. eigenvalues --   -0.72535  -0.72284  -0.71621  -0.71109  -0.70497
 Alpha  occ. eigenvalues --   -0.70223  -0.70154  -0.69906  -0.69587  -0.67885
 Alpha  occ. eigenvalues --   -0.67644  -0.67024  -0.65097  -0.64959  -0.64165
 Alpha  occ. eigenvalues --   -0.63406  -0.62417  -0.61770  -0.61197  -0.60851
 Alpha  occ. eigenvalues --   -0.60559  -0.60225  -0.58594  -0.57822  -0.57600
 Alpha  occ. eigenvalues --   -0.57521  -0.56523  -0.56258  -0.55773  -0.55291
 Alpha  occ. eigenvalues --   -0.54684  -0.54626  -0.54260  -0.53786  -0.53533
 Alpha  occ. eigenvalues --   -0.53307  -0.52701  -0.52106  -0.51632  -0.51266
 Alpha  occ. eigenvalues --   -0.51009  -0.50995  -0.50126  -0.50050  -0.49820
 Alpha  occ. eigenvalues --   -0.49465  -0.49269  -0.48935  -0.48239  -0.48163
 Alpha  occ. eigenvalues --   -0.47862  -0.47604  -0.47253  -0.46973  -0.46935
 Alpha  occ. eigenvalues --   -0.46916  -0.46620  -0.46354  -0.46220  -0.45995
 Alpha  occ. eigenvalues --   -0.45879  -0.45722  -0.45439  -0.45201  -0.44818
 Alpha  occ. eigenvalues --   -0.44718  -0.44627  -0.44284  -0.44026  -0.43797
 Alpha  occ. eigenvalues --   -0.43709  -0.43258  -0.42982  -0.42856  -0.42652
 Alpha  occ. eigenvalues --   -0.42424  -0.42264  -0.42013  -0.41900  -0.41498
 Alpha  occ. eigenvalues --   -0.41327  -0.41114  -0.40919  -0.40749  -0.40594
 Alpha  occ. eigenvalues --   -0.40306  -0.40276  -0.40210  -0.39940  -0.39748
 Alpha  occ. eigenvalues --   -0.39667  -0.39522  -0.39132  -0.38909  -0.38748
 Alpha  occ. eigenvalues --   -0.38593  -0.38492  -0.38459  -0.38089  -0.37946
 Alpha  occ. eigenvalues --   -0.37733  -0.37414  -0.37336  -0.37091  -0.37013
 Alpha  occ. eigenvalues --   -0.36768  -0.36673  -0.36653  -0.36403  -0.36312
 Alpha  occ. eigenvalues --   -0.35797  -0.35481  -0.35118  -0.34981  -0.34733
 Alpha  occ. eigenvalues --   -0.34488  -0.34455  -0.34035  -0.33926  -0.33710
 Alpha  occ. eigenvalues --   -0.33654  -0.33489  -0.33386  -0.33005  -0.32103
 Alpha  occ. eigenvalues --   -0.32023  -0.31427  -0.31007  -0.30897  -0.30813
 Alpha  occ. eigenvalues --   -0.30468  -0.30326  -0.29564  -0.28722  -0.27632
 Alpha  occ. eigenvalues --   -0.27262  -0.25713  -0.25073  -0.24633  -0.21239
 Alpha  occ. eigenvalues --   -0.20346
 Alpha virt. eigenvalues --   -0.06814  -0.04153  -0.00502   0.02083   0.02430
 Alpha virt. eigenvalues --    0.02995   0.04208   0.04457   0.05004   0.05416
 Alpha virt. eigenvalues --    0.06307   0.08251   0.08928   0.09291   0.09523

 Mulliken charges:
               1
     1  Mg   0.812476
     2  C    0.052273
     3  C   -0.222314
     4  C   -0.194478
     5  C   -0.204310
     6  N   -0.579993
     7  C    0.271129
     8  C   -0.146674
     9  C   -0.121703
    10  C    0.333959
    11  C   -0.318795
    12  C   -0.137561
    13  C   -0.276373
    14  C    0.588499
    15  O   -0.461954
    16  O   -0.484817
    17  N   -0.751640
    18  C    0.331648
    19  C    0.009352
    20  C    0.045260
    21  C    0.325576
    22  C   -0.376791
    23  C   -0.062051
    24  C   -0.261736
    25  N   -0.698997
    26  C    0.331611
    27  C    0.034558
    28  C    0.046428
    29  C    0.320082
    30  C   -0.362114
    31  C   -0.261796
    32  C   -0.316203
    33  N   -0.715982
    34  C    0.266580
    35  C   -0.027518
    36  C    0.052952
    37  C    0.295163
    38  C   -0.385108
    39  C    0.391098
    40  O   -0.435386
    41  C   -0.335081
    42  C    0.590716
    43  O   -0.487113
    44  O   -0.423757
    45  C   -0.063780
    46  C    0.075655
    47  C   -0.140753
    48  C    0.132319
    49  C   -0.378325
    50  C   -0.233680
    51  C   -0.169949
    52  C   -0.166068
    53  C   -0.017068
    54  C   -0.301661
    55  C   -0.177655
    56  C   -0.174841
    57  C   -0.173082
    58  C   -0.036193
    59  C   -0.316359
    60  C   -0.163771
    61  C   -0.199978
    62  C   -0.182410
    63  C   -0.060584
    64  C   -0.318740
    65  C   -0.282873
    66  H    0.067894
    67  H    0.069403
    68  H    0.087770
    69  H    0.127284
    70  H    0.103769
    71  H    0.072297
    72  H    0.127205
    73  H    0.142886
    74  H    0.130775
    75  H    0.126069
    76  H    0.143242
    77  H    0.155938
    78  H    0.112074
    79  H    0.134871
    80  H    0.117053
    81  H    0.087201
    82  H    0.095076
    83  H    0.069189
    84  H    0.112010
    85  H    0.109799
    86  H    0.128138
    87  H    0.116189
    88  H    0.094383
    89  H    0.110612
    90  H    0.065956
    91  H    0.123692
    92  H    0.128838
    93  H    0.134704
    94  H    0.115772
    95  H    0.153268
    96  H    0.129317
    97  H    0.142041
    98  H    0.108197
    99  H    0.101179
   100  H    0.073074
   101  H    0.082694
   102  H    0.107448
   103  H    0.112979
   104  H    0.134226
   105  H    0.101064
   106  H    0.085112
   107  H    0.103309
   108  H    0.105562
   109  H    0.091534
   110  H    0.071085
   111  H    0.027499
   112  H    0.103364
   113  H    0.101862
   114  H    0.089526
   115  H    0.088825
   116  H    0.035182
   117  H    0.105833
   118  H    0.088814
   119  H    0.083824
   120  H    0.092881
   121  H    0.073184
   122  H    0.090371
   123  H    0.074323
   124  H    0.114586
   125  H    0.100369
   126  H    0.095046
   127  H    0.096567
   128  H    0.091607
   129  H    0.086740
   130  H    0.088796
   131  H    0.082105
   132  H    0.090266
   133  H    0.116802
   134  H    0.099052
   135  H    0.098576
   136  H    0.103918
   137  H    0.068583
 Sum of Mulliken charges =  -0.00000

 Dipole moment (field-independent basis, Debye):
    X=              1.3064    Y=              3.0897    Z=              0.2162  Tot=              3.3615
 Quadrupole moment (field-independent basis, Debye-Ang):
   XX=           -365.3315   YY=           -397.3081   ZZ=           -397.4562
   XY=            -19.6069   XZ=              9.4491   YZ=             -3.9366

 Normal termination of Gaussian 16 at Sun Sep 22 08:47:41 2019.
