 Gaussian 16, Revision A.03,
 Gaussian 16:  ES64L-G16RevA.03 25-Dec-2016

 -------------------------------------
 # td=(NStates=1) CAM-B3LYP/6-31G(d,p)
 -------------------------------------

 --
 TD
 --
 Symbolic Z-matrix:
 Charge =  0 Multiplicity = 1

                         Standard orientation:
 ---------------------------------------------------------------------
 Center     Atomic      Atomic             Coordinates (Angstroms)
 Number     Number       Type             X           Y           Z
 ---------------------------------------------------------------------
      1         12           0       -7.180961    0.611997    0.048829
      2          6           0       -4.829483   -1.940476    0.458634
      3          6           0       -4.760845    2.912294    1.069302
      4          6           0       -9.567436    3.095983   -0.213228
      5          6           0       -9.569041   -1.780095   -0.717393
      6          7           0       -5.117756    0.483331    0.774346
      7          6           0       -4.366710   -0.680378    0.851293
      8          6           0       -2.891229   -0.396720    1.221641
      9          6           0       -3.065782    1.124683    1.648862
     10          6           0       -4.408308    1.550569    1.109373
     11          6           0       -2.866585    1.225424    3.217122
     12          6           0       -1.875399   -0.697906    0.046885
     13          6           0       -0.510312   -0.373681    0.412713
     14          6           0        0.500807   -0.586766   -0.719389
     15          8           0        0.147442   -0.986019   -1.827153
     16          8           0        1.718413   -0.449132   -0.328099
     17          7           0       -7.106513    2.673165    0.213679
     18          6           0       -6.034897    3.426607    0.639899
     19          6           0       -6.402923    4.737645    0.656486
     20          6           0       -7.800412    4.926522    0.313139
     21          6           0       -8.261552    3.473769    0.122052
     22          6           0       -5.441734    5.855650    0.978668
     23          6           0       -8.558390    6.058232    0.234491
     24          6           0       -8.387232    7.242619    0.830400
     25          7           0       -9.125084    0.674223   -0.614133
     26          6           0       -9.937539    1.813399   -0.627157
     27          6           0      -11.281011    1.403385   -1.016750
     28          6           0      -11.198951    0.054861   -1.262168
     29          6           0       -9.942758   -0.368542   -0.845593
     30          6           0      -12.336039    2.488541   -1.230335
     31          6           0      -12.286157   -0.819495   -1.736452
     32          6           0      -12.161296   -1.212685   -3.269559
     33          7           0       -7.252633   -1.375398   -0.022143
     34          6           0       -8.352548   -2.269290   -0.381517
     35          6           0       -7.848634   -3.695993   -0.337406
     36          6           0       -6.494610   -3.646135   -0.037254
     37          6           0       -6.213828   -2.142662    0.129811
     38          6           0       -8.720168   -4.807632   -0.765098
     39          6           0       -5.298443   -4.276881    0.253787
     40          8           0       -5.092393   -5.423799    0.382836
     41          6           0       -4.073719   -3.250887    0.514940
     42          6           0       -3.548301   -3.609050    1.879670
     43          8           0       -3.845903   -3.139357    2.932748
     44          8           0       -2.697435   -4.729548    1.789660
     45          6           0       -2.169438   -5.315319    2.943593
     46          6           0        2.707470   -0.657513   -1.309136
     47          6           0        4.074826   -0.546297   -0.642772
     48          6           0        5.156039    0.253853   -1.017210
     49          6           0        5.084953    1.052557   -2.360741
     50          6           0        6.440615    0.282584   -0.343972
     51          6           0        7.614015   -0.368594   -1.047134
     52          6           0        8.920122   -0.264843   -0.277415
     53          6           0       10.192801   -0.563430   -0.986695
     54          6           0       10.232595   -2.091017   -1.309056
     55          6           0       11.439979   -0.296514   -0.090466
     56          6           0       12.707849   -0.434448   -0.805551
     57          6           0       13.943641   -0.039295    0.151594
     58          6           0       15.317080   -0.181512   -0.537967
     59          6           0       15.626122   -1.631835   -0.694789
     60          6           0       16.361035    0.570094    0.379461
     61          6           0       17.879241    0.651979   -0.175329
     62          6           0       18.822714    1.298747    0.835694
     63          6           0       20.282178    1.380053    0.348023
     64          6           0       20.605801    2.148052   -0.947972
     65          6           0       21.158095    1.855627    1.510277
     66          1           0       -3.947059    3.678330    1.388884
     67          1           0      -10.595788    3.831995   -0.321536
     68          1           0      -10.317909   -2.512036   -1.012242
     69          1           0       -2.437707   -0.928123    2.133450
     70          1           0       -2.128696    1.903763    1.380240
     71          1           0       -1.883518    1.049961    3.773588
     72          1           0       -2.999200    2.280450    3.725839
     73          1           0       -3.485991    0.470477    3.734473
     74          1           0       -2.013278   -1.645250   -0.383608
     75          1           0       -2.108590    0.139131   -0.687413
     76          1           0       -0.352324    0.656202    0.830956
     77          1           0       -0.219936   -1.012678    1.221390
     78          1           0       -5.807673    6.796294    0.446818
     79          1           0       -5.611554    6.402606    2.008716
     80          1           0       -4.361974    5.710172    0.988024
     81          1           0       -9.398683    5.999872   -0.519364
     82          1           0       -9.214010    8.176426    0.447370
     83          1           0       -7.467382    7.521077    1.635332
     84          1           0      -12.149226    3.047875   -2.205171
     85          1           0      -13.180354    2.097350   -1.702714
     86          1           0      -12.405087    2.995061   -0.509389
     87          1           0      -12.680500   -1.778292   -1.245223
     88          1           0      -13.102941   -0.319251   -1.862174
     89          1           0      -13.011043   -1.899853   -3.592724
     90          1           0      -12.124593   -0.122258   -3.751929
     91          1           0      -11.229222   -1.826788   -3.293297
     92          1           0       -9.013842   -4.981236   -1.875452
     93          1           0       -8.048645   -5.752893   -0.497207
     94          1           0       -9.702633   -4.779288   -0.054215
     95          1           0       -3.348200   -3.353345   -0.274728
     96          1           0       -1.588611   -4.514589    3.347285
     97          1           0       -2.758056   -5.679607    3.580061
     98          1           0       -1.392129   -6.168652    2.457588
     99          1           0        2.653628   -1.643013   -1.720010
    100          1           0        2.621899    0.001241   -2.186165
    101          1           0        4.267862   -1.205765    0.364861
    102          1           0        4.159642    1.158499   -2.620509
    103          1           0        5.291032    2.079114   -2.009970
    104          1           0        5.530056    0.800790   -3.317212
    105          1           0        6.804648    1.333546   -0.250991
    106          1           0        6.481770   -0.259680    0.695507
    107          1           0        7.243548   -1.403076   -1.162849
    108          1           0        7.718301    0.148805   -2.005169
    109          1           0        8.999391    0.711267    0.390183
    110          1           0        8.705613   -0.850038    0.626816
    111          1           0       10.140513    0.166436   -1.797214
    112          1           0        9.593703   -2.284323   -2.150873
    113          1           0       11.085921   -2.332658   -1.999907
    114          1           0       10.408550   -2.751562   -0.456110
    115          1           0       11.278748    0.940042    0.068136
    116          1           0       11.314356   -0.835453    0.895684
    117          1           0       13.020374   -1.557148   -1.211294
    118          1           0       12.777440    0.084600   -1.789496
    119          1           0       13.796499    0.955182    0.666902
    120          1           0       13.771343   -0.596019    0.849366
    121          1           0       15.329162    0.320418   -1.339030
    122          1           0       15.635399   -2.347254    0.224438
    123          1           0       14.879053   -1.980172   -1.508856
    124          1           0       16.648960   -1.589559   -1.015359
    125          1           0       15.956151    1.461856    0.492575
    126          1           0       16.434598    0.052437    1.325836
    127          1           0       18.170020   -0.173714   -0.252291
    128          1           0       17.747533    1.031555   -1.120794
    129          1           0       18.604578    2.344811    1.219997
    130          1           0       18.680402    0.756348    1.895132
    131          1           0       20.676443    0.422513    0.297326
    132          1           0       20.227709    3.081104   -0.813462
    133          1           0       21.786618    2.361492   -1.153678
    134          1           0       20.166707    1.469928   -1.919250
    135          1           0       20.926839    1.567940    2.615626
    136          1           0       22.328295    1.684751    1.059162
    137          1           0       21.129890    3.056459    1.839331
 ---------------------------------------------------------------------

 SCF Done:  E(RCAM-B3LYP) =  -2932.45322824     A.U. after   15 cycles

 Excitation energies and oscillator strengths:

 Excited State   1:      Singlet-A      2.0022 eV  619.23 nm  f=0.2323  <S**2>=0.000
     240 -> 243       -0.22949
     241 -> 242        0.64162
     241 -> 243       -0.12176
 This state for optimization and/or second-order correction.
 Total Energy, E(TD-HF/TD-DFT) =  -2932.37964719
 Copying the excited state density for this state as the 1-particle RhoCI density.

 The electronic state is 1-A.
 Alpha  occ. eigenvalues --  -46.84606 -19.27853 -19.24178 -19.21395 -19.20605
 Alpha  occ. eigenvalues --  -19.20091 -14.41807 -14.40947 -14.39411 -14.39223
 Alpha  occ. eigenvalues --  -10.39245 -10.38967 -10.35088 -10.32440 -10.31786
 Alpha  occ. eigenvalues --  -10.31198 -10.30943 -10.30903 -10.30582 -10.30060
 Alpha  occ. eigenvalues --  -10.29957 -10.29444 -10.29441 -10.29366 -10.29290
 Alpha  occ. eigenvalues --  -10.29250 -10.28794 -10.28683 -10.28605 -10.28485
 Alpha  occ. eigenvalues --  -10.28235 -10.28180 -10.28007 -10.27635 -10.27088
 Alpha  occ. eigenvalues --  -10.27076 -10.27075 -10.26864 -10.26854 -10.26808
 Alpha  occ. eigenvalues --  -10.26776 -10.26748 -10.26696 -10.26670 -10.26470
 Alpha  occ. eigenvalues --  -10.26460 -10.26313 -10.26312 -10.26282 -10.26275
 Alpha  occ. eigenvalues --  -10.26168 -10.26158 -10.25741 -10.25341 -10.25309
 Alpha  occ. eigenvalues --  -10.25263 -10.24977 -10.24920 -10.24793 -10.24597
 Alpha  occ. eigenvalues --  -10.24469 -10.23945 -10.23339 -10.23008 -10.22537
 Alpha  occ. eigenvalues --   -3.13597  -1.88312  -1.87821  -1.87782  -1.21365
 Alpha  occ. eigenvalues --   -1.17151  -1.14198  -1.09374  -1.08865  -1.04627
 Alpha  occ. eigenvalues --   -1.03653  -1.02989  -1.01517  -0.92436  -0.91642
 Alpha  occ. eigenvalues --   -0.90730  -0.90245  -0.89564  -0.89382  -0.88875
 Alpha  occ. eigenvalues --   -0.88682  -0.88571  -0.88149  -0.86767  -0.86318
 Alpha  occ. eigenvalues --   -0.84954  -0.84445  -0.84228  -0.83412  -0.82364
 Alpha  occ. eigenvalues --   -0.82275  -0.81246  -0.80665  -0.80158  -0.78646
 Alpha  occ. eigenvalues --   -0.77673  -0.76972  -0.76240  -0.76221  -0.75315
 Alpha  occ. eigenvalues --   -0.75027  -0.74798  -0.74103  -0.73461  -0.72513
 Alpha  occ. eigenvalues --   -0.71611  -0.70636  -0.69301  -0.68918  -0.68711
 Alpha  occ. eigenvalues --   -0.67773  -0.66662  -0.65414  -0.65280  -0.64877
 Alpha  occ. eigenvalues --   -0.64429  -0.64358  -0.63499  -0.63467  -0.63015
 Alpha  occ. eigenvalues --   -0.62081  -0.60875  -0.60241  -0.59809  -0.58959
 Alpha  occ. eigenvalues --   -0.58328  -0.58184  -0.58155  -0.57770  -0.57077
 Alpha  occ. eigenvalues --   -0.56276  -0.55899  -0.55398  -0.55064  -0.54856
 Alpha  occ. eigenvalues --   -0.54783  -0.54581  -0.54450  -0.54312  -0.53784
 Alpha  occ. eigenvalues --   -0.52989  -0.52884  -0.52671  -0.52029  -0.51739
 Alpha  occ. eigenvalues --   -0.51611  -0.51355  -0.51211  -0.50928  -0.50717
 Alpha  occ. eigenvalues --   -0.50411  -0.50243  -0.49812  -0.49687  -0.49514
 Alpha  occ. eigenvalues --   -0.49251  -0.49141  -0.48934  -0.48709  -0.48246
 Alpha  occ. eigenvalues --   -0.47981  -0.47844  -0.47701  -0.47587  -0.47271
 Alpha  occ. eigenvalues --   -0.47161  -0.46875  -0.46692  -0.46410  -0.46075
 Alpha  occ. eigenvalues --   -0.45918  -0.45776  -0.45603  -0.45306  -0.45145
 Alpha  occ. eigenvalues --   -0.45105  -0.44822  -0.44540  -0.44449  -0.44377
 Alpha  occ. eigenvalues --   -0.44196  -0.43902  -0.43544  -0.43092  -0.42887
 Alpha  occ. eigenvalues --   -0.42782  -0.42591  -0.42129  -0.41923  -0.41890
 Alpha  occ. eigenvalues --   -0.41747  -0.41499  -0.41146  -0.40962  -0.40737
 Alpha  occ. eigenvalues --   -0.40686  -0.40375  -0.40128  -0.40087  -0.40075
 Alpha  occ. eigenvalues --   -0.39791  -0.39394  -0.39032  -0.38913  -0.38766
 Alpha  occ. eigenvalues --   -0.38737  -0.38170  -0.38130  -0.38009  -0.37905
 Alpha  occ. eigenvalues --   -0.37881  -0.37771  -0.37068  -0.36639  -0.36621
 Alpha  occ. eigenvalues --   -0.36488  -0.36108  -0.35804  -0.35687  -0.35222
 Alpha  occ. eigenvalues --   -0.34953  -0.34906  -0.34596  -0.33612  -0.33440
 Alpha  occ. eigenvalues --   -0.33105  -0.32404  -0.32363  -0.31569  -0.30565
 Alpha  occ. eigenvalues --   -0.30193  -0.29287  -0.28240  -0.26121  -0.23568
 Alpha  occ. eigenvalues --   -0.21082
 Alpha virt. eigenvalues --   -0.06646  -0.04143   0.01097   0.04135   0.05081
 Alpha virt. eigenvalues --    0.05813   0.05971   0.06728   0.06965   0.07353
 Alpha virt. eigenvalues --    0.07923   0.10355   0.10925   0.11170   0.11376

 Mulliken charges:
               1
     1  Mg   0.822852
     2  C    0.030888
     3  C   -0.201878
     4  C   -0.161601
     5  C   -0.187522
     6  N   -0.658008
     7  C    0.317493
     8  C   -0.167525
     9  C   -0.158916
    10  C    0.403146
    11  C   -0.324438
    12  C   -0.147137
    13  C   -0.273207
    14  C    0.601090
    15  O   -0.497681
    16  O   -0.418913
    17  N   -0.728707
    18  C    0.353072
    19  C    0.019452
    20  C    0.049612
    21  C    0.269289
    22  C   -0.397271
    23  C   -0.091697
    24  C   -0.244956
    25  N   -0.699892
    26  C    0.283591
    27  C   -0.022057
    28  C    0.042241
    29  C    0.297661
    30  C   -0.333565
    31  C   -0.265455
    32  C   -0.302642
    33  N   -0.736196
    34  C    0.274366
    35  C    0.042600
    36  C    0.086613
    37  C    0.325651
    38  C   -0.380984
    39  C    0.299800
    40  O   -0.421254
    41  C   -0.308599
    42  C    0.621878
    43  O   -0.452588
    44  O   -0.478359
    45  C   -0.049165
    46  C    0.005404
    47  C   -0.151865
    48  C    0.114772
    49  C   -0.364154
    50  C   -0.227690
    51  C   -0.169311
    52  C   -0.167136
    53  C   -0.058326
    54  C   -0.318295
    55  C   -0.159439
    56  C   -0.179522
    57  C   -0.153801
    58  C   -0.054487
    59  C   -0.297930
    60  C   -0.205492
    61  C   -0.156843
    62  C   -0.184409
    63  C   -0.045031
    64  C   -0.286587
    65  C   -0.295105
    66  H    0.090163
    67  H    0.099681
    68  H    0.099476
    69  H    0.120481
    70  H    0.079872
    71  H    0.104330
    72  H    0.092783
    73  H    0.126192
    74  H    0.125365
    75  H    0.111748
    76  H    0.128419
    77  H    0.129252
    78  H    0.117626
    79  H    0.098173
    80  H    0.117596
    81  H    0.098821
    82  H    0.078690
    83  H    0.097365
    84  H    0.113710
    85  H    0.117411
    86  H    0.121898
    87  H    0.096161
    88  H    0.114041
    89  H    0.097976
    90  H    0.093549
    91  H    0.104037
    92  H    0.140715
    93  H    0.135252
    94  H    0.116429
    95  H    0.165272
    96  H    0.111831
    97  H    0.135045
    98  H    0.094851
    99  H    0.140482
   100  H    0.128343
   101  H    0.080638
   102  H    0.114578
   103  H    0.109338
   104  H    0.127678
   105  H    0.098230
   106  H    0.083571
   107  H    0.105242
   108  H    0.088390
   109  H    0.064824
   110  H    0.083562
   111  H    0.091062
   112  H    0.109087
   113  H    0.090539
   114  H    0.115927
   115  H    0.059964
   116  H    0.094383
   117  H    0.064336
   118  H    0.090269
   119  H    0.067587
   120  H    0.101256
   121  H    0.091862
   122  H    0.094923
   123  H    0.090137
   124  H    0.098470
   125  H    0.099752
   126  H    0.082444
   127  H    0.103872
   128  H    0.095810
   129  H    0.082220
   130  H    0.076611
   131  H    0.108701
   132  H    0.124707
   133  H    0.086448
   134  H    0.077777
   135  H    0.101585
   136  H    0.068804
   137  H    0.056549
 Sum of Mulliken charges =  -0.00000

 Dipole moment (field-independent basis, Debye):
    X=              1.0712    Y=              2.1363    Z=             -0.7867  Tot=              2.5160
 Quadrupole moment (field-independent basis, Debye-Ang):
   XX=           -343.7744   YY=           -395.7995   ZZ=           -398.5666
   XY=             -9.2361   XZ=             12.3034   YZ=             -0.3327

 Normal termination of Gaussian 16 at Thu Jun 27 14:16:07 2019.
