 Gaussian 16, Revision A.03,
 Gaussian 16:  ES64L-G16RevA.03 25-Dec-2016

 ----------------------------------------------------------------------
 # td=(NStates=1) iop(3/107=0140000000,3/108=0140000000) CAM-B3LYP/6-31
 G(d,p)
 ----------------------------------------------------------------------

 --
 TD
 --
 Symbolic Z-matrix:
 Charge =  0 Multiplicity = 1

                         Standard orientation:
 ---------------------------------------------------------------------
 Center     Atomic      Atomic             Coordinates (Angstroms)
 Number     Number       Type             X           Y           Z
 ---------------------------------------------------------------------
      1         12           0       -7.130451    0.536114    0.046666
      2          6           0       -4.827138   -1.969110    0.451461
      3          6           0       -4.784770    2.822587    1.235544
      4          6           0       -9.468732    3.119058   -0.469644
      5          6           0       -9.580086   -1.706339   -0.970479
      6          7           0       -5.052392    0.445525    0.839795
      7          6           0       -4.304193   -0.739770    0.862297
      8          6           0       -2.831202   -0.381787    1.214964
      9          6           0       -2.911048    1.145588    1.754627
     10          6           0       -4.356761    1.511678    1.259779
     11          6           0       -3.026281    1.164332    3.272576
     12          6           0       -1.882972   -0.538146   -0.001043
     13          6           0       -0.425620   -0.217805    0.447927
     14          6           0        0.457081   -0.604666   -0.667745
     15          8           0        0.097567   -0.953546   -1.722051
     16          8           0        1.713949   -0.371195   -0.259931
     17          7           0       -7.080423    2.604399    0.344464
     18          6           0       -6.098795    3.340128    0.774155
     19          6           0       -6.290912    4.706388    0.656495
     20          6           0       -7.619030    4.782082    0.140360
     21          6           0       -8.141797    3.475729   -0.001290
     22          6           0       -5.389621    5.870999    0.976919
     23          6           0       -8.290532    6.033090    0.122313
     24          6           0       -8.169147    7.214966    0.841808
     25          7           0       -9.184385    0.688127   -0.446327
     26          6           0       -9.894703    1.865178   -0.679794
     27          6           0      -11.231240    1.494350   -1.104944
     28          6           0      -11.336690    0.094822   -1.154292
     29          6           0       -9.993959   -0.352184   -0.951454
     30          6           0      -12.454271    2.424976   -1.095226
     31          6           0      -12.461446   -0.761939   -1.596351
     32          6           0      -12.308225   -1.222065   -3.034493
     33          7           0       -7.263866   -1.396968   -0.231173
     34          6           0       -8.275878   -2.214030   -0.612617
     35          6           0       -7.827553   -3.664486   -0.575613
     36          6           0       -6.464237   -3.598265   -0.137414
     37          6           0       -6.153322   -2.192787    0.017649
     38          6           0       -8.735584   -4.885656   -0.764665
     39          6           0       -5.295188   -4.377442    0.219842
     40          8           0       -5.132476   -5.640034    0.415546
     41          6           0       -4.119500   -3.294730    0.688032
     42          6           0       -3.528106   -3.606873    1.897160
     43          8           0       -3.830468   -3.059207    2.903826
     44          8           0       -2.698934   -4.706825    1.800984
     45          6           0       -2.127535   -5.031538    3.098886
     46          6           0        2.799743   -0.569628   -1.262864
     47          6           0        4.084883   -0.301692   -0.564976
     48          6           0        5.035069    0.423033   -1.077500
     49          6           0        4.986369    1.174573   -2.356609
     50          6           0        6.486242    0.447986   -0.370849
     51          6           0        7.642949   -0.264283   -1.065351
     52          6           0        8.828194   -0.060828   -0.338224
     53          6           0       10.208554   -0.586399   -0.982268
     54          6           0       10.009463   -2.000586   -1.570519
     55          6           0       11.389715   -0.341432   -0.103009
     56          6           0       12.752281   -0.603097   -0.700719
     57          6           0       14.006982   -0.288239    0.132585
     58          6           0       15.344519   -0.276953   -0.518249
     59          6           0       15.688175   -1.585598   -1.158291
     60          6           0       16.376982    0.212833    0.418824
     61          6           0       17.813430    0.547271   -0.169304
     62          6           0       18.755880    1.295165    0.837509
     63          6           0       20.254900    1.271329    0.430569
     64          6           0       20.437305    2.311818   -0.698754
     65          6           0       21.238665    1.724683    1.622116
     66          1           0       -4.082260    3.528175    1.714173
     67          1           0      -10.164905    4.032796   -0.391313
     68          1           0      -10.251715   -2.536920   -1.373737
     69          1           0       -2.553884   -1.057483    1.876803
     70          1           0       -2.246835    1.638458    1.180294
     71          1           0       -2.185664    0.619527    3.631712
     72          1           0       -3.283469    2.075577    3.789965
     73          1           0       -3.856264    0.449705    3.734325
     74          1           0       -1.958474   -1.513338   -0.385358
     75          1           0       -2.201604    0.266375   -0.813137
     76          1           0       -0.310695    0.619330    0.948556
     77          1           0       -0.466765   -1.137871    1.269202
     78          1           0       -5.569313    6.591526    0.102435
     79          1           0       -5.467849    6.192622    1.945713
     80          1           0       -4.242399    5.603563    0.861399
     81          1           0       -9.004970    6.040570   -0.824700
     82          1           0       -8.932899    8.129946    0.701877
     83          1           0       -7.582206    7.230925    1.757160
     84          1           0      -12.218819    3.011538   -2.048725
     85          1           0      -13.330183    1.875824   -1.170350
     86          1           0      -12.536818    3.275495   -0.302275
     87          1           0      -12.352590   -1.609178   -0.777306
     88          1           0      -13.453241   -0.189666   -1.581613
     89          1           0      -13.015796   -1.789924   -3.325603
     90          1           0      -12.419035   -0.449716   -3.799434
     91          1           0      -11.577385   -1.701720   -3.263242
     92          1           0       -9.398280   -4.930488   -1.730910
     93          1           0       -8.200239   -5.713880   -0.615287
     94          1           0       -9.517432   -4.876185   -0.209549
     95          1           0       -3.368516   -3.635287   -0.038993
     96          1           0       -1.661461   -4.309924    3.484196
     97          1           0       -2.888783   -5.657900    3.628471
     98          1           0       -1.397024   -5.890064    2.758267
     99          1           0        2.718476   -1.543581   -1.539804
    100          1           0        2.640616    0.021240   -2.041349
    101          1           0        4.031387   -0.622506    0.500873
    102          1           0        4.004975    1.418460   -2.641873
    103          1           0        5.389972    2.207929   -2.307646
    104          1           0        5.674052    0.620202   -3.008638
    105          1           0        6.638198    1.640595   -0.197180
    106          1           0        6.434769    0.079002    0.628799
    107          1           0        7.277177   -1.230196   -1.284387
    108          1           0        7.752655    0.373285   -1.886287
    109          1           0        9.020799    0.906898    0.013703
    110          1           0        8.686508   -0.484794    0.693966
    111          1           0       10.475628    0.132108   -1.943759
    112          1           0        9.150968   -2.080375   -2.334105
    113          1           0       10.824738   -2.080421   -2.285873
    114          1           0        9.723690   -2.532098   -0.491811
    115          1           0       11.273922    0.820117    0.078343
    116          1           0       11.597840   -0.834589    0.824011
    117          1           0       12.693909   -1.495639   -1.190937
    118          1           0       13.036822   -0.032119   -1.761365
    119          1           0       13.835795    0.628838    0.970991
    120          1           0       13.947761   -1.075132    0.982713
    121          1           0       15.544094    0.364710   -1.437261
    122          1           0       15.777931   -2.429856   -0.525701
    123          1           0       14.942984   -1.933606   -2.015290
    124          1           0       16.776316   -1.419414   -1.587097
    125          1           0       16.161970    1.114266    1.071650
    126          1           0       16.763136   -0.588026    1.093063
    127          1           0       18.441881   -0.345028   -0.430055
    128          1           0       17.602598    1.241806   -1.102299
    129          1           0       18.300090    2.314225    1.076661
    130          1           0       18.691617    0.575723    1.868241
    131          1           0       20.595856    0.241540    0.117721
    132          1           0       20.046134    3.207282   -0.524942
    133          1           0       21.464466    2.276646   -1.359618
    134          1           0       19.788220    2.087148   -1.603952
    135          1           0       21.201016    1.272476    2.673602
    136          1           0       22.282162    1.675748    1.289083
    137          1           0       20.974589    2.932491    1.951400
 ---------------------------------------------------------------------

 SCF Done:  E(RCAM-B3LYP) =  -2933.36608607     A.U. after   16 cycles

 Excitation energies and oscillator strengths:

 Excited State   1:      Singlet-A      1.9573 eV  633.46 nm  f=0.2862  <S**2>=0.000
     240 -> 243       -0.22953
     241 -> 242        0.66412
 This state for optimization and/or second-order correction.
 Total Energy, E(TD-HF/TD-DFT) =  -2933.29415781
 Copying the excited state density for this state as the 1-particle RhoCI density.

 The electronic state is 1-A.
 Alpha  occ. eigenvalues --  -46.80616 -19.21030 -19.21011 -19.16713 -19.16469
 Alpha  occ. eigenvalues --  -19.15995 -14.37343 -14.36320 -14.35093 -14.34760
 Alpha  occ. eigenvalues --  -10.33634 -10.32880 -10.31826 -10.26658 -10.26376
 Alpha  occ. eigenvalues --  -10.26058 -10.25942 -10.25906 -10.25465 -10.25399
 Alpha  occ. eigenvalues --  -10.25160 -10.25032 -10.24289 -10.24188 -10.24049
 Alpha  occ. eigenvalues --  -10.23789 -10.23653 -10.23609 -10.23550 -10.23386
 Alpha  occ. eigenvalues --  -10.23384 -10.23248 -10.23225 -10.23119 -10.23019
 Alpha  occ. eigenvalues --  -10.22992 -10.22989 -10.22806 -10.22708 -10.22459
 Alpha  occ. eigenvalues --  -10.22456 -10.22403 -10.22401 -10.22347 -10.22233
 Alpha  occ. eigenvalues --  -10.22183 -10.22183 -10.22019 -10.21960 -10.21698
 Alpha  occ. eigenvalues --  -10.21644 -10.21628 -10.21618 -10.21584 -10.21344
 Alpha  occ. eigenvalues --  -10.21344 -10.21273 -10.21226 -10.21197 -10.21093
 Alpha  occ. eigenvalues --  -10.20977 -10.20689 -10.20456 -10.20164 -10.17646
 Alpha  occ. eigenvalues --   -3.09036  -1.83985  -1.83510  -1.83432  -1.13493
 Alpha  occ. eigenvalues --   -1.12544  -1.05635  -1.04608  -1.02351  -0.98986
 Alpha  occ. eigenvalues --   -0.98547  -0.97232  -0.96375  -0.87613  -0.87040
 Alpha  occ. eigenvalues --   -0.86128  -0.85304  -0.84652  -0.84349  -0.83423
 Alpha  occ. eigenvalues --   -0.82936  -0.82663  -0.82361  -0.82095  -0.81438
 Alpha  occ. eigenvalues --   -0.80544  -0.79725  -0.79115  -0.78158  -0.77698
 Alpha  occ. eigenvalues --   -0.77074  -0.76476  -0.75539  -0.75433  -0.74190
 Alpha  occ. eigenvalues --   -0.73364  -0.72444  -0.71901  -0.71693  -0.70671
 Alpha  occ. eigenvalues --   -0.70553  -0.70047  -0.69657  -0.68969  -0.68552
 Alpha  occ. eigenvalues --   -0.67745  -0.66760  -0.65741  -0.65070  -0.64635
 Alpha  occ. eigenvalues --   -0.63084  -0.62484  -0.61743  -0.60586  -0.60487
 Alpha  occ. eigenvalues --   -0.60034  -0.59607  -0.58717  -0.58233  -0.57706
 Alpha  occ. eigenvalues --   -0.57410  -0.57018  -0.56423  -0.55302  -0.54961
 Alpha  occ. eigenvalues --   -0.54398  -0.54150  -0.53836  -0.53601  -0.52948
 Alpha  occ. eigenvalues --   -0.52778  -0.52299  -0.51759  -0.51232  -0.51107
 Alpha  occ. eigenvalues --   -0.50285  -0.50069  -0.49823  -0.49743  -0.49620
 Alpha  occ. eigenvalues --   -0.49464  -0.48883  -0.48649  -0.48583  -0.48334
 Alpha  occ. eigenvalues --   -0.48038  -0.47611  -0.47326  -0.47010  -0.46971
 Alpha  occ. eigenvalues --   -0.46748  -0.46592  -0.46125  -0.46030  -0.45850
 Alpha  occ. eigenvalues --   -0.45466  -0.45231  -0.45126  -0.45025  -0.44931
 Alpha  occ. eigenvalues --   -0.44784  -0.44588  -0.44426  -0.44390  -0.44211
 Alpha  occ. eigenvalues --   -0.43795  -0.43273  -0.43146  -0.42756  -0.42733
 Alpha  occ. eigenvalues --   -0.42400  -0.42278  -0.42131  -0.41884  -0.41690
 Alpha  occ. eigenvalues --   -0.41511  -0.41308  -0.41265  -0.41099  -0.40800
 Alpha  occ. eigenvalues --   -0.40705  -0.40645  -0.40490  -0.40310  -0.40098
 Alpha  occ. eigenvalues --   -0.39917  -0.39689  -0.39536  -0.39261  -0.38819
 Alpha  occ. eigenvalues --   -0.38504  -0.38418  -0.38310  -0.38156  -0.37970
 Alpha  occ. eigenvalues --   -0.37621  -0.37435  -0.37070  -0.37015  -0.36703
 Alpha  occ. eigenvalues --   -0.36530  -0.36074  -0.35968  -0.35927  -0.35312
 Alpha  occ. eigenvalues --   -0.35147  -0.35118  -0.34839  -0.34767  -0.34630
 Alpha  occ. eigenvalues --   -0.34603  -0.34306  -0.33755  -0.33684  -0.33300
 Alpha  occ. eigenvalues --   -0.33042  -0.32912  -0.32468  -0.32163  -0.32146
 Alpha  occ. eigenvalues --   -0.31979  -0.31686  -0.31365  -0.30926  -0.30377
 Alpha  occ. eigenvalues --   -0.30103  -0.29775  -0.29462  -0.28272  -0.27417
 Alpha  occ. eigenvalues --   -0.27317  -0.26843  -0.24945  -0.24065  -0.21356
 Alpha  occ. eigenvalues --   -0.20391
 Alpha virt. eigenvalues --   -0.07990  -0.03824  -0.01431   0.02258   0.03557
 Alpha virt. eigenvalues --    0.04326   0.04527   0.04813   0.05054   0.05937
 Alpha virt. eigenvalues --    0.06907   0.09041   0.09427   0.09501   0.10052

 Mulliken charges:
               1
     1  Mg   0.822528
     2  C    0.065939
     3  C   -0.183258
     4  C   -0.187615
     5  C   -0.193317
     6  N   -0.618373
     7  C    0.291195
     8  C   -0.147953
     9  C   -0.113503
    10  C    0.315781
    11  C   -0.317781
    12  C   -0.172966
    13  C   -0.259637
    14  C    0.631726
    15  O   -0.446218
    16  O   -0.500853
    17  N   -0.706609
    18  C    0.332260
    19  C    0.035855
    20  C   -0.016399
    21  C    0.293266
    22  C   -0.372898
    23  C   -0.095103
    24  C   -0.252220
    25  N   -0.680375
    26  C    0.359886
    27  C   -0.032466
    28  C    0.058631
    29  C    0.285854
    30  C   -0.356954
    31  C   -0.240429
    32  C   -0.291186
    33  N   -0.747660
    34  C    0.281595
    35  C   -0.004536
    36  C    0.063896
    37  C    0.293244
    38  C   -0.362329
    39  C    0.320851
    40  O   -0.482190
    41  C   -0.325497
    42  C    0.651174
    43  O   -0.472936
    44  O   -0.476842
    45  C   -0.070482
    46  C    0.027278
    47  C   -0.137685
    48  C    0.101817
    49  C   -0.366113
    50  C   -0.239390
    51  C   -0.141841
    52  C   -0.177856
    53  C   -0.069089
    54  C   -0.296735
    55  C   -0.147543
    56  C   -0.180189
    57  C   -0.160513
    58  C   -0.030010
    59  C   -0.310277
    60  C   -0.168866
    61  C   -0.186389
    62  C   -0.163565
    63  C   -0.043048
    64  C   -0.302694
    65  C   -0.293524
    66  H    0.072889
    67  H    0.105062
    68  H    0.085196
    69  H    0.096385
    70  H    0.104097
    71  H    0.112972
    72  H    0.119836
    73  H    0.120412
    74  H    0.126933
    75  H    0.092029
    76  H    0.133832
    77  H    0.104131
    78  H    0.130463
    79  H    0.136114
    80  H    0.088659
    81  H    0.065492
    82  H    0.096825
    83  H    0.103218
    84  H    0.115232
    85  H    0.116670
    86  H    0.113713
    87  H    0.098150
    88  H    0.095782
    89  H    0.110920
    90  H    0.102801
    91  H    0.113624
    92  H    0.101599
    93  H    0.149432
    94  H    0.147596
    95  H    0.155679
    96  H    0.133192
    97  H    0.136459
    98  H    0.105518
    99  H    0.133741
   100  H    0.118647
   101  H    0.098762
   102  H    0.119623
   103  H    0.115180
   104  H    0.129630
   105  H    0.067786
   106  H    0.096136
   107  H    0.111923
   108  H    0.105402
   109  H    0.100598
   110  H    0.072075
   111  H    0.053160
   112  H    0.096850
   113  H    0.113246
   114  H    0.093395
   115  H    0.083076
   116  H    0.095664
   117  H    0.112847
   118  H    0.040006
   119  H    0.062014
   120  H    0.081259
   121  H    0.088269
   122  H    0.109107
   123  H    0.090183
   124  H    0.088702
   125  H    0.092003
   126  H    0.090939
   127  H    0.094412
   128  H    0.073423
   129  H    0.092278
   130  H    0.055125
   131  H    0.091297
   132  H    0.121324
   133  H    0.078943
   134  H    0.089760
   135  H    0.096446
   136  H    0.108891
   137  H    0.058101
 Sum of Mulliken charges =  -0.00000

 Dipole moment (field-independent basis, Debye):
    X=              1.6408    Y=              2.8791    Z=             -0.6214  Tot=              3.3716
 Quadrupole moment (field-independent basis, Debye-Ang):
   XX=           -341.0384   YY=           -404.4722   ZZ=           -394.7241
   XY=            -13.1683   XZ=             11.8093   YZ=              1.6042

 Normal termination of Gaussian 16 at Sun Sep 22 02:31:08 2019.
