 Gaussian 16, Revision A.03,
 Gaussian 16:  ES64L-G16RevA.03 25-Dec-2016

 ----------------------------------------------------------------------
 # td=(NStates=1) iop(3/107=0140000000,3/108=0140000000) CAM-B3LYP/6-31
 G(d,p)
 ----------------------------------------------------------------------

 --
 TD
 --
 Symbolic Z-matrix:
 Charge =  0 Multiplicity = 1

                         Standard orientation:
 ---------------------------------------------------------------------
 Center     Atomic      Atomic             Coordinates (Angstroms)
 Number     Number       Type             X           Y           Z
 ---------------------------------------------------------------------
      1         12           0       -7.178178    0.594574    0.150372
      2          6           0       -4.894735   -1.965320    0.452854
      3          6           0       -4.734500    2.797393    1.143418
      4          6           0       -9.365888    3.118059   -0.328823
      5          6           0       -9.541977   -1.756653   -0.809531
      6          7           0       -5.127746    0.420297    0.686501
      7          6           0       -4.298920   -0.717493    0.744068
      8          6           0       -2.964970   -0.436686    1.168477
      9          6           0       -2.962650    1.119734    1.573849
     10          6           0       -4.398106    1.445027    1.099643
     11          6           0       -2.865533    1.247725    3.093038
     12          6           0       -1.920473   -0.620683    0.026972
     13          6           0       -0.469979   -0.443596    0.587774
     14          6           0        0.481398   -0.750706   -0.589262
     15          8           0        0.156927   -1.094319   -1.757248
     16          8           0        1.782803   -0.531330   -0.138456
     17          7           0       -7.095424    2.573731    0.339086
     18          6           0       -6.070312    3.294980    0.860983
     19          6           0       -6.316865    4.705163    0.771022
     20          6           0       -7.569136    4.894042    0.247873
     21          6           0       -8.088957    3.466715    0.025929
     22          6           0       -5.477204    5.862421    1.203932
     23          6           0       -8.457929    6.014451   -0.007218
     24          6           0       -8.241191    7.204687    0.530453
     25          7           0       -9.153962    0.643243   -0.484238
     26          6           0       -9.857013    1.768035   -0.471556
     27          6           0      -11.175666    1.460541   -1.087775
     28          6           0      -11.285526    0.102066   -1.182962
     29          6           0       -9.972856   -0.412197   -0.855147
     30          6           0      -12.311855    2.571509   -1.246581
     31          6           0      -12.436990   -0.688085   -1.682635
     32          6           0      -12.097234   -1.169466   -3.107555
     33          7           0       -7.274932   -1.376991   -0.234085
     34          6           0       -8.312777   -2.259471   -0.561539
     35          6           0       -7.815812   -3.691247   -0.469001
     36          6           0       -6.485244   -3.534696   -0.152667
     37          6           0       -6.160405   -2.211185    0.071592
     38          6           0       -8.712889   -4.842138   -0.817343
     39          6           0       -5.360564   -4.416464    0.170960
     40          8           0       -5.193397   -5.605086    0.143671
     41          6           0       -4.136599   -3.312864    0.533211
     42          6           0       -3.587906   -3.652335    1.850038
     43          8           0       -3.682534   -2.970007    2.904743
     44          8           0       -2.728895   -4.684899    1.799333
     45          6           0       -1.966062   -5.103961    2.953820
     46          6           0        2.813596   -0.744969   -1.162777
     47          6           0        4.180361   -0.430903   -0.475645
     48          6           0        5.116864    0.336575   -0.939556
     49          6           0        5.038393    1.145512   -2.199141
     50          6           0        6.338382    0.535050   -0.218747
     51          6           0        7.490709    0.073174   -0.977596
     52          6           0        8.914753    0.073191   -0.239477
     53          6           0       10.196353   -0.408681   -0.981070
     54          6           0       10.136835   -1.941259   -1.224766
     55          6           0       11.399534   -0.063507   -0.109169
     56          6           0       12.738492   -0.449849   -0.764341
     57          6           0       13.865914   -0.137826    0.178301
     58          6           0       15.237298   -0.222101   -0.547629
     59          6           0       15.657627   -1.629357   -0.841983
     60          6           0       16.328179    0.347262    0.440862
     61          6           0       17.741888    0.523149   -0.205728
     62          6           0       18.781734    1.289757    0.678014
     63          6           0       20.244633    1.169315    0.351987
     64          6           0       20.483429    1.836645   -0.989316
     65          6           0       21.111091    1.931049    1.367939
     66          1           0       -4.037646    3.486796    1.420370
     67          1           0      -10.222545    4.019011   -0.524791
     68          1           0      -10.446721   -2.460585   -1.140121
     69          1           0       -2.855995   -1.089393    2.055427
     70          1           0       -2.192266    1.669679    1.053043
     71          1           0       -1.807304    0.831204    3.536602
     72          1           0       -2.750426    2.476824    3.368024
     73          1           0       -3.722857    0.628557    3.734457
     74          1           0       -2.022159   -1.586719   -0.514108
     75          1           0       -2.282782    0.050845   -0.691179
     76          1           0       -0.252284    0.444994    1.026183
     77          1           0       -0.498731   -1.471276    1.298188
     78          1           0       -5.677795    6.642369    0.454916
     79          1           0       -5.873680    6.157437    2.334950
     80          1           0       -4.410461    5.580768    1.201630
     81          1           0       -9.292379    5.936368   -0.607439
     82          1           0       -8.909865    7.965137    0.062459
     83          1           0       -7.506898    7.521539    1.346348
     84          1           0      -11.921602    3.429039   -1.844483
     85          1           0      -13.199157    2.057115   -1.822060
     86          1           0      -12.622368    2.922572   -0.276088
     87          1           0      -12.506738   -1.653542   -1.115993
     88          1           0      -13.334690   -0.065093   -1.632053
     89          1           0      -12.778940   -2.191168   -3.375212
     90          1           0      -12.139995   -0.270977   -3.801332
     91          1           0      -11.049398   -1.507690   -3.203331
     92          1           0       -9.296069   -4.622379   -1.835012
     93          1           0       -8.257118   -5.638075   -0.809074
     94          1           0       -9.526202   -4.663788    0.070413
     95          1           0       -3.328327   -3.631619   -0.142850
     96          1           0       -1.665387   -4.118332    3.443494
     97          1           0       -2.735702   -5.761270    3.632476
     98          1           0       -1.098784   -5.739140    2.558708
     99          1           0        2.818663   -1.879391   -1.193459
    100          1           0        2.510210   -0.201551   -2.015303
    101          1           0        4.293205   -1.038813    0.417255
    102          1           0        3.943431    1.004733   -2.580010
    103          1           0        5.110161    2.273862   -2.017015
    104          1           0        5.559981    0.686998   -2.950105
    105          1           0        6.574714    1.637842   -0.018003
    106          1           0        6.395236    0.249070    0.756573
    107          1           0        7.207115   -1.102956   -1.119487
    108          1           0        7.717400    0.636663   -1.862270
    109          1           0        9.155329    1.091393    0.125724
    110          1           0        8.746794   -0.397149    0.701722
    111          1           0       10.141903    0.329252   -1.881027
    112          1           0        9.301552   -2.272323   -1.941887
    113          1           0       11.051753   -2.426552   -1.839194
    114          1           0        9.917290   -2.567800   -0.182178
    115          1           0       11.383468    0.996994    0.153782
    116          1           0       11.361402   -0.648624    0.807764
    117          1           0       12.777417   -1.458140   -1.048421
    118          1           0       12.871805    0.167983   -1.797625
    119          1           0       13.565362    0.822441    0.769541
    120          1           0       13.840453   -0.944584    1.088973
    121          1           0       15.307064    0.209852   -1.652767
    122          1           0       16.013986   -2.200183    0.096750
    123          1           0       14.872630   -2.409826   -1.249548
    124          1           0       16.626406   -1.592478   -1.462811
    125          1           0       15.703327    1.510485    0.588664
    126          1           0       16.360554   -0.264244    1.351265
    127          1           0       18.195186   -0.487013   -0.452192
    128          1           0       17.538402    1.042069   -1.122861
    129          1           0       18.495389    2.365614    0.808922
    130          1           0       18.761904    0.957712    1.692508
    131          1           0       20.642372    0.055079    0.311650
    132          1           0       20.268226    2.946639   -1.092603
    133          1           0       21.526959    1.872065   -1.197666
    134          1           0       19.763308    1.402023   -1.935913
    135          1           0       20.995158    1.420177    2.483199
    136          1           0       22.243831    1.909104    0.902261
    137          1           0       20.790838    3.165456    1.438738
 ---------------------------------------------------------------------

 SCF Done:  E(RCAM-B3LYP) =  -2933.50595357     A.U. after   16 cycles

 Excitation energies and oscillator strengths:

 Excited State   1:      Singlet-A      2.0611 eV  601.55 nm  f=0.2139  <S**2>=0.000
     240 -> 243       -0.27056
     241 -> 242        0.65089
 This state for optimization and/or second-order correction.
 Total Energy, E(TD-HF/TD-DFT) =  -2933.43021040
 Copying the excited state density for this state as the 1-particle RhoCI density.

 The electronic state is 1-A.
 Alpha  occ. eigenvalues --  -46.79297 -19.21799 -19.21403 -19.17409 -19.17385
 Alpha  occ. eigenvalues --  -19.15358 -14.37663 -14.35530 -14.34990 -14.34542
 Alpha  occ. eigenvalues --  -10.35319 -10.34061 -10.31272 -10.28980 -10.27616
 Alpha  occ. eigenvalues --  -10.26124 -10.25814 -10.25515 -10.25242 -10.24810
 Alpha  occ. eigenvalues --  -10.24747 -10.24613 -10.24576 -10.24468 -10.24220
 Alpha  occ. eigenvalues --  -10.24181 -10.24024 -10.23939 -10.23908 -10.23608
 Alpha  occ. eigenvalues --  -10.23403 -10.23166 -10.23155 -10.23082 -10.23034
 Alpha  occ. eigenvalues --  -10.22839 -10.22700 -10.22634 -10.22609 -10.22600
 Alpha  occ. eigenvalues --  -10.22434 -10.22385 -10.22331 -10.22236 -10.22150
 Alpha  occ. eigenvalues --  -10.22143 -10.22108 -10.22105 -10.22052 -10.22021
 Alpha  occ. eigenvalues --  -10.21942 -10.21850 -10.21566 -10.21562 -10.21537
 Alpha  occ. eigenvalues --  -10.21526 -10.21287 -10.21190 -10.20958 -10.20821
 Alpha  occ. eigenvalues --  -10.20758 -10.20753 -10.20632 -10.20364 -10.20249
 Alpha  occ. eigenvalues --   -3.08003  -1.82936  -1.82485  -1.82408  -1.11888
 Alpha  occ. eigenvalues --   -1.10592  -1.07595  -1.02722  -1.01477  -0.99385
 Alpha  occ. eigenvalues --   -0.98341  -0.97675  -0.96505  -0.87823  -0.87450
 Alpha  occ. eigenvalues --   -0.85304  -0.84891  -0.84567  -0.84334  -0.83649
 Alpha  occ. eigenvalues --   -0.83104  -0.82855  -0.82239  -0.81330  -0.80890
 Alpha  occ. eigenvalues --   -0.80141  -0.79373  -0.78713  -0.77939  -0.77215
 Alpha  occ. eigenvalues --   -0.76428  -0.75846  -0.75691  -0.75007  -0.73620
 Alpha  occ. eigenvalues --   -0.72492  -0.71652  -0.71592  -0.70955  -0.69950
 Alpha  occ. eigenvalues --   -0.69512  -0.69327  -0.68861  -0.68217  -0.67400
 Alpha  occ. eigenvalues --   -0.66593  -0.65477  -0.64370  -0.64329  -0.63802
 Alpha  occ. eigenvalues --   -0.62432  -0.61918  -0.61050  -0.60669  -0.59627
 Alpha  occ. eigenvalues --   -0.58944  -0.58779  -0.58621  -0.57605  -0.57254
 Alpha  occ. eigenvalues --   -0.56993  -0.56794  -0.56116  -0.55409  -0.54998
 Alpha  occ. eigenvalues --   -0.54292  -0.53937  -0.53625  -0.53012  -0.52550
 Alpha  occ. eigenvalues --   -0.52010  -0.51901  -0.51199  -0.50797  -0.50525
 Alpha  occ. eigenvalues --   -0.50343  -0.49818  -0.49768  -0.49290  -0.48965
 Alpha  occ. eigenvalues --   -0.48767  -0.48342  -0.48125  -0.48003  -0.47767
 Alpha  occ. eigenvalues --   -0.47315  -0.47151  -0.47034  -0.46814  -0.46661
 Alpha  occ. eigenvalues --   -0.46453  -0.46168  -0.46002  -0.45674  -0.45598
 Alpha  occ. eigenvalues --   -0.45320  -0.45226  -0.44782  -0.44738  -0.44574
 Alpha  occ. eigenvalues --   -0.44340  -0.44208  -0.44029  -0.43974  -0.43757
 Alpha  occ. eigenvalues --   -0.43408  -0.42820  -0.42596  -0.42297  -0.42160
 Alpha  occ. eigenvalues --   -0.42151  -0.41848  -0.41730  -0.41458  -0.41329
 Alpha  occ. eigenvalues --   -0.41090  -0.40999  -0.40926  -0.40520  -0.40268
 Alpha  occ. eigenvalues --   -0.40047  -0.39817  -0.39695  -0.39472  -0.39343
 Alpha  occ. eigenvalues --   -0.39189  -0.39018  -0.38864  -0.38735  -0.38525
 Alpha  occ. eigenvalues --   -0.38327  -0.38311  -0.38207  -0.37667  -0.37477
 Alpha  occ. eigenvalues --   -0.37437  -0.37189  -0.37090  -0.36966  -0.36804
 Alpha  occ. eigenvalues --   -0.36665  -0.36659  -0.36563  -0.36187  -0.36143
 Alpha  occ. eigenvalues --   -0.35927  -0.35488  -0.35382  -0.34735  -0.34383
 Alpha  occ. eigenvalues --   -0.34332  -0.34271  -0.34217  -0.33987  -0.33632
 Alpha  occ. eigenvalues --   -0.33140  -0.32913  -0.32799  -0.32711  -0.32502
 Alpha  occ. eigenvalues --   -0.32189  -0.31821  -0.31463  -0.30759  -0.30465
 Alpha  occ. eigenvalues --   -0.30164  -0.29976  -0.29129  -0.28218  -0.28018
 Alpha  occ. eigenvalues --   -0.26797  -0.26698  -0.25419  -0.25142  -0.21597
 Alpha  occ. eigenvalues --   -0.19448
 Alpha virt. eigenvalues --   -0.06192  -0.04179  -0.00303   0.02411   0.02601
 Alpha virt. eigenvalues --    0.03198   0.04857   0.04923   0.05806   0.06040
 Alpha virt. eigenvalues --    0.06408   0.08380   0.08763   0.09342   0.09354

 Mulliken charges:
               1
     1  Mg   0.806921
     2  C    0.047955
     3  C   -0.159042
     4  C   -0.173665
     5  C   -0.204540
     6  N   -0.628856
     7  C    0.316054
     8  C   -0.192743
     9  C   -0.135450
    10  C    0.351494
    11  C   -0.279063
    12  C   -0.176140
    13  C   -0.239813
    14  C    0.610234
    15  O   -0.484258
    16  O   -0.489921
    17  N   -0.704964
    18  C    0.306058
    19  C   -0.010621
    20  C    0.060059
    21  C    0.285115
    22  C   -0.366915
    23  C   -0.067571
    24  C   -0.240268
    25  N   -0.670436
    26  C    0.292034
    27  C   -0.018069
    28  C    0.042293
    29  C    0.291920
    30  C   -0.370679
    31  C   -0.236950
    32  C   -0.296546
    33  N   -0.730390
    34  C    0.295573
    35  C    0.017977
    36  C    0.004617
    37  C    0.329133
    38  C   -0.316878
    39  C    0.357576
    40  O   -0.433411
    41  C   -0.359322
    42  C    0.623881
    43  O   -0.512350
    44  O   -0.447842
    45  C   -0.075557
    46  C    0.013358
    47  C   -0.140603
    48  C    0.163146
    49  C   -0.365222
    50  C   -0.214503
    51  C   -0.167184
    52  C   -0.195346
    53  C   -0.039672
    54  C   -0.299564
    55  C   -0.169036
    56  C   -0.159046
    57  C   -0.159322
    58  C   -0.045850
    59  C   -0.304555
    60  C   -0.147602
    61  C   -0.182872
    62  C   -0.148391
    63  C   -0.044670
    64  C   -0.288955
    65  C   -0.273747
    66  H    0.060539
    67  H    0.079125
    68  H    0.072675
    69  H    0.142661
    70  H    0.109490
    71  H    0.089647
    72  H    0.073749
    73  H    0.121463
    74  H    0.120372
    75  H    0.119820
    76  H    0.138402
    77  H    0.125974
    78  H    0.133123
    79  H    0.106087
    80  H    0.107922
    81  H    0.094588
    82  H    0.087300
    83  H    0.109326
    84  H    0.115257
    85  H    0.094907
    86  H    0.134456
    87  H    0.103177
    88  H    0.103717
    89  H    0.067860
    90  H    0.106655
    91  H    0.119056
    92  H    0.119800
    93  H    0.134172
    94  H    0.117613
    95  H    0.164845
    96  H    0.134029
    97  H    0.119814
    98  H    0.128857
    99  H    0.120029
   100  H    0.132885
   101  H    0.090555
   102  H    0.083474
   103  H    0.118900
   104  H    0.143854
   105  H    0.080467
   106  H    0.101797
   107  H    0.069649
   108  H    0.101231
   109  H    0.075804
   110  H    0.086475
   111  H    0.077269
   112  H    0.100037
   113  H    0.088959
   114  H    0.085537
   115  H    0.090855
   116  H    0.093102
   117  H    0.107928
   118  H    0.062077
   119  H    0.080732
   120  H    0.067356
   121  H    0.079734
   122  H    0.083242
   123  H    0.086628
   124  H    0.098211
   125  H    0.040417
   126  H    0.099142
   127  H    0.090437
   128  H    0.104246
   129  H    0.088059
   130  H    0.084076
   131  H    0.080444
   132  H    0.095339
   133  H    0.098092
   134  H    0.066872
   135  H    0.083529
   136  H    0.084037
   137  H    0.075046
 Sum of Mulliken charges =  -0.00000

 Dipole moment (field-independent basis, Debye):
    X=              2.4859    Y=              3.4845    Z=              0.7177  Tot=              4.3401
 Quadrupole moment (field-independent basis, Debye-Ang):
   XX=           -364.3554   YY=           -389.2941   ZZ=           -403.7764
   XY=            -21.2347   XZ=              6.6851   YZ=             -3.5339

 Normal termination of Gaussian 16 at Thu Sep 12 12:18:04 2019.
