 Gaussian 09, Revision D.01,
 Gaussian 09:  ES64L-G09RevD.01 24-Apr-2013

 -------------------------------------
 # td=(NStates=1) CAM-B3LYP/6-31G(d,p)
 -------------------------------------

 --
 TD
 --
 Symbolic Z-matrix:
 Charge =  0 Multiplicity = 1

                         Standard orientation:
 ---------------------------------------------------------------------
 Center     Atomic      Atomic             Coordinates (Angstroms)
 Number     Number       Type             X           Y           Z
 ---------------------------------------------------------------------
      1         12           0       -7.206338    0.595992    0.097304
      2          6           0       -4.788824   -1.953315    0.539624
      3          6           0       -4.891669    2.857983    1.210067
      4          6           0       -9.460120    2.990580   -0.445498
      5          6           0       -9.629685   -1.815585   -0.706628
      6          7           0       -5.120416    0.447839    0.680585
      7          6           0       -4.346267   -0.638666    0.800377
      8          6           0       -2.813979   -0.378914    1.223218
      9          6           0       -3.043169    1.091289    1.677527
     10          6           0       -4.355794    1.505863    1.126014
     11          6           0       -2.959051    1.313789    3.160195
     12          6           0       -1.989315   -0.569658    0.010283
     13          6           0       -0.446762   -0.250586    0.442227
     14          6           0        0.484016   -0.561746   -0.623363
     15          8           0        0.156695   -1.055634   -1.687011
     16          8           0        1.777921   -0.307565   -0.226186
     17          7           0       -7.044258    2.598731    0.191457
     18          6           0       -6.065332    3.359857    0.705429
     19          6           0       -6.504240    4.776672    0.758279
     20          6           0       -7.788812    4.784936    0.299510
     21          6           0       -8.159009    3.417976   -0.035903
     22          6           0       -5.577917    5.914249    1.104341
     23          6           0       -8.674040    6.053621    0.198496
     24          6           0       -8.556500    7.195989    0.896774
     25          7           0       -9.145436    0.594028   -0.442115
     26          6           0       -9.902823    1.734380   -0.687555
     27          6           0      -11.221273    1.387766   -1.115065
     28          6           0      -11.292817   -0.051586   -1.190069
     29          6           0      -10.000560   -0.411594   -0.758577
     30          6           0      -12.301218    2.338938   -1.405945
     31          6           0      -12.424985   -0.904243   -1.645906
     32          6           0      -12.227250   -1.202967   -3.179754
     33          7           0       -7.204250   -1.493275   -0.095504
     34          6           0       -8.370819   -2.316763   -0.398788
     35          6           0       -7.814722   -3.673365   -0.379811
     36          6           0       -6.458773   -3.601893   -0.002595
     37          6           0       -6.131469   -2.201856    0.086414
     38          6           0       -8.432534   -4.930710   -0.671647
     39          6           0       -5.227978   -4.271137    0.174031
     40          8           0       -5.007697   -5.483840    0.092058
     41          6           0       -4.105534   -3.260931    0.577434
     42          6           0       -3.469516   -3.714396    1.896777
     43          8           0       -3.614414   -3.118977    3.001083
     44          8           0       -2.639910   -4.666744    1.723583
     45          6           0       -2.153212   -5.260203    2.932801
     46          6           0        2.765515   -0.514749   -1.324344
     47          6           0        4.200090   -0.376363   -0.683023
     48          6           0        5.170541    0.416441   -1.052183
     49          6           0        5.024523    1.300628   -2.302087
     50          6           0        6.433738    0.385220   -0.263967
     51          6           0        7.673432    0.003724   -1.065339
     52          6           0        8.987771   -0.082893   -0.256912
     53          6           0       10.267887   -0.462250   -1.089691
     54          6           0       10.037589   -1.969220   -1.554645
     55          6           0       11.407295   -0.165921   -0.197358
     56          6           0       12.828194   -0.436993   -0.709138
     57          6           0       13.916145   -0.082402    0.269289
     58          6           0       15.266441   -0.274404   -0.380026
     59          6           0       15.696501   -1.685178   -0.690791
     60          6           0       16.422250    0.369165    0.468323
     61          6           0       17.844850    0.496680   -0.191598
     62          6           0       18.801521    1.140573    0.856098
     63          6           0       20.287952    1.307925    0.353416
     64          6           0       20.420751    2.059900   -0.980566
     65          6           0       21.193173    1.958020    1.455041
     66          1           0       -4.265108    3.668178    1.493810
     67          1           0      -10.287374    3.746038   -0.718282
     68          1           0      -10.170944   -2.687648   -1.000724
     69          1           0       -2.745912   -1.168620    2.048933
     70          1           0       -2.407395    1.906020    1.059656
     71          1           0       -2.014854    0.980712    3.675925
     72          1           0       -3.324755    2.433895    3.296915
     73          1           0       -3.869601    0.674819    3.537771
     74          1           0       -1.990420   -1.569158   -0.553921
     75          1           0       -2.155366    0.126539   -0.835475
     76          1           0       -0.468284    0.894938    0.886194
     77          1           0       -0.276643   -0.953272    1.310039
     78          1           0       -6.007818    6.830684    0.491958
     79          1           0       -5.933970    6.215749    2.084259
     80          1           0       -4.685633    5.759563    0.812505
     81          1           0       -9.642903    5.951672   -0.375842
     82          1           0       -9.305824    7.845373    0.874513
     83          1           0       -7.680260    7.424789    1.466647
     84          1           0      -11.960731    3.246320   -2.143017
     85          1           0      -13.154113    1.928621   -1.940671
     86          1           0      -12.712873    3.035229   -0.506480
     87          1           0      -12.545867   -1.791551   -1.097429
     88          1           0      -13.498002   -0.285597   -1.629569
     89          1           0      -12.914982   -2.055478   -3.658690
     90          1           0      -12.289614   -0.331411   -3.714634
     91          1           0      -11.106928   -1.418917   -3.345560
     92          1           0       -9.042202   -4.782618   -1.803916
     93          1           0       -7.685463   -5.639730   -0.477531
     94          1           0       -9.316491   -5.139158    0.062852
     95          1           0       -3.270908   -3.230124   -0.183879
     96          1           0       -1.932545   -4.459461    3.619384
     97          1           0       -2.977969   -5.758188    3.478524
     98          1           0       -1.188448   -5.972739    2.844455
     99          1           0        2.709811   -1.492742   -1.850744
    100          1           0        2.678510    0.146319   -2.045610
    101          1           0        4.281538   -1.101507    0.370228
    102          1           0        4.078045    1.263582   -2.701386
    103          1           0        5.430110    2.474596   -2.381399
    104          1           0        5.875268    1.010651   -3.046913
    105          1           0        6.638372    1.420868    0.255795
    106          1           0        6.335290   -0.325063    0.493157
    107          1           0        7.444889   -1.026755   -1.331144
    108          1           0        7.857645    0.865519   -2.008428
    109          1           0        9.035730    0.926811    0.070507
    110          1           0        8.927577   -0.989345    0.662070
    111          1           0       10.289679    0.105186   -2.081849
    112          1           0        9.088819   -2.043720   -2.063329
    113          1           0       10.857346   -2.452944   -2.112658
    114          1           0       10.048470   -2.710239   -0.693413
    115          1           0       11.454717    0.888382    0.079225
    116          1           0       11.296862   -0.861718    0.695770
    117          1           0       12.809357   -1.381919   -0.969210
    118          1           0       13.054915    0.184584   -1.746765
    119          1           0       13.666526    0.899447    0.782836
    120          1           0       14.100343   -0.555416    1.182962
    121          1           0       15.417459    0.433681   -1.372715
    122          1           0       15.797762   -2.315290    0.127152
    123          1           0       14.633683   -1.950252   -1.160712
    124          1           0       16.685210   -1.815977   -1.526320
    125          1           0       16.184570    1.406916    0.631633
    126          1           0       16.641400   -0.302853    1.444792
    127          1           0       18.303678   -0.594927   -0.241970
    128          1           0       17.719630    0.883980   -1.239639
    129          1           0       18.301535    2.175787    1.226447
    130          1           0       18.764429    0.423237    1.693356
    131          1           0       20.629367    0.272166    0.347037
    132          1           0       19.865559    2.919318   -0.811332
    133          1           0       21.562463    1.960478   -1.207633
    134          1           0       19.926107    1.474950   -1.867465
    135          1           0       20.831124    1.453309    2.523304
    136          1           0       22.147596    1.986233    1.088486
    137          1           0       20.889386    2.948066    1.591060
 ---------------------------------------------------------------------

 SCF Done:  E(RCAM-B3LYP) =  -2932.61495643     A.U. after   16 cycles

 Excitation energies and oscillator strengths:

 Excited State   1:      Singlet-A      2.0343 eV  609.46 nm  f=0.1940  <S**2>=0.000
     240 -> 243       -0.25140
     241 -> 242        0.63783
     241 -> 243       -0.10659
 This state for optimization and/or second-order correction.
 Total Energy, E(TD-HF/TD-KS) =  -2932.54019652
 Copying the excited state density for this state as the 1-particle RhoCI density.

 The electronic state is 1-A.
 Alpha  occ. eigenvalues --  -46.84450 -19.28208 -19.26604 -19.21427 -19.20117
 Alpha  occ. eigenvalues --  -19.19464 -14.42267 -14.39465 -14.39306 -14.38887
 Alpha  occ. eigenvalues --  -10.39694 -10.39359 -10.34505 -10.32419 -10.32055
 Alpha  occ. eigenvalues --  -10.31648 -10.30952 -10.29957 -10.29646 -10.29574
 Alpha  occ. eigenvalues --  -10.29378 -10.29015 -10.29005 -10.28769 -10.28651
 Alpha  occ. eigenvalues --  -10.28611 -10.28409 -10.28282 -10.28253 -10.27988
 Alpha  occ. eigenvalues --  -10.27943 -10.27817 -10.27767 -10.27707 -10.27687
 Alpha  occ. eigenvalues --  -10.27625 -10.27571 -10.27535 -10.27534 -10.27350
 Alpha  occ. eigenvalues --  -10.27293 -10.27081 -10.26954 -10.26784 -10.26703
 Alpha  occ. eigenvalues --  -10.26595 -10.26512 -10.26401 -10.26313 -10.26123
 Alpha  occ. eigenvalues --  -10.26062 -10.26039 -10.25901 -10.25798 -10.25779
 Alpha  occ. eigenvalues --  -10.25699 -10.25413 -10.25279 -10.25213 -10.25208
 Alpha  occ. eigenvalues --  -10.25175 -10.25101 -10.25077 -10.24730 -10.24349
 Alpha  occ. eigenvalues --   -3.13448  -1.88160  -1.87716  -1.87592  -1.21334
 Alpha  occ. eigenvalues --   -1.17036  -1.09614  -1.08995  -1.07180  -1.04826
 Alpha  occ. eigenvalues --   -1.03504  -1.03054  -1.02338  -0.92469  -0.91621
 Alpha  occ. eigenvalues --   -0.90905  -0.90234  -0.89109  -0.89051  -0.88685
 Alpha  occ. eigenvalues --   -0.88158  -0.87986  -0.87920  -0.87606  -0.85992
 Alpha  occ. eigenvalues --   -0.85117  -0.84190  -0.83991  -0.83135  -0.82582
 Alpha  occ. eigenvalues --   -0.82131  -0.81448  -0.80585  -0.79731  -0.78550
 Alpha  occ. eigenvalues --   -0.77778  -0.77101  -0.76383  -0.76130  -0.75675
 Alpha  occ. eigenvalues --   -0.75283  -0.74786  -0.73793  -0.72962  -0.72081
 Alpha  occ. eigenvalues --   -0.71735  -0.70523  -0.69789  -0.69259  -0.67749
 Alpha  occ. eigenvalues --   -0.66934  -0.65555  -0.65499  -0.64968  -0.64526
 Alpha  occ. eigenvalues --   -0.64142  -0.63006  -0.62551  -0.62334  -0.61517
 Alpha  occ. eigenvalues --   -0.61177  -0.60720  -0.60107  -0.59452  -0.59175
 Alpha  occ. eigenvalues --   -0.58599  -0.58009  -0.57884  -0.57237  -0.56575
 Alpha  occ. eigenvalues --   -0.56242  -0.56048  -0.55878  -0.55538  -0.54822
 Alpha  occ. eigenvalues --   -0.54700  -0.54311  -0.53955  -0.53861  -0.53350
 Alpha  occ. eigenvalues --   -0.53023  -0.52915  -0.52280  -0.52210  -0.51956
 Alpha  occ. eigenvalues --   -0.51671  -0.51101  -0.50838  -0.50680  -0.50333
 Alpha  occ. eigenvalues --   -0.50181  -0.50032  -0.50006  -0.49534  -0.49291
 Alpha  occ. eigenvalues --   -0.49073  -0.48564  -0.48539  -0.48270  -0.48176
 Alpha  occ. eigenvalues --   -0.47916  -0.47554  -0.47417  -0.47265  -0.47181
 Alpha  occ. eigenvalues --   -0.46760  -0.46214  -0.46134  -0.45836  -0.45689
 Alpha  occ. eigenvalues --   -0.45597  -0.45490  -0.45421  -0.45269  -0.44785
 Alpha  occ. eigenvalues --   -0.44602  -0.44536  -0.44433  -0.44266  -0.43894
 Alpha  occ. eigenvalues --   -0.43882  -0.43681  -0.43600  -0.43542  -0.43246
 Alpha  occ. eigenvalues --   -0.42970  -0.42785  -0.42474  -0.42381  -0.42205
 Alpha  occ. eigenvalues --   -0.41931  -0.41840  -0.41548  -0.41334  -0.41294
 Alpha  occ. eigenvalues --   -0.41003  -0.40925  -0.40816  -0.40751  -0.40303
 Alpha  occ. eigenvalues --   -0.40037  -0.39716  -0.39302  -0.39124  -0.38995
 Alpha  occ. eigenvalues --   -0.38645  -0.38421  -0.37764  -0.37660  -0.37496
 Alpha  occ. eigenvalues --   -0.37308  -0.37127  -0.36980  -0.36776  -0.36586
 Alpha  occ. eigenvalues --   -0.36492  -0.36100  -0.35926  -0.35809  -0.35726
 Alpha  occ. eigenvalues --   -0.35558  -0.35336  -0.34408  -0.34287  -0.33351
 Alpha  occ. eigenvalues --   -0.32942  -0.32774  -0.32154  -0.30575  -0.30213
 Alpha  occ. eigenvalues --   -0.29647  -0.28823  -0.28086  -0.27537  -0.23254
 Alpha  occ. eigenvalues --   -0.20921
 Alpha virt. eigenvalues --   -0.06317  -0.03708   0.01643   0.04181   0.05204
 Alpha virt. eigenvalues --    0.05547   0.06000   0.06455   0.06698   0.06857
 Alpha virt. eigenvalues --    0.08151   0.10192   0.10829   0.10972   0.11092

 Mulliken charges:
               1
     1  Mg   0.825298
     2  C    0.090013
     3  C   -0.206292
     4  C   -0.187037
     5  C   -0.146874
     6  N   -0.596713
     7  C    0.270994
     8  C   -0.144283
     9  C   -0.147514
    10  C    0.322302
    11  C   -0.288456
    12  C   -0.179505
    13  C   -0.283616
    14  C    0.641235
    15  O   -0.476708
    16  O   -0.493970
    17  N   -0.724506
    18  C    0.316896
    19  C   -0.019697
    20  C    0.019008
    21  C    0.281274
    22  C   -0.357114
    23  C   -0.076133
    24  C   -0.224126
    25  N   -0.704872
    26  C    0.332225
    27  C    0.030605
    28  C    0.059133
    29  C    0.273085
    30  C   -0.393442
    31  C   -0.233835
    32  C   -0.308512
    33  N   -0.754269
    34  C    0.263056
    35  C    0.021372
    36  C    0.045490
    37  C    0.311761
    38  C   -0.379841
    39  C    0.336869
    40  O   -0.488040
    41  C   -0.338011
    42  C    0.614397
    43  O   -0.519972
    44  O   -0.383990
    45  C   -0.108169
    46  C    0.020818
    47  C   -0.172151
    48  C    0.182429
    49  C   -0.365030
    50  C   -0.221256
    51  C   -0.174692
    52  C   -0.144392
    53  C   -0.059759
    54  C   -0.328498
    55  C   -0.165422
    56  C   -0.171227
    57  C   -0.168849
    58  C   -0.060132
    59  C   -0.277286
    60  C   -0.164206
    61  C   -0.181332
    62  C   -0.166417
    63  C   -0.068797
    64  C   -0.295833
    65  C   -0.297108
    66  H    0.068833
    67  H    0.091835
    68  H    0.095396
    69  H    0.148614
    70  H    0.092356
    71  H    0.119913
    72  H    0.104417
    73  H    0.116546
    74  H    0.128876
    75  H    0.124163
    76  H    0.124634
    77  H    0.142257
    78  H    0.111604
    79  H    0.141758
    80  H    0.122813
    81  H    0.086131
    82  H    0.104818
    83  H    0.092821
    84  H    0.093662
    85  H    0.119328
    86  H    0.106647
    87  H    0.118270
    88  H    0.084865
    89  H    0.089895
    90  H    0.126422
    91  H    0.100226
    92  H    0.096349
    93  H    0.161192
    94  H    0.117939
    95  H    0.161903
    96  H    0.150082
    97  H    0.139570
    98  H    0.121042
    99  H    0.136759
   100  H    0.119855
   101  H    0.073725
   102  H    0.121492
   103  H    0.091979
   104  H    0.114850
   105  H    0.083991
   106  H    0.109011
   107  H    0.104502
   108  H    0.057092
   109  H    0.097237
   110  H    0.058017
   111  H    0.082261
   112  H    0.116159
   113  H    0.102017
   114  H    0.087779
   115  H    0.094245
   116  H    0.085748
   117  H    0.114728
   118  H    0.066779
   119  H    0.088152
   120  H    0.101929
   121  H    0.054057
   122  H    0.114577
   123  H    0.074993
   124  H    0.086115
   125  H    0.089620
   126  H    0.056714
   127  H    0.071054
   128  H    0.089855
   129  H    0.058084
   130  H    0.096080
   131  H    0.086998
   132  H    0.119686
   133  H    0.094537
   134  H    0.091926
   135  H    0.077159
   136  H    0.107014
   137  H    0.107671
 Sum of Mulliken charges =   0.00000

 Dipole moment (field-independent basis, Debye):
    X=              0.9869    Y=              3.7955    Z=              0.4172  Tot=              3.9439
 Quadrupole moment (field-independent basis, Debye-Ang):
   XX=           -361.6405   YY=           -392.1971   ZZ=           -400.3281
   XY=            -21.7370   XZ=              8.7100   YZ=             -6.5675

 Normal termination of Gaussian 09 at Sat Jul  6 21:56:49 2019.
