 Gaussian 09, Revision D.01,
 Gaussian 09:  ES64L-G09RevD.01 24-Apr-2013

 -------------------------------------
 # td=(NStates=1) CAM-B3LYP/6-31G(d,p)
 -------------------------------------

 --
 TD
 --
 Symbolic Z-matrix:
 Charge =  0 Multiplicity = 1

                         Standard orientation:
 ---------------------------------------------------------------------
 Center     Atomic      Atomic             Coordinates (Angstroms)
 Number     Number       Type             X           Y           Z
 ---------------------------------------------------------------------
      1         12           0       -7.040403    0.616029   -0.003882
      2          6           0       -4.846221   -2.000777    0.516061
      3          6           0       -4.827873    2.784923    1.093980
      4          6           0       -9.447471    3.068746   -0.506306
      5          6           0       -9.495178   -1.686389   -0.934726
      6          7           0       -5.018221    0.429699    0.725499
      7          6           0       -4.266934   -0.755209    0.818183
      8          6           0       -2.876199   -0.389013    1.204839
      9          6           0       -3.003326    0.992276    1.663461
     10          6           0       -4.304661    1.419650    1.100934
     11          6           0       -3.037212    1.233465    3.133028
     12          6           0       -1.886309   -0.718571    0.170111
     13          6           0       -0.449813   -0.534309    0.562033
     14          6           0        0.434466   -0.705682   -0.543847
     15          8           0        0.238991   -1.099023   -1.623321
     16          8           0        1.761152   -0.514406   -0.081975
     17          7           0       -7.072039    2.530496    0.419914
     18          6           0       -6.073196    3.238332    0.869736
     19          6           0       -6.457654    4.753940    0.863702
     20          6           0       -7.751704    4.797274    0.373984
     21          6           0       -8.123283    3.414204    0.045917
     22          6           0       -5.484623    5.876511    1.311513
     23          6           0       -8.671886    5.894579    0.272574
     24          6           0       -8.626596    7.199824    0.891304
     25          7           0       -9.060133    0.707537   -0.792462
     26          6           0       -9.894037    1.826441   -0.749565
     27          6           0      -11.115161    1.466704   -1.155762
     28          6           0      -11.241501    0.077332   -1.237794
     29          6           0       -9.870205   -0.381960   -0.970767
     30          6           0      -12.375979    2.442357   -1.389773
     31          6           0      -12.433097   -0.745914   -1.644489
     32          6           0      -12.533967   -0.944503   -3.302958
     33          7           0       -7.167394   -1.446335   -0.195287
     34          6           0       -8.179363   -2.216844   -0.607739
     35          6           0       -7.784408   -3.531041   -0.638039
     36          6           0       -6.434532   -3.606849   -0.195177
     37          6           0       -6.115629   -2.226202    0.083968
     38          6           0       -8.720503   -4.824809   -0.901304
     39          6           0       -5.225763   -4.321652    0.186513
     40          8           0       -5.117289   -5.497893    0.248602
     41          6           0       -4.153846   -3.343658    0.554357
     42          6           0       -3.455483   -3.668213    1.800350
     43          8           0       -3.721203   -3.149863    2.915943
     44          8           0       -2.604138   -4.676976    1.775026
     45          6           0       -2.258666   -5.261581    3.081344
     46          6           0        2.754952   -0.811590   -1.162805
     47          6           0        4.066360   -0.469349   -0.591774
     48          6           0        5.041099    0.360032   -1.026259
     49          6           0        5.004714    1.451755   -2.113792
     50          6           0        6.346400    0.512710   -0.192438
     51          6           0        7.610671   -0.054631   -0.842634
     52          6           0        8.852989    0.042777    0.007367
     53          6           0       10.160308   -0.424658   -0.741877
     54          6           0       10.135624   -1.879259   -1.096572
     55          6           0       11.365783   -0.026683    0.047988
     56          6           0       12.654946   -0.344965   -0.666743
     57          6           0       13.925556    0.036051    0.129878
     58          6           0       15.338666   -0.139906   -0.629186
     59          6           0       15.685068   -1.590460   -0.958500
     60          6           0       16.470527    0.389040    0.353133
     61          6           0       17.801437    0.552926   -0.286236
     62          6           0       18.864379    1.111544    0.615309
     63          6           0       20.369544    1.197021    0.151769
     64          6           0       20.394062    2.143364   -1.118893
     65          6           0       21.317669    1.613993    1.273350
     66          1           0       -3.883957    3.442559    1.350703
     67          1           0      -10.061920    4.102395   -0.464742
     68          1           0      -10.133788   -2.431345   -1.094831
     69          1           0       -2.592347   -1.007123    2.177107
     70          1           0       -2.052411    1.583042    1.355236
     71          1           0       -2.371705    0.996915    3.729294
     72          1           0       -3.180972    2.426090    3.435675
     73          1           0       -3.752182    0.563507    3.594778
     74          1           0       -1.798422   -1.741518   -0.416790
     75          1           0       -2.185377   -0.187113   -0.834986
     76          1           0       -0.227505    0.409424    0.858089
     77          1           0       -0.017328   -1.063378    1.331723
     78          1           0       -5.696445    6.932311    1.329111
     79          1           0       -5.322694    5.934663    2.500670
     80          1           0       -4.375664    5.594604    1.087325
     81          1           0       -9.379562    5.703576   -0.384489
     82          1           0       -9.223523    7.918761    0.361274
     83          1           0       -7.885939    7.463395    1.533694
     84          1           0      -12.279903    3.066424   -2.344851
     85          1           0      -13.390339    1.953080   -1.636299
     86          1           0      -12.503166    3.102459   -0.450950
     87          1           0      -12.261622   -1.742777   -1.278455
     88          1           0      -13.326009   -0.304600   -1.091096
     89          1           0      -13.368329   -1.659160   -3.472007
     90          1           0      -12.875662    0.068777   -3.924174
     91          1           0      -11.659480   -1.346664   -3.701385
     92          1           0       -8.869840   -4.951960   -2.003565
     93          1           0       -8.259827   -5.869958   -0.608696
     94          1           0       -9.687293   -4.968504   -0.525892
     95          1           0       -3.611163   -3.633679   -0.411407
     96          1           0       -1.605471   -4.452357    3.538203
     97          1           0       -3.132693   -5.419273    3.788431
     98          1           0       -1.716513   -6.158789    2.769874
     99          1           0        2.571607   -1.839537   -1.516185
    100          1           0        2.539371   -0.113801   -2.051794
    101          1           0        4.333818   -1.127872    0.182676
    102          1           0        4.040942    1.579482   -2.730144
    103          1           0        5.178455    2.488259   -1.783411
    104          1           0        5.804849    1.269896   -2.831423
    105          1           0        6.633092    1.646761   -0.009301
    106          1           0        5.966331    0.167422    0.839898
    107          1           0        7.484726   -1.025629   -1.362757
    108          1           0        7.696888    0.798323   -1.604805
    109          1           0        9.013203    1.152624    0.311480
    110          1           0        8.851149   -0.612525    0.811769
    111          1           0       10.207022    0.206660   -1.684427
    112          1           0        9.147601   -2.009261   -1.632754
    113          1           0       10.927414   -2.171412   -1.669345
    114          1           0       10.110923   -2.703012   -0.375028
    115          1           0       11.574201    0.910366    0.399958
    116          1           0       11.615266   -0.759481    0.928092
    117          1           0       12.623275   -1.404670   -0.858008
    118          1           0       12.836345    0.338751   -1.454237
    119          1           0       13.816470    0.995245    0.453919
    120          1           0       14.007626   -0.729200    1.002292
    121          1           0       15.128670    0.381541   -1.568848
    122          1           0       15.859129   -2.274653   -0.128552
    123          1           0       14.901168   -1.933628   -1.478873
    124          1           0       16.582690   -1.524192   -1.612274
    125          1           0       16.256410    1.355564    0.823511
    126          1           0       16.483215   -0.338712    1.172302
    127          1           0       18.055815   -0.339873   -0.833509
    128          1           0       17.777647    1.216638   -1.024418
    129          1           0       18.646371    2.351792    0.863165
    130          1           0       18.728163    0.491867    1.583271
    131          1           0       20.558439    0.086986   -0.200942
    132          1           0       19.861269    2.843853   -0.801788
    133          1           0       21.433924    2.130474   -1.507660
    134          1           0       19.945406    1.695666   -2.018269
    135          1           0       21.207571    1.022256    2.239890
    136          1           0       22.273188    1.601400    0.814463
    137          1           0       21.220985    2.656494    1.459848
 ---------------------------------------------------------------------

 SCF Done:  E(RCAM-B3LYP) =  -2932.61981631     A.U. after   17 cycles

 Excitation energies and oscillator strengths:

 Excited State   1:      Singlet-A      2.1402 eV  579.30 nm  f=0.2466  <S**2>=0.000
     240 -> 243        0.23742
     241 -> 242        0.65590
 This state for optimization and/or second-order correction.
 Total Energy, E(TD-HF/TD-KS) =  -2932.54116410
 Copying the excited state density for this state as the 1-particle RhoCI density.

 The electronic state is 1-A.
 Alpha  occ. eigenvalues --  -46.85070 -19.26211 -19.24176 -19.21786 -19.19423
 Alpha  occ. eigenvalues --  -19.18898 -14.42538 -14.40290 -14.38576 -14.38287
 Alpha  occ. eigenvalues --  -10.38996 -10.38330 -10.34043 -10.32123 -10.31583
 Alpha  occ. eigenvalues --  -10.31569 -10.31558 -10.30892 -10.30460 -10.29532
 Alpha  occ. eigenvalues --  -10.28706 -10.28655 -10.28445 -10.28315 -10.28285
 Alpha  occ. eigenvalues --  -10.28267 -10.28177 -10.27911 -10.27809 -10.27769
 Alpha  occ. eigenvalues --  -10.27666 -10.27608 -10.27603 -10.27581 -10.27508
 Alpha  occ. eigenvalues --  -10.27465 -10.27280 -10.27229 -10.27214 -10.26924
 Alpha  occ. eigenvalues --  -10.26863 -10.26826 -10.26587 -10.26510 -10.26451
 Alpha  occ. eigenvalues --  -10.26409 -10.26393 -10.26286 -10.26177 -10.25994
 Alpha  occ. eigenvalues --  -10.25931 -10.25730 -10.25546 -10.25352 -10.25254
 Alpha  occ. eigenvalues --  -10.24566 -10.24506 -10.24353 -10.24324 -10.24145
 Alpha  occ. eigenvalues --  -10.24094 -10.23682 -10.23539 -10.23354 -10.22821
 Alpha  occ. eigenvalues --   -3.13999  -1.88712  -1.88218  -1.88185  -1.18207
 Alpha  occ. eigenvalues --   -1.17955  -1.12278  -1.08539  -1.07078  -1.06106
 Alpha  occ. eigenvalues --   -1.04341  -1.04162  -1.02540  -0.93962  -0.92756
 Alpha  occ. eigenvalues --   -0.91456  -0.90192  -0.90045  -0.89687  -0.88886
 Alpha  occ. eigenvalues --   -0.88362  -0.87742  -0.87127  -0.86638  -0.85726
 Alpha  occ. eigenvalues --   -0.85447  -0.84051  -0.83633  -0.83208  -0.82268
 Alpha  occ. eigenvalues --   -0.81671  -0.81261  -0.80771  -0.79986  -0.79137
 Alpha  occ. eigenvalues --   -0.77955  -0.77201  -0.76978  -0.76176  -0.75571
 Alpha  occ. eigenvalues --   -0.75530  -0.74915  -0.74535  -0.73919  -0.72996
 Alpha  occ. eigenvalues --   -0.72394  -0.71449  -0.70592  -0.69619  -0.68710
 Alpha  occ. eigenvalues --   -0.68086  -0.66487  -0.65644  -0.65560  -0.64362
 Alpha  occ. eigenvalues --   -0.64174  -0.63269  -0.62699  -0.62493  -0.62216
 Alpha  occ. eigenvalues --   -0.61308  -0.61063  -0.60901  -0.60479  -0.59939
 Alpha  occ. eigenvalues --   -0.59454  -0.58514  -0.57911  -0.57785  -0.57364
 Alpha  occ. eigenvalues --   -0.56962  -0.56481  -0.55546  -0.55349  -0.55209
 Alpha  occ. eigenvalues --   -0.55031  -0.55005  -0.54607  -0.53741  -0.53635
 Alpha  occ. eigenvalues --   -0.53391  -0.53027  -0.52559  -0.51897  -0.51488
 Alpha  occ. eigenvalues --   -0.51301  -0.51146  -0.51006  -0.50606  -0.50548
 Alpha  occ. eigenvalues --   -0.50261  -0.50084  -0.49921  -0.49528  -0.49381
 Alpha  occ. eigenvalues --   -0.48910  -0.48733  -0.48585  -0.48412  -0.48266
 Alpha  occ. eigenvalues --   -0.48010  -0.47934  -0.47832  -0.47746  -0.47568
 Alpha  occ. eigenvalues --   -0.47277  -0.47030  -0.46923  -0.46233  -0.46168
 Alpha  occ. eigenvalues --   -0.45837  -0.45411  -0.45291  -0.45224  -0.45027
 Alpha  occ. eigenvalues --   -0.44761  -0.44508  -0.44223  -0.44107  -0.43758
 Alpha  occ. eigenvalues --   -0.43654  -0.43531  -0.43460  -0.43291  -0.42882
 Alpha  occ. eigenvalues --   -0.42837  -0.42752  -0.42554  -0.42504  -0.42339
 Alpha  occ. eigenvalues --   -0.42333  -0.42169  -0.41867  -0.41746  -0.41610
 Alpha  occ. eigenvalues --   -0.41350  -0.41126  -0.40984  -0.40889  -0.40476
 Alpha  occ. eigenvalues --   -0.40335  -0.40202  -0.40109  -0.40085  -0.39636
 Alpha  occ. eigenvalues --   -0.39284  -0.38928  -0.38699  -0.38078  -0.37924
 Alpha  occ. eigenvalues --   -0.37276  -0.37092  -0.36691  -0.36595  -0.36416
 Alpha  occ. eigenvalues --   -0.36301  -0.36127  -0.35763  -0.35690  -0.35251
 Alpha  occ. eigenvalues --   -0.35014  -0.34757  -0.34496  -0.34302  -0.33416
 Alpha  occ. eigenvalues --   -0.33106  -0.32604  -0.32238  -0.31185  -0.30018
 Alpha  occ. eigenvalues --   -0.29353  -0.28522  -0.27580  -0.27268  -0.23070
 Alpha  occ. eigenvalues --   -0.21258
 Alpha virt. eigenvalues --   -0.06432  -0.02855   0.00594   0.03205   0.05037
 Alpha virt. eigenvalues --    0.05245   0.05382   0.06591   0.07055   0.07503
 Alpha virt. eigenvalues --    0.08420   0.10621   0.11549   0.11874   0.12068

 Mulliken charges:
               1
     1  Mg   0.834733
     2  C    0.107789
     3  C   -0.215299
     4  C   -0.216070
     5  C   -0.134383
     6  N   -0.616190
     7  C    0.263460
     8  C   -0.155730
     9  C   -0.158966
    10  C    0.374588
    11  C   -0.289563
    12  C   -0.194336
    13  C   -0.248217
    14  C    0.606668
    15  O   -0.444412
    16  O   -0.542895
    17  N   -0.735527
    18  C    0.363411
    19  C    0.023103
    20  C    0.021821
    21  C    0.272012
    22  C   -0.381553
    23  C   -0.085082
    24  C   -0.229950
    25  N   -0.705041
    26  C    0.348879
    27  C    0.017409
    28  C    0.023259
    29  C    0.321395
    30  C   -0.366617
    31  C   -0.242356
    32  C   -0.306315
    33  N   -0.741874
    34  C    0.294403
    35  C   -0.052343
    36  C    0.045880
    37  C    0.241713
    38  C   -0.383420
    39  C    0.317624
    40  O   -0.444183
    41  C   -0.305884
    42  C    0.642444
    43  O   -0.524651
    44  O   -0.453785
    45  C   -0.077508
    46  C    0.018044
    47  C   -0.124089
    48  C    0.120713
    49  C   -0.372231
    50  C   -0.232178
    51  C   -0.169823
    52  C   -0.159602
    53  C   -0.051531
    54  C   -0.329305
    55  C   -0.156217
    56  C   -0.195199
    57  C   -0.185633
    58  C   -0.082195
    59  C   -0.306430
    60  C   -0.165775
    61  C   -0.161671
    62  C   -0.163074
    63  C   -0.069205
    64  C   -0.302771
    65  C   -0.300234
    66  H    0.076604
    67  H    0.094356
    68  H    0.072822
    69  H    0.125841
    70  H    0.100581
    71  H    0.120612
    72  H    0.085648
    73  H    0.124239
    74  H    0.125255
    75  H    0.110179
    76  H    0.143397
    77  H    0.159699
    78  H    0.134407
    79  H    0.101330
    80  H    0.118971
    81  H    0.089643
    82  H    0.110578
    83  H    0.101450
    84  H    0.112263
    85  H    0.106163
    86  H    0.111601
    87  H    0.113365
    88  H    0.111304
    89  H    0.108292
    90  H    0.087781
    91  H    0.131072
    92  H    0.112006
    93  H    0.124766
    94  H    0.125560
    95  H    0.176080
    96  H    0.126237
    97  H    0.147800
    98  H    0.133312
    99  H    0.131103
   100  H    0.108898
   101  H    0.091535
   102  H    0.100700
   103  H    0.122465
   104  H    0.123715
   105  H    0.083246
   106  H    0.091400
   107  H    0.103697
   108  H    0.090791
   109  H    0.079712
   110  H    0.106566
   111  H    0.079045
   112  H    0.091820
   113  H    0.120395
   114  H    0.104586
   115  H    0.089505
   116  H    0.069588
   117  H    0.097606
   118  H    0.085944
   119  H    0.096147
   120  H    0.064369
   121  H    0.080847
   122  H    0.101996
   123  H    0.108964
   124  H    0.100048
   125  H    0.084796
   126  H    0.091024
   127  H    0.087873
   128  H    0.104723
   129  H    0.034220
   130  H    0.071266
   131  H    0.064386
   132  H    0.112541
   133  H    0.100992
   134  H    0.103013
   135  H    0.105334
   136  H    0.106696
   137  H    0.105194
 Sum of Mulliken charges =   0.00000

 Dipole moment (field-independent basis, Debye):
    X=              2.2554    Y=              4.6464    Z=             -0.0778  Tot=              5.1654
 Quadrupole moment (field-independent basis, Debye-Ang):
   XX=           -356.5355   YY=           -389.2725   ZZ=           -396.1334
   XY=            -22.3809   XZ=              2.8206   YZ=             -0.3366

 Normal termination of Gaussian 09 at Sat Jul  6 23:22:36 2019.
