 Gaussian 09, Revision D.01,
 Gaussian 09:  ES64L-G09RevD.01 24-Apr-2013

 -------------------------------------
 # td=(NStates=1) CAM-B3LYP/6-31G(d,p)
 -------------------------------------

 --
 TD
 --
 Symbolic Z-matrix:
 Charge =  0 Multiplicity = 1

                         Standard orientation:
 ---------------------------------------------------------------------
 Center     Atomic      Atomic             Coordinates (Angstroms)
 Number     Number       Type             X           Y           Z
 ---------------------------------------------------------------------
      1         12           0       -7.053916    0.694285    0.076947
      2          6           0       -4.966264   -1.941200    0.590704
      3          6           0       -4.721433    2.905883    1.095704
      4          6           0       -9.392578    3.134625   -0.249773
      5          6           0       -9.510464   -1.696817   -0.794696
      6          7           0       -4.950225    0.442583    0.680461
      7          6           0       -4.390729   -0.691251    0.831010
      8          6           0       -2.727301   -0.475848    1.129835
      9          6           0       -2.959707    0.964181    1.630102
     10          6           0       -4.269576    1.442063    1.122606
     11          6           0       -2.885551    1.211600    3.148172
     12          6           0       -1.875773   -0.682724    0.052609
     13          6           0       -0.419680   -0.438130    0.377690
     14          6           0        0.538416   -0.663118   -0.664566
     15          8           0        0.248175   -0.877379   -1.831453
     16          8           0        1.804157   -0.664886   -0.223211
     17          7           0       -7.066004    2.629908    0.414402
     18          6           0       -5.919883    3.331894    0.755583
     19          6           0       -6.390609    4.724656    0.773728
     20          6           0       -7.687576    4.823331    0.527633
     21          6           0       -8.095051    3.497739    0.106419
     22          6           0       -5.428404    5.866281    1.074776
     23          6           0       -8.471837    6.053766    0.200442
     24          6           0       -8.461678    7.176009    0.903782
     25          7           0       -9.040471    0.728884   -0.473602
     26          6           0       -9.851418    1.859176   -0.678007
     27          6           0      -11.102558    1.488320   -1.203099
     28          6           0      -11.157273    0.142721   -1.250370
     29          6           0       -9.872421   -0.339758   -0.869911
     30          6           0      -12.300174    2.440439   -1.404153
     31          6           0      -12.285230   -0.658598   -1.859770
     32          6           0      -12.064590   -0.975966   -3.387313
     33          7           0       -7.219307   -1.342376   -0.098017
     34          6           0       -8.285519   -2.166431   -0.423695
     35          6           0       -7.843850   -3.651983   -0.471337
     36          6           0       -6.560488   -3.560419   -0.092065
     37          6           0       -6.208144   -2.223223    0.216979
     38          6           0       -8.749721   -4.750579   -0.660124
     39          6           0       -5.431733   -4.403857    0.192583
     40          8           0       -5.294292   -5.602547    0.169745
     41          6           0       -4.283245   -3.351802    0.523027
     42          6           0       -3.565322   -3.713820    1.881346
     43          8           0       -3.810879   -3.078199    2.846488
     44          8           0       -2.854311   -4.853424    1.771053
     45          6           0       -2.349115   -5.187061    2.984063
     46          6           0        2.850891   -0.702758   -1.289555
     47          6           0        4.126558   -0.566514   -0.632200
     48          6           0        5.169008    0.263143   -0.963194
     49          6           0        5.101542    1.211865   -2.262321
     50          6           0        6.455751    0.282672   -0.150031
     51          6           0        7.677056   -0.176159   -0.907886
     52          6           0        8.850769   -0.226015   -0.166753
     53          6           0       10.190410   -0.587797   -0.946988
     54          6           0       10.200487   -1.989571   -1.508210
     55          6           0       11.425661   -0.251382   -0.052701
     56          6           0       12.803144   -0.580597   -0.675192
     57          6           0       13.967766   -0.198921    0.306481
     58          6           0       15.331933   -0.211477   -0.409778
     59          6           0       15.620433   -1.674549   -0.900640
     60          6           0       16.297678    0.470955    0.510959
     61          6           0       17.708479    0.625621   -0.161106
     62          6           0       18.675486    1.316043    0.710336
     63          6           0       20.109071    1.426586    0.238034
     64          6           0       20.190626    2.263547   -0.971579
     65          6           0       21.055087    2.030308    1.318357
     66          1           0       -3.947651    3.518079    1.691161
     67          1           0      -10.161114    3.812238   -0.353727
     68          1           0      -10.309006   -2.301034   -1.245617
     69          1           0       -2.528058   -1.279237    1.946482
     70          1           0       -2.269531    1.621979    0.911387
     71          1           0       -1.718191    1.124633    3.366900
     72          1           0       -3.212786    2.116069    3.360411
     73          1           0       -3.418066    0.418178    3.584972
     74          1           0       -1.865610   -1.941200   -0.208709
     75          1           0       -2.161379   -0.271628   -0.883787
     76          1           0       -0.345671    0.601829    0.862368
     77          1           0       -0.308717   -1.163831    1.177554
     78          1           0       -6.011995    6.770880    0.808925
     79          1           0       -5.303944    5.811935    2.306731
     80          1           0       -4.353939    5.645632    0.603601
     81          1           0       -9.100632    6.163796   -0.658179
     82          1           0       -9.086986    8.045012    0.420171
     83          1           0       -7.880287    7.448334    1.860039
     84          1           0      -11.963611    3.018966   -2.188589
     85          1           0      -13.147126    2.120206   -1.667698
     86          1           0      -12.483191    3.189679   -0.682042
     87          1           0      -12.432599   -1.397127   -1.052275
     88          1           0      -13.394422   -0.026736   -1.707764
     89          1           0      -13.186976   -1.371292   -3.760690
     90          1           0      -11.921338    0.070235   -4.049724
     91          1           0      -11.313688   -1.620659   -3.646359
     92          1           0       -9.037044   -4.624579   -1.661854
     93          1           0       -8.298178   -5.687273   -0.529581
     94          1           0       -9.669703   -4.293860    0.008140
     95          1           0       -3.478041   -3.479283   -0.039216
     96          1           0       -1.725600   -4.557749    3.494292
     97          1           0       -3.185148   -5.181118    3.814701
     98          1           0       -1.675373   -6.373009    2.793027
     99          1           0        2.755414   -1.758205   -1.877055
    100          1           0        2.889610    0.166175   -1.716360
    101          1           0        4.140795   -1.212513    0.181003
    102          1           0        4.052121    1.446883   -2.574505
    103          1           0        5.671416    2.076061   -1.950147
    104          1           0        5.588373    0.596329   -2.966948
    105          1           0        6.645400    1.363981    0.103280
    106          1           0        6.202549   -0.461948    0.613932
    107          1           0        7.385080   -1.258225   -1.303680
    108          1           0        7.732648    0.470784   -1.837250
    109          1           0        9.040588    0.760568    0.277163
    110          1           0        8.639683   -0.960387    0.905051
    111          1           0       10.274230   -0.069837   -1.773441
    112          1           0        9.027972   -2.208957   -1.859774
    113          1           0       11.037946   -2.224154   -2.135592
    114          1           0       10.351581   -2.730001   -0.572423
    115          1           0       11.516425    0.842812   -0.013658
    116          1           0       11.280493   -0.846459    0.810065
    117          1           0       12.797013   -1.728633   -1.052675
    118          1           0       12.821971   -0.037173   -1.543858
    119          1           0       13.624223    0.756033    0.561011
    120          1           0       13.896050   -0.781165    1.119511
    121          1           0       14.929869    0.487473   -1.432498
    122          1           0       15.566924   -2.247712    0.045843
    123          1           0       15.001297   -2.330366   -1.513858
    124          1           0       16.388337   -1.673625   -1.522772
    125          1           0       16.039112    1.425154    0.866423
    126          1           0       16.644930   -0.303944    1.436194
    127          1           0       18.181238   -0.575560   -0.454876
    128          1           0       17.548370    1.207071   -1.160093
    129          1           0       18.273434    2.375582    1.101834
    130          1           0       18.611069    0.788513    1.828430
    131          1           0       20.420628    0.466543    0.189248
    132          1           0       19.780788    3.241872   -0.690226
    133          1           0       21.132825    2.509136   -1.450062
    134          1           0       19.616886    2.051230   -1.870445
    135          1           0       20.846548    1.314151    2.121736
    136          1           0       22.148295    1.866303    1.084069
    137          1           0       21.061588    3.044608    1.729646
 ---------------------------------------------------------------------

 SCF Done:  E(RCAM-B3LYP) =  -2932.47500701     A.U. after   17 cycles

 Excitation energies and oscillator strengths:

 Excited State   1:      Singlet-A      2.1394 eV  579.54 nm  f=0.1594  <S**2>=0.000
     240 -> 242       -0.13115
     240 -> 243        0.30065
     241 -> 242        0.59896
     241 -> 243        0.17288
 This state for optimization and/or second-order correction.
 Total Energy, E(TD-HF/TD-KS) =  -2932.39638692
 Copying the excited state density for this state as the 1-particle RhoCI density.

 The electronic state is 1-A.
 Alpha  occ. eigenvalues --  -46.84057 -19.28260 -19.25940 -19.22243 -19.20768
 Alpha  occ. eigenvalues --  -19.20068 -14.42365 -14.39616 -14.38818 -14.38068
 Alpha  occ. eigenvalues --  -10.39677 -10.38583 -10.35087 -10.33082 -10.31766
 Alpha  occ. eigenvalues --  -10.31302 -10.30847 -10.29333 -10.29089 -10.29059
 Alpha  occ. eigenvalues --  -10.28532 -10.28516 -10.28510 -10.28368 -10.28262
 Alpha  occ. eigenvalues --  -10.28184 -10.28129 -10.28120 -10.27795 -10.27696
 Alpha  occ. eigenvalues --  -10.27655 -10.27534 -10.27491 -10.27469 -10.27394
 Alpha  occ. eigenvalues --  -10.27228 -10.27072 -10.26977 -10.26933 -10.26890
 Alpha  occ. eigenvalues --  -10.26788 -10.26754 -10.26748 -10.26688 -10.26519
 Alpha  occ. eigenvalues --  -10.26430 -10.26308 -10.26253 -10.26192 -10.26006
 Alpha  occ. eigenvalues --  -10.25963 -10.25528 -10.25410 -10.25117 -10.25032
 Alpha  occ. eigenvalues --  -10.25029 -10.24845 -10.24768 -10.24706 -10.24559
 Alpha  occ. eigenvalues --  -10.24500 -10.24045 -10.23527 -10.23491 -10.22924
 Alpha  occ. eigenvalues --   -3.13143  -1.87841  -1.87377  -1.87323  -1.21599
 Alpha  occ. eigenvalues --   -1.17530  -1.12858  -1.11757  -1.08226  -1.08094
 Alpha  occ. eigenvalues --   -1.03273  -1.02904  -1.00756  -0.92753  -0.92478
 Alpha  occ. eigenvalues --   -0.92115  -0.90891  -0.90185  -0.89415  -0.89161
 Alpha  occ. eigenvalues --   -0.88885  -0.88278  -0.87714  -0.87199  -0.86975
 Alpha  occ. eigenvalues --   -0.85998  -0.84268  -0.83709  -0.83338  -0.82558
 Alpha  occ. eigenvalues --   -0.82122  -0.81371  -0.81172  -0.80550  -0.79808
 Alpha  occ. eigenvalues --   -0.77792  -0.77322  -0.77008  -0.76329  -0.76202
 Alpha  occ. eigenvalues --   -0.76045  -0.75073  -0.74378  -0.73447  -0.72530
 Alpha  occ. eigenvalues --   -0.71709  -0.70835  -0.69329  -0.68929  -0.68479
 Alpha  occ. eigenvalues --   -0.66671  -0.66181  -0.65785  -0.65257  -0.64736
 Alpha  occ. eigenvalues --   -0.64109  -0.63409  -0.63330  -0.62946  -0.62411
 Alpha  occ. eigenvalues --   -0.61914  -0.61137  -0.60091  -0.59765  -0.59256
 Alpha  occ. eigenvalues --   -0.58671  -0.58153  -0.57852  -0.57412  -0.57080
 Alpha  occ. eigenvalues --   -0.56618  -0.56142  -0.55964  -0.55748  -0.55582
 Alpha  occ. eigenvalues --   -0.55366  -0.54776  -0.54333  -0.54197  -0.53775
 Alpha  occ. eigenvalues --   -0.53346  -0.53145  -0.52845  -0.52418  -0.52001
 Alpha  occ. eigenvalues --   -0.51597  -0.51500  -0.51390  -0.51257  -0.50954
 Alpha  occ. eigenvalues --   -0.50583  -0.50371  -0.50065  -0.49936  -0.49659
 Alpha  occ. eigenvalues --   -0.49493  -0.49346  -0.49192  -0.48936  -0.48813
 Alpha  occ. eigenvalues --   -0.48467  -0.48372  -0.47969  -0.47677  -0.47604
 Alpha  occ. eigenvalues --   -0.47181  -0.46869  -0.46740  -0.46547  -0.46357
 Alpha  occ. eigenvalues --   -0.45863  -0.45616  -0.45489  -0.45463  -0.45209
 Alpha  occ. eigenvalues --   -0.44923  -0.44732  -0.44531  -0.44329  -0.44267
 Alpha  occ. eigenvalues --   -0.44154  -0.44064  -0.43779  -0.43713  -0.43644
 Alpha  occ. eigenvalues --   -0.43274  -0.43118  -0.42600  -0.42480  -0.42221
 Alpha  occ. eigenvalues --   -0.42121  -0.41925  -0.41766  -0.41616  -0.41273
 Alpha  occ. eigenvalues --   -0.41108  -0.40937  -0.40590  -0.40433  -0.40333
 Alpha  occ. eigenvalues --   -0.39729  -0.39439  -0.39167  -0.39139  -0.38943
 Alpha  occ. eigenvalues --   -0.38296  -0.37868  -0.37746  -0.37467  -0.37428
 Alpha  occ. eigenvalues --   -0.37249  -0.36853  -0.36816  -0.36606  -0.36475
 Alpha  occ. eigenvalues --   -0.36196  -0.36151  -0.36024  -0.35485  -0.35367
 Alpha  occ. eigenvalues --   -0.35225  -0.34696  -0.34642  -0.34093  -0.33631
 Alpha  occ. eigenvalues --   -0.33390  -0.32772  -0.32631  -0.30756  -0.30298
 Alpha  occ. eigenvalues --   -0.29859  -0.29595  -0.28206  -0.27408  -0.23300
 Alpha  occ. eigenvalues --   -0.20152
 Alpha virt. eigenvalues --   -0.04797  -0.03916   0.01363   0.04818   0.05481
 Alpha virt. eigenvalues --    0.05828   0.06307   0.06534   0.06877   0.07644
 Alpha virt. eigenvalues --    0.08461   0.09950   0.10752   0.10903   0.11078

 Mulliken charges:
               1
     1  Mg   0.818460
     2  C    0.094910
     3  C   -0.231085
     4  C   -0.156814
     5  C   -0.198211
     6  N   -0.563020
     7  C    0.237232
     8  C   -0.118006
     9  C   -0.187504
    10  C    0.306322
    11  C   -0.285123
    12  C   -0.161320
    13  C   -0.264772
    14  C    0.628573
    15  O   -0.487596
    16  O   -0.505044
    17  N   -0.750349
    18  C    0.412727
    19  C   -0.002481
    20  C    0.014865
    21  C    0.286391
    22  C   -0.351109
    23  C   -0.078478
    24  C   -0.246440
    25  N   -0.687134
    26  C    0.260876
    27  C    0.011943
    28  C    0.007050
    29  C    0.275268
    30  C   -0.350941
    31  C   -0.226808
    32  C   -0.280557
    33  N   -0.694760
    34  C    0.263948
    35  C    0.024180
    36  C    0.027120
    37  C    0.261675
    38  C   -0.360614
    39  C    0.378497
    40  O   -0.451684
    41  C   -0.328305
    42  C    0.591617
    43  O   -0.441319
    44  O   -0.394791
    45  C   -0.090034
    46  C    0.072728
    47  C   -0.153718
    48  C    0.073122
    49  C   -0.366728
    50  C   -0.215132
    51  C   -0.161221
    52  C   -0.139857
    53  C   -0.054149
    54  C   -0.297790
    55  C   -0.178103
    56  C   -0.197465
    57  C   -0.166256
    58  C   -0.044300
    59  C   -0.309390
    60  C   -0.154664
    61  C   -0.151667
    62  C   -0.157087
    63  C   -0.036698
    64  C   -0.310326
    65  C   -0.323777
    66  H    0.095071
    67  H    0.072901
    68  H    0.089422
    69  H    0.112407
    70  H    0.092020
    71  H    0.093118
    72  H    0.122267
    73  H    0.142276
    74  H    0.068676
    75  H    0.131481
    76  H    0.131487
    77  H    0.140045
    78  H    0.120283
    79  H    0.091814
    80  H    0.108286
    81  H    0.108790
    82  H    0.085158
    83  H    0.108060
    84  H    0.122668
    85  H    0.110010
    86  H    0.118751
    87  H    0.114910
    88  H    0.068914
    89  H    0.081396
    90  H    0.094680
    91  H    0.130157
    92  H    0.142146
    93  H    0.151311
    94  H    0.125914
    95  H    0.148623
    96  H    0.135039
    97  H    0.113002
    98  H    0.077705
    99  H    0.127930
   100  H    0.103367
   101  H    0.089665
   102  H    0.121492
   103  H    0.116476
   104  H    0.145318
   105  H    0.098785
   106  H    0.110288
   107  H    0.081113
   108  H    0.089148
   109  H    0.091729
   110  H    0.042940
   111  H    0.094443
   112  H    0.078206
   113  H    0.114939
   114  H    0.070173
   115  H    0.088636
   116  H    0.099787
   117  H    0.062314
   118  H    0.096105
   119  H    0.091273
   120  H    0.100647
   121  H    0.037708
   122  H    0.101314
   123  H    0.107877
   124  H    0.114857
   125  H    0.113614
   126  H    0.071255
   127  H    0.050689
   128  H    0.089435
   129  H    0.068756
   130  H    0.054583
   131  H    0.102325
   132  H    0.098445
   133  H    0.099343
   134  H    0.096451
   135  H    0.095370
   136  H    0.092676
   137  H    0.106862
 Sum of Mulliken charges =   0.00000

 Dipole moment (field-independent basis, Debye):
    X=              2.9114    Y=              3.9378    Z=              0.0169  Tot=              4.8973
 Quadrupole moment (field-independent basis, Debye-Ang):
   XX=           -356.5292   YY=           -399.5173   ZZ=           -397.2472
   XY=            -11.0654   XZ=              9.5478   YZ=             -2.1758

 Normal termination of Gaussian 09 at Sat Jul  6 21:50:17 2019.
