 Gaussian 16, Revision A.03,
 Gaussian 16:  ES64L-G16RevA.03 25-Dec-2016

 ----------------------------------------------------------------------
 # td=(NStates=1) iop(3/107=0140000000,3/108=0140000000) CAM-B3LYP/6-31
 G(d,p)
 ----------------------------------------------------------------------

 --
 TD
 --
 Symbolic Z-matrix:
 Charge =  0 Multiplicity = 1

                         Standard orientation:
 ---------------------------------------------------------------------
 Center     Atomic      Atomic             Coordinates (Angstroms)
 Number     Number       Type             X           Y           Z
 ---------------------------------------------------------------------
      1         12           0       -7.037660    0.644624    0.088717
      2          6           0       -4.890993   -2.029431    0.471606
      3          6           0       -4.700729    2.875217    1.237421
      4          6           0       -9.236692    3.169300   -0.337905
      5          6           0       -9.604578   -1.606310   -0.858714
      6          7           0       -5.033246    0.371438    0.656546
      7          6           0       -4.301845   -0.746633    0.798635
      8          6           0       -2.971885   -0.543110    1.329923
      9          6           0       -3.096353    0.939296    1.823850
     10          6           0       -4.396232    1.470348    1.210656
     11          6           0       -2.982465    1.015492    3.342790
     12          6           0       -1.856727   -0.679009    0.119631
     13          6           0       -0.391052   -0.541570    0.561357
     14          6           0        0.589960   -0.801860   -0.569295
     15          8           0        0.188331   -1.139824   -1.649121
     16          8           0        1.826345   -0.555266   -0.092309
     17          7           0       -7.018335    2.578297    0.318799
     18          6           0       -5.977603    3.400161    0.872626
     19          6           0       -6.310671    4.751612    0.818767
     20          6           0       -7.554905    4.901794    0.293871
     21          6           0       -7.997704    3.540410    0.036145
     22          6           0       -5.332003    5.819592    1.201330
     23          6           0       -8.402037    6.067256    0.129321
     24          6           0       -8.254621    7.232090    0.801471
     25          7           0       -9.020442    0.749891   -0.613663
     26          6           0       -9.771585    1.892513   -0.738310
     27          6           0      -11.107791    1.638170   -1.159339
     28          6           0      -11.176428    0.299468   -1.428830
     29          6           0       -9.951557   -0.269737   -1.015751
     30          6           0      -12.095262    2.770435   -1.315718
     31          6           0      -12.308873   -0.589002   -1.803619
     32          6           0      -12.171496   -1.047613   -3.319127
     33          7           0       -7.275140   -1.333665   -0.185851
     34          6           0       -8.357584   -2.111077   -0.684994
     35          6           0       -7.925820   -3.551544   -0.558623
     36          6           0       -6.590046   -3.537115   -0.186914
     37          6           0       -6.216837   -2.136295    0.030601
     38          6           0       -8.810513   -4.703524   -0.843311
     39          6           0       -5.403199   -4.305180    0.203622
     40          8           0       -5.278206   -5.583373    0.158170
     41          6           0       -4.225761   -3.385110    0.499850
     42          6           0       -3.715252   -3.756491    1.878935
     43          8           0       -3.902272   -3.181270    2.924385
     44          8           0       -2.867522   -4.837385    1.752864
     45          6           0       -2.343509   -5.319230    2.998086
     46          6           0        2.814477   -0.855398   -1.158121
     47          6           0        4.111578   -0.536865   -0.492275
     48          6           0        5.093371    0.232223   -0.948787
     49          6           0        5.029609    1.051598   -2.097187
     50          6           0        6.343472    0.379333   -0.058166
     51          6           0        7.509560   -0.341111   -1.006159
     52          6           0        8.849204   -0.348947   -0.113403
     53          6           0       10.126975   -0.695320   -0.889322
     54          6           0       10.061069   -2.133557   -1.430427
     55          6           0       11.293442   -0.408786   -0.019594
     56          6           0       12.731279   -0.485082   -0.650491
     57          6           0       13.901614   -0.084262    0.210311
     58          6           0       15.314396   -0.034796   -0.482948
     59          6           0       15.633145   -1.451986   -1.066319
     60          6           0       16.453801    0.588621    0.392886
     61          6           0       17.790935    0.630073   -0.195771
     62          6           0       18.866236    1.317878    0.723441
     63          6           0       20.237733    1.440435    0.183414
     64          6           0       20.310571    2.321179   -1.009314
     65          6           0       21.142831    1.861148    1.304403
     66          1           0       -4.128799    3.517227    1.862061
     67          1           0       -9.889051    4.092930   -0.529132
     68          1           0      -10.291490   -2.299047   -1.022583
     69          1           0       -2.767711   -1.104536    2.129272
     70          1           0       -2.309522    1.749848    1.346165
     71          1           0       -1.956551    0.775680    3.712703
     72          1           0       -3.163520    2.131557    3.624311
     73          1           0       -3.907265    0.526671    3.811082
     74          1           0       -2.073591   -1.601944   -0.362478
     75          1           0       -2.033551    0.152952   -0.544022
     76          1           0       -0.180465    0.510388    0.802741
     77          1           0       -0.138671   -1.265507    1.508628
     78          1           0       -5.313892    6.433608    0.322282
     79          1           0       -5.517896    6.324612    2.070570
     80          1           0       -4.269161    5.358770    1.310336
     81          1           0       -9.360007    6.040372   -0.602332
     82          1           0       -8.865579    8.179672    0.589062
     83          1           0       -7.390881    7.364253    1.459291
     84          1           0      -11.597373    3.592827   -1.877599
     85          1           0      -13.133829    2.386605   -1.825357
     86          1           0      -12.212923    3.243913   -0.180148
     87          1           0      -12.605743   -1.418880   -1.215169
     88          1           0      -13.244239    0.071097   -1.629292
     89          1           0      -13.147918   -1.409250   -3.705715
     90          1           0      -11.908544   -0.209044   -4.204109
     91          1           0      -11.364198   -1.704439   -3.385379
     92          1           0       -9.222132   -4.540306   -1.899600
     93          1           0       -8.113181   -5.565962   -0.742037
     94          1           0       -9.576178   -4.595289    0.020946
     95          1           0       -3.509939   -3.543787   -0.338521
     96          1           0       -1.857521   -4.481659    3.308384
     97          1           0       -3.137302   -5.507592    3.711657
     98          1           0       -1.698944   -6.011553    2.791525
     99          1           0        2.740934   -1.985249   -1.438677
    100          1           0        2.378158   -0.206238   -2.037117
    101          1           0        4.150126   -1.090836    0.454921
    102          1           0        4.117409    1.081560   -2.614744
    103          1           0        5.442771    2.098158   -1.993671
    104          1           0        5.569919    0.576504   -2.955515
    105          1           0        6.565279    1.342280    0.198532
    106          1           0        6.433251   -0.160556    0.762791
    107          1           0        7.200449   -1.296116   -1.260053
    108          1           0        7.477697    0.191834   -1.983846
    109          1           0        9.114087    0.622785    0.327094
    110          1           0        8.793796   -1.059396    0.844607
    111          1           0       10.119913    0.100523   -1.618729
    112          1           0        9.293663   -2.341910   -1.874348
    113          1           0       10.982623   -2.458692   -1.998895
    114          1           0       10.240684   -2.694022   -0.448618
    115          1           0       11.244435    0.517474    0.401364
    116          1           0       11.214171   -1.221699    0.882320
    117          1           0       13.061716   -1.472789   -1.065379
    118          1           0       12.802385    0.086892   -1.660816
    119          1           0       13.626933    1.012935    0.454920
    120          1           0       13.833967   -0.860299    1.075548
    121          1           0       15.378666    0.807100   -1.541365
    122          1           0       15.943029   -2.345726   -0.286229
    123          1           0       14.660978   -1.651052   -1.637977
    124          1           0       16.530209   -1.320611   -1.729567
    125          1           0       16.096785    1.480585    0.540002
    126          1           0       16.366977   -0.033022    1.227164
    127          1           0       18.233612   -0.318450   -0.757167
    128          1           0       17.557513    1.107006   -1.133374
    129          1           0       18.408886    2.253102    0.858261
    130          1           0       18.969075    0.638369    1.787152
    131          1           0       20.596357    0.483857   -0.199082
    132          1           0       19.723770    3.201565   -1.016735
    133          1           0       21.420863    2.484385   -1.393076
    134          1           0       19.633002    1.862887   -1.701988
    135          1           0       21.218607    1.303943    2.342287
    136          1           0       22.306599    1.853861    1.151232
    137          1           0       20.939034    2.876480    1.456613
 ---------------------------------------------------------------------

 SCF Done:  E(RCAM-B3LYP) =  -2933.50044652     A.U. after   16 cycles

 Excitation energies and oscillator strengths:

 Excited State   1:      Singlet-A      2.0301 eV  610.73 nm  f=0.1925  <S**2>=0.000
     240 -> 243       -0.28142
     241 -> 242        0.63917
 This state for optimization and/or second-order correction.
 Total Energy, E(TD-HF/TD-DFT) =  -2933.42584126
 Copying the excited state density for this state as the 1-particle RhoCI density.

 The electronic state is 1-A.
 Alpha  occ. eigenvalues --  -46.78637 -19.22589 -19.21038 -19.17398 -19.17191
 Alpha  occ. eigenvalues --  -19.15087 -14.37762 -14.34986 -14.34794 -14.34197
 Alpha  occ. eigenvalues --  -10.34777 -10.34255 -10.30252 -10.28767 -10.26977
 Alpha  occ. eigenvalues --  -10.26404 -10.25135 -10.24557 -10.24546 -10.24465
 Alpha  occ. eigenvalues --  -10.24437 -10.24323 -10.24228 -10.24173 -10.24117
 Alpha  occ. eigenvalues --  -10.24016 -10.23881 -10.23724 -10.23541 -10.23371
 Alpha  occ. eigenvalues --  -10.22876 -10.22744 -10.22722 -10.22698 -10.22678
 Alpha  occ. eigenvalues --  -10.22608 -10.22536 -10.22464 -10.22439 -10.22310
 Alpha  occ. eigenvalues --  -10.22305 -10.22215 -10.22088 -10.22054 -10.22025
 Alpha  occ. eigenvalues --  -10.22003 -10.21895 -10.21869 -10.21622 -10.21600
 Alpha  occ. eigenvalues --  -10.21582 -10.21459 -10.21435 -10.21395 -10.21282
 Alpha  occ. eigenvalues --  -10.21174 -10.21126 -10.21089 -10.21070 -10.21018
 Alpha  occ. eigenvalues --  -10.20594 -10.20422 -10.20089 -10.19386 -10.18813
 Alpha  occ. eigenvalues --   -3.07420  -1.82346  -1.81888  -1.81852  -1.13213
 Alpha  occ. eigenvalues --   -1.12440  -1.05694  -1.04496  -1.01878  -0.99218
 Alpha  occ. eigenvalues --   -0.97176  -0.96938  -0.95729  -0.87524  -0.86807
 Alpha  occ. eigenvalues --   -0.86109  -0.85499  -0.84406  -0.83838  -0.83807
 Alpha  occ. eigenvalues --   -0.83757  -0.82506  -0.82391  -0.82004  -0.80840
 Alpha  occ. eigenvalues --   -0.80285  -0.79728  -0.78596  -0.78195  -0.77318
 Alpha  occ. eigenvalues --   -0.77037  -0.76494  -0.75388  -0.75155  -0.73487
 Alpha  occ. eigenvalues --   -0.73118  -0.72660  -0.72324  -0.71813  -0.71663
 Alpha  occ. eigenvalues --   -0.71048  -0.70317  -0.69505  -0.68591  -0.67018
 Alpha  occ. eigenvalues --   -0.66938  -0.65966  -0.65323  -0.64652  -0.63816
 Alpha  occ. eigenvalues --   -0.63656  -0.62552  -0.60733  -0.60563  -0.60219
 Alpha  occ. eigenvalues --   -0.59795  -0.59257  -0.58863  -0.58684  -0.57830
 Alpha  occ. eigenvalues --   -0.56888  -0.56322  -0.55584  -0.55439  -0.54940
 Alpha  occ. eigenvalues --   -0.54469  -0.54226  -0.53591  -0.53168  -0.52866
 Alpha  occ. eigenvalues --   -0.52348  -0.51808  -0.51531  -0.51437  -0.50919
 Alpha  occ. eigenvalues --   -0.50843  -0.50287  -0.50166  -0.49949  -0.49214
 Alpha  occ. eigenvalues --   -0.48907  -0.48736  -0.48563  -0.48438  -0.48114
 Alpha  occ. eigenvalues --   -0.47819  -0.47709  -0.47547  -0.47442  -0.46999
 Alpha  occ. eigenvalues --   -0.46841  -0.46757  -0.46261  -0.46153  -0.46083
 Alpha  occ. eigenvalues --   -0.45893  -0.45736  -0.45322  -0.45171  -0.44972
 Alpha  occ. eigenvalues --   -0.44838  -0.44259  -0.43896  -0.43747  -0.43481
 Alpha  occ. eigenvalues --   -0.43396  -0.42921  -0.42626  -0.42425  -0.42243
 Alpha  occ. eigenvalues --   -0.42079  -0.41872  -0.41670  -0.41534  -0.41363
 Alpha  occ. eigenvalues --   -0.41168  -0.41150  -0.41022  -0.40996  -0.40742
 Alpha  occ. eigenvalues --   -0.40511  -0.40223  -0.40078  -0.39998  -0.39955
 Alpha  occ. eigenvalues --   -0.39502  -0.39349  -0.39238  -0.39084  -0.38951
 Alpha  occ. eigenvalues --   -0.38538  -0.38369  -0.38276  -0.38131  -0.37885
 Alpha  occ. eigenvalues --   -0.37664  -0.37592  -0.37498  -0.37345  -0.37133
 Alpha  occ. eigenvalues --   -0.37013  -0.37011  -0.36671  -0.36306  -0.36180
 Alpha  occ. eigenvalues --   -0.35768  -0.35655  -0.35362  -0.35338  -0.34669
 Alpha  occ. eigenvalues --   -0.34374  -0.33796  -0.33737  -0.33602  -0.33561
 Alpha  occ. eigenvalues --   -0.33387  -0.33251  -0.32966  -0.32902  -0.32639
 Alpha  occ. eigenvalues --   -0.32437  -0.32209  -0.31864  -0.30849  -0.30607
 Alpha  occ. eigenvalues --   -0.30240  -0.30051  -0.29892  -0.27583  -0.26681
 Alpha  occ. eigenvalues --   -0.26631  -0.26066  -0.25379  -0.24931  -0.21552
 Alpha  occ. eigenvalues --   -0.19609
 Alpha virt. eigenvalues --   -0.06423  -0.04593  -0.00704   0.02045   0.03760
 Alpha virt. eigenvalues --    0.04114   0.04658   0.05035   0.05245   0.05654
 Alpha virt. eigenvalues --    0.06605   0.08639   0.08901   0.09408   0.09831

 Mulliken charges:
               1
     1  Mg   0.798518
     2  C    0.043709
     3  C   -0.189558
     4  C   -0.180975
     5  C   -0.148547
     6  N   -0.644205
     7  C    0.331608
     8  C   -0.141156
     9  C   -0.161858
    10  C    0.327319
    11  C   -0.307841
    12  C   -0.158247
    13  C   -0.270701
    14  C    0.623679
    15  O   -0.463425
    16  O   -0.465734
    17  N   -0.719433
    18  C    0.295402
    19  C   -0.000070
    20  C    0.081040
    21  C    0.291946
    22  C   -0.381412
    23  C   -0.082670
    24  C   -0.247179
    25  N   -0.658439
    26  C    0.303431
    27  C    0.051428
    28  C    0.045754
    29  C    0.260971
    30  C   -0.368277
    31  C   -0.258478
    32  C   -0.307076
    33  N   -0.729842
    34  C    0.259790
    35  C   -0.034784
    36  C    0.074343
    37  C    0.334926
    38  C   -0.368092
    39  C    0.329977
    40  O   -0.501682
    41  C   -0.303300
    42  C    0.633045
    43  O   -0.467802
    44  O   -0.464878
    45  C   -0.064470
    46  C   -0.014314
    47  C   -0.137352
    48  C    0.149803
    49  C   -0.382590
    50  C   -0.215212
    51  C   -0.210401
    52  C   -0.172478
    53  C   -0.062730
    54  C   -0.277129
    55  C   -0.152875
    56  C   -0.194190
    57  C   -0.159390
    58  C   -0.062900
    59  C   -0.292376
    60  C   -0.133395
    61  C   -0.199906
    62  C   -0.140087
    63  C   -0.039855
    64  C   -0.315517
    65  C   -0.305151
    66  H    0.086755
    67  H    0.058460
    68  H    0.064572
    69  H    0.122470
    70  H    0.076983
    71  H    0.118647
    72  H    0.088982
    73  H    0.124110
    74  H    0.119680
    75  H    0.117985
    76  H    0.130990
    77  H    0.106742
    78  H    0.136872
    79  H    0.136061
    80  H    0.096871
    81  H    0.089447
    82  H    0.103688
    83  H    0.098206
    84  H    0.128398
    85  H    0.100951
    86  H    0.103823
    87  H    0.121560
    88  H    0.084738
    89  H    0.105248
    90  H    0.079882
    91  H    0.124290
    92  H    0.126349
    93  H    0.152332
    94  H    0.127187
    95  H    0.177857
    96  H    0.122755
    97  H    0.132295
    98  H    0.123406
    99  H    0.123300
   100  H    0.122386
   101  H    0.096262
   102  H    0.117838
   103  H    0.118760
   104  H    0.117703
   105  H    0.107221
   106  H    0.111575
   107  H    0.116299
   108  H    0.097094
   109  H    0.089056
   110  H    0.068912
   111  H    0.086411
   112  H    0.103658
   113  H    0.096483
   114  H    0.087120
   115  H    0.097723
   116  H    0.055968
   117  H    0.090024
   118  H    0.076181
   119  H    0.078090
   120  H    0.091422
   121  H    0.012510
   122  H    0.081430
   123  H    0.100816
   124  H    0.101599
   125  H    0.103740
   126  H    0.096059
   127  H    0.071684
   128  H    0.088682
   129  H    0.099017
   130  H    0.064709
   131  H    0.091887
   132  H    0.100753
   133  H    0.094479
   134  H    0.105024
   135  H    0.085531
   136  H    0.075405
   137  H    0.109891
 Sum of Mulliken charges =  -0.00000

 Dipole moment (field-independent basis, Debye):
    X=              2.6637    Y=              4.7089    Z=              0.5070  Tot=              5.4338
 Quadrupole moment (field-independent basis, Debye-Ang):
   XX=           -372.8006   YY=           -395.3690   ZZ=           -396.2007
   XY=            -18.1564   XZ=              4.0774   YZ=             -2.9192

 Normal termination of Gaussian 16 at Sun Sep 15 18:35:55 2019.
