 Gaussian 09, Revision D.01,
 Gaussian 09:  ES64L-G09RevD.01 24-Apr-2013

 -------------------------------------
 # td=(NStates=1) CAM-B3LYP/6-31G(d,p)
 -------------------------------------

 --
 TD
 --
 Symbolic Z-matrix:
 Charge =  0 Multiplicity = 1

                         Standard orientation:
 ---------------------------------------------------------------------
 Center     Atomic      Atomic             Coordinates (Angstroms)
 Number     Number       Type             X           Y           Z
 ---------------------------------------------------------------------
      1         12           0       -7.101909    0.595480    0.070875
      2          6           0       -4.947671   -1.986915    0.607950
      3          6           0       -4.756657    2.843662    1.033094
      4          6           0       -9.310112    3.172406   -0.447355
      5          6           0       -9.635603   -1.653547   -0.814846
      6          7           0       -5.031664    0.466554    0.735453
      7          6           0       -4.311821   -0.752750    0.798624
      8          6           0       -2.897769   -0.416533    1.257243
      9          6           0       -2.948728    1.015716    1.712184
     10          6           0       -4.277501    1.587100    1.099639
     11          6           0       -3.033330    1.421709    3.068057
     12          6           0       -1.831311   -0.721737    0.272163
     13          6           0       -0.408194   -0.551319    0.640170
     14          6           0        0.535167   -0.866953   -0.537203
     15          8           0        0.155374   -1.050551   -1.682553
     16          8           0        1.842231   -0.720138   -0.137827
     17          7           0       -7.101954    2.634514    0.263438
     18          6           0       -6.092233    3.339393    0.789307
     19          6           0       -6.285681    4.751317    0.701933
     20          6           0       -7.578561    4.897163    0.231455
     21          6           0       -8.092874    3.511288   -0.064440
     22          6           0       -5.358212    5.802424    1.227038
     23          6           0       -8.439232    6.062314    0.099690
     24          6           0       -8.248706    7.253479    0.727458
     25          7           0       -9.085549    0.720659   -0.497287
     26          6           0       -9.826347    1.844487   -0.703746
     27          6           0      -11.186670    1.573148   -1.215905
     28          6           0      -11.296475    0.199458   -1.357428
     29          6           0       -9.881068   -0.367421   -0.916257
     30          6           0      -12.345411    2.540783   -1.305323
     31          6           0      -12.418871   -0.683610   -1.793787
     32          6           0      -12.223488   -1.182804   -3.196350
     33          7           0       -7.281967   -1.399443   -0.160406
     34          6           0       -8.319287   -2.296051   -0.516418
     35          6           0       -7.969849   -3.661453   -0.415925
     36          6           0       -6.567860   -3.596428   -0.044931
     37          6           0       -6.223331   -2.221111    0.159443
     38          6           0       -8.796089   -4.747377   -0.789273
     39          6           0       -5.347362   -4.404784    0.187199
     40          8           0       -5.309135   -5.603287    0.256322
     41          6           0       -4.238011   -3.304123    0.610116
     42          6           0       -3.565580   -3.576630    1.984649
     43          8           0       -3.876387   -3.048063    3.017915
     44          8           0       -2.719592   -4.595922    1.787103
     45          6           0       -2.083018   -5.046847    3.081808
     46          6           0        2.790645   -0.838988   -1.210800
     47          6           0        4.117177   -0.596326   -0.638208
     48          6           0        5.125952    0.129326   -1.071281
     49          6           0        5.044609    1.093545   -2.310720
     50          6           0        6.416875    0.344079   -0.293456
     51          6           0        7.609215   -0.200962   -1.052920
     52          6           0        8.970435   -0.084650   -0.276662
     53          6           0       10.201016   -0.549714   -1.013779
     54          6           0       10.024119   -2.087646   -1.217916
     55          6           0       11.434989   -0.172207   -0.223894
     56          6           0       12.811513   -0.371789   -0.893687
     57          6           0       13.941515   -0.071181   -0.043489
     58          6           0       15.366180   -0.249648   -0.546371
     59          6           0       15.737322   -1.694602   -0.995276
     60          6           0       16.398676    0.361514    0.407371
     61          6           0       17.776304    0.555500   -0.174657
     62          6           0       18.692976    1.285782    0.824473
     63          6           0       20.231001    1.389731    0.384055
     64          6           0       20.307873    2.230784   -0.889079
     65          6           0       21.103418    1.980964    1.540954
     66          1           0       -4.024862    3.583581    1.455190
     67          1           0       -9.902870    4.115706   -0.613258
     68          1           0      -10.369933   -2.268948   -1.136132
     69          1           0       -2.752531   -1.130951    2.074270
     70          1           0       -2.358013    1.767179    1.110972
     71          1           0       -2.174726    1.032907    3.593303
     72          1           0       -2.769592    2.421244    3.458079
     73          1           0       -3.888697    0.930926    3.659260
     74          1           0       -2.120870   -1.644970   -0.193914
     75          1           0       -2.125151    0.086092   -0.650829
     76          1           0       -0.114348    0.531102    0.900259
     77          1           0       -0.119024   -1.072567    1.650716
     78          1           0       -5.568355    6.724337    0.735645
     79          1           0       -5.546002    6.250335    2.194456
     80          1           0       -4.401559    5.594039    1.377697
     81          1           0       -9.147061    5.778358   -0.592415
     82          1           0       -9.278231    7.959998    0.792561
     83          1           0       -7.389733    7.386945    1.523966
     84          1           0      -12.354431    3.288044   -2.243731
     85          1           0      -13.357443    1.989981   -1.230973
     86          1           0      -12.394780    3.226904   -0.430244
     87          1           0      -12.224666   -1.603185   -1.318287
     88          1           0      -13.294215    0.064375   -1.740869
     89          1           0      -13.230014   -1.594706   -3.397454
     90          1           0      -12.171444   -0.345895   -3.726937
     91          1           0      -11.288779   -1.998260   -3.261261
     92          1           0       -9.042924   -4.842761   -1.774416
     93          1           0       -8.462060   -5.755108   -0.574263
     94          1           0       -9.707919   -4.996129   -0.317269
     95          1           0       -3.535280   -3.314267   -0.270696
     96          1           0       -1.658421   -4.011139    3.566790
     97          1           0       -2.793221   -5.424178    3.833042
     98          1           0       -1.389814   -5.784330    2.617842
     99          1           0        2.665737   -1.935936   -1.506209
    100          1           0        2.393322   -0.034625   -1.925338
    101          1           0        4.240716   -1.266842    0.254661
    102          1           0        3.967332    0.949979   -2.583903
    103          1           0        5.403333    2.114714   -2.136317
    104          1           0        5.716027    0.608235   -2.999648
    105          1           0        6.540015    1.305842   -0.151409
    106          1           0        6.324407   -0.115487    0.781249
    107          1           0        7.578449   -1.111391   -1.290816
    108          1           0        7.791465    0.309686   -2.026479
    109          1           0        9.132079    1.040055    0.076869
    110          1           0        8.891729   -0.530796    0.801931
    111          1           0       10.210226   -0.273932   -2.092584
    112          1           0        9.308915   -2.494571   -1.752764
    113          1           0       10.894849   -2.589263   -1.686157
    114          1           0       10.199082   -2.383549   -0.037240
    115          1           0       11.371465    0.840249    0.120895
    116          1           0       11.364245   -0.855243    0.537586
    117          1           0       12.826451   -1.442798   -1.144334
    118          1           0       13.012185    0.202091   -1.874517
    119          1           0       13.854830    0.937030    0.342274
    120          1           0       13.830233   -0.683297    0.787800
    121          1           0       15.463779    0.487460   -1.572858
    122          1           0       15.746386   -2.425985   -0.194201
    123          1           0       15.126704   -2.055253   -1.732466
    124          1           0       16.607303   -1.764070   -1.570190
    125          1           0       16.028765    1.238139    0.797947
    126          1           0       16.514786   -0.254248    1.244791
    127          1           0       18.028181   -0.378520   -0.357245
    128          1           0       17.759358    1.392767   -0.987906
    129          1           0       18.376692    2.341558    1.102274
    130          1           0       18.564547    0.761926    1.764937
    131          1           0       20.634334    0.260955    0.232303
    132          1           0       19.851820    3.384055   -0.863936
    133          1           0       21.388917    2.456375   -1.067372
    134          1           0       19.874723    1.851645   -1.770953
    135          1           0       21.098455    0.998999    2.304590
    136          1           0       22.204896    1.894421    1.253656
    137          1           0       20.796773    2.931114    1.835274
 ---------------------------------------------------------------------

 SCF Done:  E(RCAM-B3LYP) =  -2932.64055104     A.U. after   17 cycles

 Excitation energies and oscillator strengths:

 Excited State   1:      Singlet-A      2.0227 eV  612.96 nm  f=0.4006  <S**2>=0.000
     240 -> 243        0.15811
     241 -> 242        0.67732
 This state for optimization and/or second-order correction.
 Total Energy, E(TD-HF/TD-KS) =  -2932.56621761
 Copying the excited state density for this state as the 1-particle RhoCI density.

 The electronic state is 1-A.
 Alpha  occ. eigenvalues --  -46.84122 -19.26433 -19.25816 -19.21404 -19.21200
 Alpha  occ. eigenvalues --  -19.19232 -14.40637 -14.40426 -14.39507 -14.38346
 Alpha  occ. eigenvalues --  -10.39621 -10.38896 -10.34073 -10.32966 -10.32330
 Alpha  occ. eigenvalues --  -10.31221 -10.30632 -10.30303 -10.30084 -10.29534
 Alpha  occ. eigenvalues --  -10.29342 -10.28963 -10.28885 -10.28331 -10.28315
 Alpha  occ. eigenvalues --  -10.27707 -10.27672 -10.27655 -10.27586 -10.27531
 Alpha  occ. eigenvalues --  -10.27510 -10.27451 -10.27365 -10.27258 -10.27200
 Alpha  occ. eigenvalues --  -10.27145 -10.27062 -10.27028 -10.26951 -10.26843
 Alpha  occ. eigenvalues --  -10.26749 -10.26499 -10.26385 -10.26220 -10.26107
 Alpha  occ. eigenvalues --  -10.25988 -10.25820 -10.25751 -10.25731 -10.25641
 Alpha  occ. eigenvalues --  -10.25511 -10.25407 -10.25325 -10.25313 -10.24916
 Alpha  occ. eigenvalues --  -10.24894 -10.24777 -10.24405 -10.24361 -10.24178
 Alpha  occ. eigenvalues --  -10.24010 -10.23327 -10.23253 -10.23213 -10.23003
 Alpha  occ. eigenvalues --   -3.13067  -1.87783  -1.87295  -1.87249  -1.17655
 Alpha  occ. eigenvalues --   -1.17491  -1.10495  -1.09478  -1.09314  -1.04780
 Alpha  occ. eigenvalues --   -1.02121  -1.01585  -1.00451  -0.91761  -0.91716
 Alpha  occ. eigenvalues --   -0.90952  -0.90420  -0.90108  -0.89802  -0.89732
 Alpha  occ. eigenvalues --   -0.88890  -0.87811  -0.87681  -0.86756  -0.86404
 Alpha  occ. eigenvalues --   -0.85789  -0.84690  -0.83981  -0.83850  -0.83253
 Alpha  occ. eigenvalues --   -0.81707  -0.80862  -0.80566  -0.79578  -0.78854
 Alpha  occ. eigenvalues --   -0.78562  -0.76827  -0.76689  -0.75916  -0.75608
 Alpha  occ. eigenvalues --   -0.75182  -0.74922  -0.74900  -0.73532  -0.72983
 Alpha  occ. eigenvalues --   -0.71573  -0.70690  -0.70004  -0.69040  -0.68294
 Alpha  occ. eigenvalues --   -0.67589  -0.66542  -0.65758  -0.64780  -0.64167
 Alpha  occ. eigenvalues --   -0.63433  -0.63157  -0.62426  -0.62210  -0.61683
 Alpha  occ. eigenvalues --   -0.61336  -0.60462  -0.60396  -0.59693  -0.58913
 Alpha  occ. eigenvalues --   -0.58435  -0.58187  -0.57472  -0.56990  -0.56842
 Alpha  occ. eigenvalues --   -0.56663  -0.56556  -0.56111  -0.55289  -0.55176
 Alpha  occ. eigenvalues --   -0.54453  -0.54158  -0.53787  -0.53260  -0.53159
 Alpha  occ. eigenvalues --   -0.53072  -0.52584  -0.52335  -0.52132  -0.51883
 Alpha  occ. eigenvalues --   -0.51666  -0.51325  -0.51174  -0.51039  -0.50449
 Alpha  occ. eigenvalues --   -0.50357  -0.50047  -0.49917  -0.49872  -0.49567
 Alpha  occ. eigenvalues --   -0.49418  -0.49144  -0.48729  -0.48604  -0.48542
 Alpha  occ. eigenvalues --   -0.48091  -0.47981  -0.47726  -0.47596  -0.47220
 Alpha  occ. eigenvalues --   -0.46984  -0.46893  -0.46614  -0.46368  -0.46001
 Alpha  occ. eigenvalues --   -0.45703  -0.45680  -0.45368  -0.45105  -0.45099
 Alpha  occ. eigenvalues --   -0.44965  -0.44831  -0.44699  -0.44522  -0.44242
 Alpha  occ. eigenvalues --   -0.44083  -0.43872  -0.43798  -0.43563  -0.43328
 Alpha  occ. eigenvalues --   -0.43268  -0.42986  -0.42780  -0.42619  -0.42497
 Alpha  occ. eigenvalues --   -0.42316  -0.42034  -0.41708  -0.41443  -0.41418
 Alpha  occ. eigenvalues --   -0.41118  -0.40823  -0.40703  -0.40297  -0.40069
 Alpha  occ. eigenvalues --   -0.39838  -0.39647  -0.39251  -0.38918  -0.38748
 Alpha  occ. eigenvalues --   -0.38373  -0.38371  -0.38200  -0.37826  -0.37590
 Alpha  occ. eigenvalues --   -0.37428  -0.37378  -0.36978  -0.36794  -0.36526
 Alpha  occ. eigenvalues --   -0.36228  -0.36047  -0.35664  -0.35549  -0.35389
 Alpha  occ. eigenvalues --   -0.35196  -0.35051  -0.34433  -0.34035  -0.33867
 Alpha  occ. eigenvalues --   -0.33818  -0.32510  -0.31903  -0.30722  -0.30453
 Alpha  occ. eigenvalues --   -0.28933  -0.28641  -0.27811  -0.27350  -0.23620
 Alpha  occ. eigenvalues --   -0.20318
 Alpha virt. eigenvalues --   -0.06687  -0.02181   0.01972   0.03887   0.05753
 Alpha virt. eigenvalues --    0.06225   0.06612   0.07045   0.07197   0.08110
 Alpha virt. eigenvalues --    0.08580   0.10949   0.10998   0.11606   0.11733

 Mulliken charges:
               1
     1  Mg   0.812425
     2  C    0.089829
     3  C   -0.188730
     4  C   -0.187740
     5  C   -0.156349
     6  N   -0.629365
     7  C    0.282462
     8  C   -0.157965
     9  C   -0.120819
    10  C    0.290904
    11  C   -0.315882
    12  C   -0.142986
    13  C   -0.265336
    14  C    0.623452
    15  O   -0.467532
    16  O   -0.496409
    17  N   -0.702765
    18  C    0.301798
    19  C    0.047394
    20  C   -0.026830
    21  C    0.336969
    22  C   -0.384261
    23  C   -0.024480
    24  C   -0.265199
    25  N   -0.669681
    26  C    0.300745
    27  C    0.032170
    28  C    0.028064
    29  C    0.305397
    30  C   -0.381609
    31  C   -0.241608
    32  C   -0.288020
    33  N   -0.728201
    34  C    0.214119
    35  C    0.071119
    36  C   -0.035337
    37  C    0.292276
    38  C   -0.425756
    39  C    0.359183
    40  O   -0.444171
    41  C   -0.353644
    42  C    0.641242
    43  O   -0.468370
    44  O   -0.458702
    45  C   -0.094603
    46  C    0.012517
    47  C   -0.126673
    48  C    0.085472
    49  C   -0.348051
    50  C   -0.203912
    51  C   -0.171464
    52  C   -0.166061
    53  C   -0.078298
    54  C   -0.303471
    55  C   -0.160323
    56  C   -0.180996
    57  C   -0.157490
    58  C   -0.046466
    59  C   -0.332359
    60  C   -0.180725
    61  C   -0.153726
    62  C   -0.177197
    63  C   -0.048132
    64  C   -0.303193
    65  C   -0.295563
    66  H    0.067358
    67  H    0.080883
    68  H    0.063260
    69  H    0.123160
    70  H    0.108995
    71  H    0.100871
    72  H    0.115953
    73  H    0.125200
    74  H    0.123165
    75  H    0.078317
    76  H    0.137886
    77  H    0.121050
    78  H    0.129135
    79  H    0.123856
    80  H    0.122212
    81  H    0.095687
    82  H    0.095236
    83  H    0.105352
    84  H    0.105125
    85  H    0.110191
    86  H    0.125490
    87  H    0.125881
    88  H    0.102419
    89  H    0.106945
    90  H    0.122850
    91  H    0.096944
    92  H    0.133786
    93  H    0.137583
    94  H    0.119546
    95  H    0.157022
    96  H    0.118400
    97  H    0.152628
    98  H    0.139332
    99  H    0.125609
   100  H    0.123224
   101  H    0.091161
   102  H    0.102254
   103  H    0.120411
   104  H    0.129094
   105  H    0.115893
   106  H    0.084178
   107  H    0.112570
   108  H    0.089804
   109  H    0.060342
   110  H    0.076365
   111  H    0.085116
   112  H    0.117704
   113  H    0.093352
   114  H    0.066826
   115  H    0.096887
   116  H    0.097046
   117  H    0.091168
   118  H    0.074894
   119  H    0.085950
   120  H    0.089586
   121  H    0.033679
   122  H    0.101055
   123  H    0.110288
   124  H    0.110127
   125  H    0.091110
   126  H    0.090129
   127  H    0.104164
   128  H    0.086146
   129  H    0.079834
   130  H    0.079245
   131  H    0.066750
   132  H    0.066146
   133  H    0.095020
   134  H    0.120131
   135  H    0.077876
   136  H    0.098364
   137  H    0.117695
 Sum of Mulliken charges =   0.00000

 Dipole moment (field-independent basis, Debye):
    X=              1.4115    Y=              5.0377    Z=              0.9278  Tot=              5.3134
 Quadrupole moment (field-independent basis, Debye-Ang):
   XX=           -332.8976   YY=           -390.9402   ZZ=           -396.6555
   XY=            -36.1225   XZ=             10.3804   YZ=              3.6003

 Normal termination of Gaussian 09 at Thu Jul  4 12:56:12 2019.
