 Gaussian 09, Revision D.01,
 Gaussian 09:  ES64L-G09RevD.01 24-Apr-2013

 -------------------------------------
 # td=(NStates=1) CAM-B3LYP/6-31G(d,p)
 -------------------------------------

 --
 TD
 --
 Symbolic Z-matrix:
 Charge =  0 Multiplicity = 1

                         Standard orientation:
 ---------------------------------------------------------------------
 Center     Atomic      Atomic             Coordinates (Angstroms)
 Number     Number       Type             X           Y           Z
 ---------------------------------------------------------------------
      1         12           0       -7.230057    0.541301    0.085014
      2          6           0       -4.859382   -2.016470    0.548157
      3          6           0       -4.832250    2.867985    1.023794
      4          6           0       -9.481345    3.072086   -0.421717
      5          6           0       -9.537060   -1.876421   -1.037850
      6          7           0       -5.151805    0.457333    0.648396
      7          6           0       -4.403319   -0.675151    0.752807
      8          6           0       -2.999783   -0.289558    1.235966
      9          6           0       -3.108185    1.206023    1.630954
     10          6           0       -4.443542    1.573597    1.038612
     11          6           0       -2.975972    1.368515    3.135734
     12          6           0       -1.872904   -0.639632    0.066469
     13          6           0       -0.539865   -0.491128    0.610277
     14          6           0        0.578814   -0.669236   -0.475300
     15          8           0        0.212789   -0.864676   -1.658797
     16          8           0        1.783898   -0.440373   -0.056114
     17          7           0       -7.145155    2.602935    0.251656
     18          6           0       -6.173516    3.404718    0.646289
     19          6           0       -6.585917    4.817710    0.728592
     20          6           0       -7.904353    4.755121    0.355286
     21          6           0       -8.263278    3.465154   -0.044011
     22          6           0       -5.644930    5.956875    1.110424
     23          6           0       -8.627246    6.050453    0.109964
     24          6           0       -8.591416    7.135178    0.891521
     25          7           0       -9.199160    0.662896   -0.544729
     26          6           0       -9.950827    1.726045   -0.567046
     27          6           0      -11.326817    1.366166   -1.122316
     28          6           0      -11.266982    0.058536   -1.281339
     29          6           0       -9.898190   -0.478526   -0.913350
     30          6           0      -12.394858    2.436910   -1.563550
     31          6           0      -12.372887   -0.819220   -1.815099
     32          6           0      -12.391301   -1.144766   -3.165875
     33          7           0       -7.278308   -1.369274   -0.151299
     34          6           0       -8.306446   -2.337011   -0.534541
     35          6           0       -7.768120   -3.612104   -0.604906
     36          6           0       -6.476098   -3.580496   -0.116548
     37          6           0       -6.212093   -2.155096    0.132620
     38          6           0       -8.558294   -4.858777   -0.989058
     39          6           0       -5.272854   -4.356694    0.193961
     40          8           0       -5.135826   -5.557494    0.208054
     41          6           0       -4.126942   -3.279946    0.608754
     42          6           0       -3.532119   -3.641876    2.011372
     43          8           0       -3.818998   -3.046738    3.043674
     44          8           0       -2.712645   -4.717769    1.842576
     45          6           0       -2.255227   -5.151145    3.045579
     46          6           0        2.904871   -0.620550   -1.056319
     47          6           0        4.105167   -0.434804   -0.423896
     48          6           0        5.147544    0.350414   -0.788483
     49          6           0        5.046872    1.131551   -2.017542
     50          6           0        6.377439    0.261470   -0.037479
     51          6           0        7.611436   -0.152558   -0.918410
     52          6           0        9.000566   -0.138908   -0.121910
     53          6           0       10.198738   -0.539963   -0.787402
     54          6           0       10.325378   -1.852069   -1.495332
     55          6           0       11.563290   -0.321924    0.053251
     56          6           0       12.889921   -0.440828   -0.730134
     57          6           0       14.048264   -0.054958    0.261049
     58          6           0       15.413520   -0.181169   -0.572065
     59          6           0       15.840222   -1.604481   -0.928993
     60          6           0       16.539130    0.408399    0.320683
     61          6           0       17.888680    0.466147   -0.212479
     62          6           0       18.917016    1.215903    0.678908
     63          6           0       20.414967    1.264364    0.137160
     64          6           0       20.529921    2.160253   -1.106099
     65          6           0       21.281902    1.930215    1.238677
     66          1           0       -4.047257    3.614830    1.360352
     67          1           0      -10.241359    3.702523   -0.327836
     68          1           0      -10.156745   -2.602797   -1.613692
     69          1           0       -2.723527   -1.102675    1.840386
     70          1           0       -2.209457    1.930160    1.347052
     71          1           0       -1.886429    0.863074    3.329983
     72          1           0       -3.038740    2.323700    3.548013
     73          1           0       -3.512285    0.543595    3.688180
     74          1           0       -2.096152   -1.529460   -0.254961
     75          1           0       -1.910071    0.064174   -0.795105
     76          1           0       -0.403347    0.561468    1.011885
     77          1           0       -0.357051   -1.241852    1.480597
     78          1           0       -5.714210    6.964362    0.648446
     79          1           0       -5.615983    6.309937    2.245110
     80          1           0       -4.615271    5.824767    1.087438
     81          1           0       -9.532138    6.126408   -0.607301
     82          1           0       -9.179772    8.008538    0.871404
     83          1           0       -7.845656    7.028803    1.718161
     84          1           0      -12.131810    3.097786   -2.434402
     85          1           0      -13.222027    1.735584   -1.944632
     86          1           0      -12.809410    3.110655   -0.665031
     87          1           0      -12.275822   -1.845685   -1.197019
     88          1           0      -13.391123   -0.355462   -1.498190
     89          1           0      -13.328773   -1.697922   -3.446104
     90          1           0      -12.528221   -0.167737   -3.576132
     91          1           0      -11.382058   -1.809418   -3.227925
     92          1           0       -8.993309   -4.795133   -2.086339
     93          1           0       -8.015773   -5.835785   -0.654266
     94          1           0       -9.480882   -5.016148   -0.339764
     95          1           0       -3.370146   -3.405893   -0.276320
     96          1           0       -1.396813   -4.618222    3.438482
     97          1           0       -3.162597   -5.566187    3.783311
     98          1           0       -1.839902   -6.090999    2.625550
     99          1           0        2.553335   -1.580945   -1.798996
    100          1           0        2.583643    0.111648   -1.877611
    101          1           0        4.148681   -0.758565    0.711242
    102          1           0        4.063845    1.431496   -2.231082
    103          1           0        5.426474    2.086813   -1.905998
    104          1           0        5.503688    0.617258   -2.785190
    105          1           0        6.721216    1.345017    0.277766
    106          1           0        6.363659   -0.465241    0.966633
    107          1           0        7.459150   -1.162707   -1.252321
    108          1           0        7.749708    0.554322   -1.747304
    109          1           0        9.150874    0.949050   -0.000683
    110          1           0        9.023877   -0.740663    0.684970
    111          1           0       10.178468    0.263026   -1.663198
    112          1           0        9.523167   -2.028652   -2.130605
    113          1           0       11.499350   -1.819445   -2.018557
    114          1           0       10.450263   -2.638383   -0.736154
    115          1           0       11.145360    0.699472    0.396783
    116          1           0       11.532335   -0.993891    0.929536
    117          1           0       13.011138   -1.422385   -1.028932
    118          1           0       12.924283    0.400002   -1.576539
    119          1           0       13.904428    1.001217    0.880594
    120          1           0       14.019133   -0.839363    1.091727
    121          1           0       15.430575    0.557253   -1.366528
    122          1           0       16.029970   -2.385160   -0.161835
    123          1           0       15.050945   -2.090511   -1.587416
    124          1           0       16.800487   -1.427691   -1.617144
    125          1           0       16.168271    1.419924    0.495301
    126          1           0       16.719917   -0.074062    1.259816
    127          1           0       18.557347   -0.570855   -0.366477
    128          1           0       17.915582    0.973549   -1.323648
    129          1           0       18.455327    2.261667    0.804310
    130          1           0       18.852580    0.660660    1.759666
    131          1           0       20.685160    0.176971   -0.030801
    132          1           0       20.414888    3.271265   -0.985564
    133          1           0       21.616439    2.048074   -1.507163
    134          1           0       19.914643    1.895174   -1.882900
    135          1           0       21.228770    1.203063    2.028627
    136          1           0       22.229639    1.839472    1.023751
    137          1           0       20.939400    2.940795    1.402243
 ---------------------------------------------------------------------

 SCF Done:  E(RCAM-B3LYP) =  -2932.61199618     A.U. after   15 cycles

 Excitation energies and oscillator strengths:

 Excited State   1:      Singlet-A      2.0132 eV  615.85 nm  f=0.3092  <S**2>=0.000
     240 -> 242       -0.11465
     240 -> 243       -0.21594
     241 -> 242        0.65341
 This state for optimization and/or second-order correction.
 Total Energy, E(TD-HF/TD-KS) =  -2932.53801202
 Copying the excited state density for this state as the 1-particle RhoCI density.

 The electronic state is 1-A.
 Alpha  occ. eigenvalues --  -46.83843 -19.27472 -19.27188 -19.22197 -19.20515
 Alpha  occ. eigenvalues --  -19.19654 -14.41012 -14.40222 -14.39999 -14.39627
 Alpha  occ. eigenvalues --  -10.40176 -10.38858 -10.35401 -10.33633 -10.31680
 Alpha  occ. eigenvalues --  -10.31050 -10.30885 -10.30176 -10.29707 -10.29511
 Alpha  occ. eigenvalues --  -10.29207 -10.29204 -10.28971 -10.28912 -10.28869
 Alpha  occ. eigenvalues --  -10.28688 -10.28428 -10.28378 -10.28197 -10.28025
 Alpha  occ. eigenvalues --  -10.27795 -10.27784 -10.27759 -10.27632 -10.27534
 Alpha  occ. eigenvalues --  -10.27366 -10.27052 -10.26930 -10.26880 -10.26856
 Alpha  occ. eigenvalues --  -10.26754 -10.26560 -10.26511 -10.26503 -10.26472
 Alpha  occ. eigenvalues --  -10.26396 -10.26331 -10.26189 -10.26166 -10.26123
 Alpha  occ. eigenvalues --  -10.26105 -10.26083 -10.26022 -10.25839 -10.25687
 Alpha  occ. eigenvalues --  -10.25502 -10.25306 -10.25224 -10.25102 -10.24648
 Alpha  occ. eigenvalues --  -10.24582 -10.24562 -10.24521 -10.24003 -10.22724
 Alpha  occ. eigenvalues --   -3.13013  -1.87709  -1.87259  -1.87202  -1.19947
 Alpha  occ. eigenvalues --   -1.18290  -1.11393  -1.10555  -1.07011  -1.04326
 Alpha  occ. eigenvalues --   -1.03346  -1.03144  -1.01930  -0.93350  -0.91962
 Alpha  occ. eigenvalues --   -0.91128  -0.90072  -0.89946  -0.89513  -0.89263
 Alpha  occ. eigenvalues --   -0.88146  -0.87820  -0.87425  -0.86863  -0.86179
 Alpha  occ. eigenvalues --   -0.85142  -0.84548  -0.83708  -0.83460  -0.82982
 Alpha  occ. eigenvalues --   -0.82249  -0.81529  -0.80491  -0.80196  -0.78129
 Alpha  occ. eigenvalues --   -0.77800  -0.76983  -0.76732  -0.76266  -0.75316
 Alpha  occ. eigenvalues --   -0.74860  -0.74573  -0.74438  -0.73219  -0.72451
 Alpha  occ. eigenvalues --   -0.71186  -0.70400  -0.68498  -0.67785  -0.67378
 Alpha  occ. eigenvalues --   -0.66613  -0.66471  -0.64878  -0.64501  -0.64319
 Alpha  occ. eigenvalues --   -0.63965  -0.63120  -0.62663  -0.62240  -0.61507
 Alpha  occ. eigenvalues --   -0.61499  -0.60827  -0.60523  -0.59480  -0.58955
 Alpha  occ. eigenvalues --   -0.58493  -0.57863  -0.57586  -0.57212  -0.56558
 Alpha  occ. eigenvalues --   -0.56327  -0.56080  -0.55770  -0.55241  -0.54803
 Alpha  occ. eigenvalues --   -0.54662  -0.54209  -0.54043  -0.53692  -0.53439
 Alpha  occ. eigenvalues --   -0.53252  -0.52561  -0.52505  -0.52346  -0.52011
 Alpha  occ. eigenvalues --   -0.51664  -0.51582  -0.51393  -0.51123  -0.50980
 Alpha  occ. eigenvalues --   -0.50807  -0.50393  -0.50240  -0.50118  -0.49592
 Alpha  occ. eigenvalues --   -0.49450  -0.49185  -0.48938  -0.48690  -0.48446
 Alpha  occ. eigenvalues --   -0.48080  -0.47949  -0.47708  -0.47552  -0.47398
 Alpha  occ. eigenvalues --   -0.46876  -0.46683  -0.46478  -0.46286  -0.45946
 Alpha  occ. eigenvalues --   -0.45755  -0.45553  -0.45188  -0.45037  -0.44865
 Alpha  occ. eigenvalues --   -0.44780  -0.44603  -0.44563  -0.44418  -0.44065
 Alpha  occ. eigenvalues --   -0.43852  -0.43763  -0.43644  -0.43489  -0.43308
 Alpha  occ. eigenvalues --   -0.42871  -0.42779  -0.42676  -0.42606  -0.42273
 Alpha  occ. eigenvalues --   -0.41886  -0.41798  -0.41371  -0.41333  -0.40937
 Alpha  occ. eigenvalues --   -0.40596  -0.40524  -0.40436  -0.40212  -0.40192
 Alpha  occ. eigenvalues --   -0.39918  -0.39241  -0.39093  -0.39020  -0.38734
 Alpha  occ. eigenvalues --   -0.38712  -0.38311  -0.38301  -0.38259  -0.38049
 Alpha  occ. eigenvalues --   -0.37650  -0.37133  -0.36932  -0.36643  -0.36542
 Alpha  occ. eigenvalues --   -0.36043  -0.35891  -0.35623  -0.35559  -0.35465
 Alpha  occ. eigenvalues --   -0.34786  -0.34569  -0.34394  -0.34237  -0.33073
 Alpha  occ. eigenvalues --   -0.32556  -0.32407  -0.32261  -0.30433  -0.29973
 Alpha  occ. eigenvalues --   -0.29749  -0.29021  -0.28954  -0.27931  -0.23483
 Alpha  occ. eigenvalues --   -0.20886
 Alpha virt. eigenvalues --   -0.06512  -0.02746   0.01989   0.03651   0.04437
 Alpha virt. eigenvalues --    0.05445   0.06214   0.06705   0.07112   0.07300
 Alpha virt. eigenvalues --    0.08025   0.09808   0.10635   0.10998   0.11408

 Mulliken charges:
               1
     1  Mg   0.827096
     2  C    0.058821
     3  C   -0.219832
     4  C   -0.129259
     5  C   -0.160108
     6  N   -0.676400
     7  C    0.338488
     8  C   -0.170977
     9  C   -0.144763
    10  C    0.389996
    11  C   -0.295890
    12  C   -0.152944
    13  C   -0.265137
    14  C    0.607883
    15  O   -0.511406
    16  O   -0.456874
    17  N   -0.681381
    18  C    0.309669
    19  C    0.065112
    20  C   -0.026621
    21  C    0.300771
    22  C   -0.393717
    23  C   -0.079003
    24  C   -0.238336
    25  N   -0.658304
    26  C    0.246902
    27  C    0.008565
    28  C    0.026206
    29  C    0.274138
    30  C   -0.359254
    31  C   -0.257541
    32  C   -0.249687
    33  N   -0.764481
    34  C    0.247608
    35  C    0.029823
    36  C    0.006139
    37  C    0.341862
    38  C   -0.384893
    39  C    0.357526
    40  O   -0.449614
    41  C   -0.346269
    42  C    0.634215
    43  O   -0.465787
    44  O   -0.409519
    45  C   -0.097800
    46  C   -0.017065
    47  C   -0.122957
    48  C    0.141725
    49  C   -0.371042
    50  C   -0.219301
    51  C   -0.199331
    52  C   -0.157466
    53  C   -0.070587
    54  C   -0.287893
    55  C   -0.173359
    56  C   -0.168823
    57  C   -0.176635
    58  C   -0.057926
    59  C   -0.308775
    60  C   -0.155379
    61  C   -0.164507
    62  C   -0.154195
    63  C   -0.072367
    64  C   -0.304555
    65  C   -0.289151
    66  H    0.078729
    67  H    0.091620
    68  H    0.113240
    69  H    0.115026
    70  H    0.099107
    71  H    0.079689
    72  H    0.116297
    73  H    0.127618
    74  H    0.113401
    75  H    0.118952
    76  H    0.123181
    77  H    0.106098
    78  H    0.132149
    79  H    0.100673
    80  H    0.125330
    81  H    0.080985
    82  H    0.114718
    83  H    0.098065
    84  H    0.129455
    85  H    0.102234
    86  H    0.107554
    87  H    0.070621
    88  H    0.085697
    89  H    0.103197
    90  H    0.108357
    91  H    0.082728
    92  H    0.112764
    93  H    0.142940
    94  H    0.123040
    95  H    0.160962
    96  H    0.125255
    97  H    0.114672
    98  H    0.121308
    99  H    0.130355
   100  H    0.136718
   101  H    0.096279
   102  H    0.122273
   103  H    0.118990
   104  H    0.140234
   105  H    0.083943
   106  H    0.089444
   107  H    0.106903
   108  H    0.101048
   109  H    0.095047
   110  H    0.092923
   111  H    0.042994
   112  H    0.103046
   113  H    0.070089
   114  H    0.090624
   115  H    0.080005
   116  H    0.087884
   117  H    0.120097
   118  H    0.089077
   119  H    0.076621
   120  H    0.086232
   121  H    0.096866
   122  H    0.111844
   123  H    0.086128
   124  H    0.101525
   125  H    0.088277
   126  H    0.093274
   127  H    0.059420
   128  H    0.054732
   129  H    0.075530
   130  H    0.061182
   131  H    0.083909
   132  H    0.098932
   133  H    0.084231
   134  H    0.110713
   135  H    0.094922
   136  H    0.107534
   137  H    0.109058
 Sum of Mulliken charges =   0.00000

 Dipole moment (field-independent basis, Debye):
    X=              3.1844    Y=              4.5458    Z=              0.3878  Tot=              5.5637
 Quadrupole moment (field-independent basis, Debye-Ang):
   XX=           -341.3535   YY=           -387.9687   ZZ=           -403.5342
   XY=            -22.6684   XZ=              9.9783   YZ=             -2.0089

 Normal termination of Gaussian 09 at Sat Jul  6 14:28:45 2019.
