 Gaussian 16, Revision A.03,
 Gaussian 16:  ES64L-G16RevA.03 25-Dec-2016

 ----------------------------------------------------------------------
 # td=(NStates=1) iop(3/107=0140000000,3/108=0140000000) CAM-B3LYP/6-31
 G(d,p)
 ----------------------------------------------------------------------

 --
 TD
 --
 Symbolic Z-matrix:
 Charge =  0 Multiplicity = 1

                         Standard orientation:
 ---------------------------------------------------------------------
 Center     Atomic      Atomic             Coordinates (Angstroms)
 Number     Number       Type             X           Y           Z
 ---------------------------------------------------------------------
      1         12           0       -7.283742    0.631191    0.161876
      2          6           0       -4.897528   -1.926707    0.613139
      3          6           0       -4.727069    2.815782    1.156077
      4          6           0       -9.410521    3.064393   -0.413410
      5          6           0       -9.514548   -1.680407   -0.893934
      6          7           0       -5.133900    0.517103    0.792366
      7          6           0       -4.386553   -0.713577    0.923276
      8          6           0       -2.974192   -0.426960    1.298371
      9          6           0       -3.073541    1.039314    1.826815
     10          6           0       -4.366418    1.491930    1.219706
     11          6           0       -3.017767    1.129005    3.312396
     12          6           0       -1.920978   -0.669916    0.114000
     13          6           0       -0.409435   -0.477585    0.493624
     14          6           0        0.520377   -0.861263   -0.607731
     15          8           0        0.186501   -1.263853   -1.694300
     16          8           0        1.804539   -0.571985   -0.228863
     17          7           0       -7.095756    2.580211    0.407744
     18          6           0       -6.006308    3.373516    0.749348
     19          6           0       -6.311591    4.760848    0.743232
     20          6           0       -7.666185    4.828509    0.363313
     21          6           0       -8.173027    3.533477    0.052775
     22          6           0       -5.233172    5.826522    1.189427
     23          6           0       -8.334615    6.051928    0.106238
     24          6           0       -8.253498    7.306087    0.632907
     25          7           0       -9.148119    0.703820   -0.542104
     26          6           0       -9.898088    1.788552   -0.669132
     27          6           0      -11.211473    1.477854   -1.159198
     28          6           0      -11.296460    0.131350   -1.368026
     29          6           0      -10.002336   -0.345085   -0.914536
     30          6           0      -12.283391    2.474177   -1.411472
     31          6           0      -12.346178   -0.707680   -1.889764
     32          6           0      -12.230471   -1.199875   -3.254073
     33          7           0       -7.181702   -1.355407   -0.172917
     34          6           0       -8.280572   -2.252265   -0.621295
     35          6           0       -7.861020   -3.637426   -0.427638
     36          6           0       -6.620565   -3.560973   -0.021806
     37          6           0       -6.223353   -2.136009    0.211429
     38          6           0       -8.596970   -4.798382   -0.964433
     39          6           0       -5.418933   -4.359108    0.292606
     40          8           0       -5.294510   -5.588092    0.444383
     41          6           0       -4.256526   -3.357696    0.583886
     42          6           0       -3.533710   -3.641809    1.900729
     43          8           0       -3.733610   -3.045930    3.030541
     44          8           0       -2.639674   -4.647958    1.746499
     45          6           0       -2.106653   -5.194848    2.908042
     46          6           0        2.758645   -0.777040   -1.179626
     47          6           0        4.068436   -0.338563   -0.506051
     48          6           0        5.094262    0.315025   -1.048460
     49          6           0        4.897203    1.200327   -2.253159
     50          6           0        6.396922    0.475388   -0.253198
     51          6           0        7.670875   -0.050353   -1.044405
     52          6           0        9.019249   -0.079681   -0.160225
     53          6           0       10.240958   -0.499712   -1.005636
     54          6           0       10.094009   -1.948559   -1.434350
     55          6           0       11.411044   -0.142090   -0.084564
     56          6           0       12.714992   -0.601688   -0.810845
     57          6           0       14.003402   -0.054341   -0.001937
     58          6           0       15.417137   -0.067647   -0.585306
     59          6           0       15.657944   -1.618860   -1.058623
     60          6           0       16.375097    0.532428    0.388361
     61          6           0       17.849856    0.397164   -0.139080
     62          6           0       18.790610    1.142514    0.820178
     63          6           0       20.251300    1.286554    0.344148
     64          6           0       20.511124    2.047835   -0.959968
     65          6           0       21.071116    1.863269    1.532628
     66          1           0       -3.937761    3.458832    1.480189
     67          1           0      -10.205340    3.831187   -0.591646
     68          1           0      -10.294572   -2.325034   -1.091123
     69          1           0       -2.645588   -1.146493    1.898293
     70          1           0       -2.122311    1.590565    1.406898
     71          1           0       -2.013435    0.906187    3.754766
     72          1           0       -3.297075    2.235850    3.445018
     73          1           0       -3.973789    0.587219    3.763199
     74          1           0       -1.996294   -1.959594   -0.157074
     75          1           0       -2.219813   -0.032305   -0.738856
     76          1           0       -0.292670    0.583895    0.634800
     77          1           0       -0.303091   -1.066665    1.343952
     78          1           0       -5.183301    6.806679    0.529411
     79          1           0       -5.635438    6.261478    2.159048
     80          1           0       -4.168611    5.780505    1.079656
     81          1           0       -9.290779    5.898219   -0.423574
     82          1           0       -9.015425    7.996060    0.320013
     83          1           0       -7.483868    7.695789    1.334509
     84          1           0      -12.012212    3.295023   -2.023721
     85          1           0      -13.074979    2.183248   -2.130114
     86          1           0      -12.912231    2.990274   -0.385194
     87          1           0      -12.411329   -1.598688   -1.036905
     88          1           0      -13.176930    0.034586   -1.864433
     89          1           0      -13.021359   -1.881707   -3.641733
     90          1           0      -12.215993   -0.136397   -3.758539
     91          1           0      -11.260457   -1.590778   -3.350102
     92          1           0       -8.855021   -4.660378   -2.041949
     93          1           0       -7.853217   -5.671875   -0.819208
     94          1           0       -9.466866   -4.793765   -0.312288
     95          1           0       -3.617625   -3.595170   -0.114737
     96          1           0       -1.497718   -4.448121    3.627615
     97          1           0       -2.999932   -5.719722    3.330516
     98          1           0       -1.345775   -5.981819    2.597796
     99          1           0        2.989484   -1.900462   -1.545053
    100          1           0        2.426794   -0.405967   -2.105950
    101          1           0        4.288862   -0.876837    0.246638
    102          1           0        3.933642    1.277170   -2.745294
    103          1           0        5.250796    2.402112   -1.935485
    104          1           0        5.709116    0.780119   -2.891016
    105          1           0        6.536469    1.475317   -0.012420
    106          1           0        6.339520   -0.070518    0.774044
    107          1           0        7.272883   -0.926337   -1.529072
    108          1           0        7.902862    0.659707   -1.970117
    109          1           0        8.992128    0.875455    0.198067
    110          1           0        8.674882   -0.745452    0.667911
    111          1           0       10.062127    0.077857   -1.939721
    112          1           0        9.173838   -2.061598   -2.007721
    113          1           0       10.905581   -2.266364   -2.072265
    114          1           0        9.931874   -2.636837   -0.523389
    115          1           0       11.469573    0.976742   -0.034901
    116          1           0       11.197003   -0.553569    0.920739
    117          1           0       12.641154   -1.752891   -0.940878
    118          1           0       12.810046   -0.193250   -1.804560
    119          1           0       13.800891    1.016337    0.387370
    120          1           0       13.749164   -0.499481    0.945734
    121          1           0       15.648318    0.436545   -1.517435
    122          1           0       15.887615   -2.331556   -0.310257
    123          1           0       14.851186   -1.781114   -1.750846
    124          1           0       16.712313   -1.329077   -1.642928
    125          1           0       16.188153    1.591424    0.628074
    126          1           0       16.413246   -0.030645    1.321005
    127          1           0       18.207066   -0.747198   -0.206197
    128          1           0       17.680211    0.859251   -1.103468
    129          1           0       18.207973    2.116824    0.991056
    130          1           0       18.719856    0.763371    1.814040
    131          1           0       20.583212    0.303106    0.141401
    132          1           0       19.842250    3.040572   -0.930667
    133          1           0       21.634783    2.243660   -1.249503
    134          1           0       19.968120    1.560429   -1.814121
    135          1           0       20.901091    1.183091    2.491489
    136          1           0       22.280045    1.871053    1.482239
    137          1           0       20.926486    2.954228    1.816141
 ---------------------------------------------------------------------

 SCF Done:  E(RCAM-B3LYP) =  -2933.52518953     A.U. after   15 cycles

 Excitation energies and oscillator strengths:

 Excited State   1:      Singlet-A      2.0774 eV  596.82 nm  f=0.2012  <S**2>=0.000
     240 -> 243       -0.24476
     241 -> 242        0.65441
 This state for optimization and/or second-order correction.
 Total Energy, E(TD-HF/TD-DFT) =  -2933.44884660
 Copying the excited state density for this state as the 1-particle RhoCI density.

 The electronic state is 1-A.
 Alpha  occ. eigenvalues --  -46.79322 -19.23175 -19.22547 -19.17613 -19.16693
 Alpha  occ. eigenvalues --  -19.16656 -14.36826 -14.35850 -14.35264 -14.34969
 Alpha  occ. eigenvalues --  -10.35446 -10.34884 -10.31241 -10.28196 -10.27413
 Alpha  occ. eigenvalues --  -10.25965 -10.25596 -10.25536 -10.25375 -10.25090
 Alpha  occ. eigenvalues --  -10.24899 -10.24642 -10.24536 -10.24217 -10.24034
 Alpha  occ. eigenvalues --  -10.23816 -10.23571 -10.23514 -10.23344 -10.23312
 Alpha  occ. eigenvalues --  -10.23290 -10.22960 -10.22959 -10.22924 -10.22900
 Alpha  occ. eigenvalues --  -10.22883 -10.22671 -10.22582 -10.22489 -10.22411
 Alpha  occ. eigenvalues --  -10.22296 -10.22195 -10.22176 -10.22006 -10.21989
 Alpha  occ. eigenvalues --  -10.21966 -10.21956 -10.21912 -10.21827 -10.21820
 Alpha  occ. eigenvalues --  -10.21785 -10.21579 -10.21563 -10.21548 -10.21537
 Alpha  occ. eigenvalues --  -10.21531 -10.21368 -10.20978 -10.20968 -10.20867
 Alpha  occ. eigenvalues --  -10.20721 -10.20556 -10.20487 -10.20412 -10.19499
 Alpha  occ. eigenvalues --   -3.08081  -1.83003  -1.82581  -1.82480  -1.14588
 Alpha  occ. eigenvalues --   -1.13420  -1.06131  -1.05102  -1.01425  -0.99263
 Alpha  occ. eigenvalues --   -0.98706  -0.97920  -0.95530  -0.87230  -0.85866
 Alpha  occ. eigenvalues --   -0.85648  -0.85098  -0.84754  -0.84652  -0.84261
 Alpha  occ. eigenvalues --   -0.83438  -0.82989  -0.82521  -0.81993  -0.81419
 Alpha  occ. eigenvalues --   -0.80089  -0.79673  -0.79071  -0.77795  -0.77488
 Alpha  occ. eigenvalues --   -0.76907  -0.76057  -0.75748  -0.74627  -0.74013
 Alpha  occ. eigenvalues --   -0.73313  -0.72699  -0.72025  -0.71201  -0.70791
 Alpha  occ. eigenvalues --   -0.70036  -0.69990  -0.69363  -0.68902  -0.68544
 Alpha  occ. eigenvalues --   -0.66992  -0.65833  -0.65276  -0.64518  -0.63952
 Alpha  occ. eigenvalues --   -0.63072  -0.61838  -0.61077  -0.60788  -0.60370
 Alpha  occ. eigenvalues --   -0.59745  -0.59465  -0.59292  -0.58966  -0.58451
 Alpha  occ. eigenvalues --   -0.58162  -0.56962  -0.56292  -0.55862  -0.55240
 Alpha  occ. eigenvalues --   -0.54979  -0.54021  -0.53910  -0.53280  -0.53023
 Alpha  occ. eigenvalues --   -0.52450  -0.52150  -0.51534  -0.51167  -0.50888
 Alpha  occ. eigenvalues --   -0.50617  -0.50533  -0.50285  -0.50094  -0.49945
 Alpha  occ. eigenvalues --   -0.49318  -0.48610  -0.48468  -0.48283  -0.48196
 Alpha  occ. eigenvalues --   -0.47778  -0.47627  -0.47618  -0.47025  -0.46932
 Alpha  occ. eigenvalues --   -0.46673  -0.46530  -0.46313  -0.45962  -0.45904
 Alpha  occ. eigenvalues --   -0.45676  -0.45378  -0.44969  -0.44865  -0.44804
 Alpha  occ. eigenvalues --   -0.44378  -0.44169  -0.44012  -0.43976  -0.43314
 Alpha  occ. eigenvalues --   -0.43018  -0.42998  -0.42726  -0.42611  -0.42405
 Alpha  occ. eigenvalues --   -0.42273  -0.42211  -0.41860  -0.41632  -0.41319
 Alpha  occ. eigenvalues --   -0.41051  -0.40986  -0.40710  -0.40497  -0.40311
 Alpha  occ. eigenvalues --   -0.40056  -0.39970  -0.39736  -0.39519  -0.39426
 Alpha  occ. eigenvalues --   -0.39256  -0.39110  -0.39065  -0.38874  -0.38804
 Alpha  occ. eigenvalues --   -0.38704  -0.38426  -0.38226  -0.38104  -0.37880
 Alpha  occ. eigenvalues --   -0.37716  -0.37541  -0.37188  -0.37069  -0.36724
 Alpha  occ. eigenvalues --   -0.36675  -0.36461  -0.36356  -0.36327  -0.35837
 Alpha  occ. eigenvalues --   -0.35667  -0.35574  -0.35324  -0.35164  -0.34751
 Alpha  occ. eigenvalues --   -0.34541  -0.34246  -0.34113  -0.33978  -0.33745
 Alpha  occ. eigenvalues --   -0.33350  -0.33163  -0.32953  -0.32851  -0.32662
 Alpha  occ. eigenvalues --   -0.32517  -0.32262  -0.31379  -0.30943  -0.30676
 Alpha  occ. eigenvalues --   -0.30015  -0.29728  -0.28970  -0.28856  -0.27991
 Alpha  occ. eigenvalues --   -0.27180  -0.26571  -0.26492  -0.24319  -0.21654
 Alpha  occ. eigenvalues --   -0.20341
 Alpha virt. eigenvalues --   -0.07077  -0.04243  -0.00434   0.01895   0.02617
 Alpha virt. eigenvalues --    0.03413   0.04628   0.04638   0.04796   0.05305
 Alpha virt. eigenvalues --    0.06486   0.08369   0.08725   0.09721   0.10260

 Mulliken charges:
               1
     1  Mg   0.822633
     2  C    0.086214
     3  C   -0.206179
     4  C   -0.200245
     5  C   -0.181579
     6  N   -0.631512
     7  C    0.286088
     8  C   -0.113828
     9  C   -0.159778
    10  C    0.394081
    11  C   -0.283827
    12  C   -0.178284
    13  C   -0.259036
    14  C    0.606953
    15  O   -0.452409
    16  O   -0.439881
    17  N   -0.725706
    18  C    0.320069
    19  C    0.046517
    20  C    0.011616
    21  C    0.301510
    22  C   -0.384270
    23  C   -0.084412
    24  C   -0.244525
    25  N   -0.712881
    26  C    0.361944
    27  C    0.031954
    28  C    0.089337
    29  C    0.244598
    30  C   -0.389572
    31  C   -0.248664
    32  C   -0.278513
    33  N   -0.713566
    34  C    0.230176
    35  C    0.001844
    36  C    0.046498
    37  C    0.308676
    38  C   -0.363526
    39  C    0.348272
    40  O   -0.473990
    41  C   -0.266194
    42  C    0.610124
    43  O   -0.506491
    44  O   -0.417186
    45  C   -0.082578
    46  C    0.007913
    47  C   -0.115598
    48  C    0.111295
    49  C   -0.332551
    50  C   -0.226547
    51  C   -0.211294
    52  C   -0.174056
    53  C   -0.050675
    54  C   -0.311793
    55  C   -0.171721
    56  C   -0.201892
    57  C   -0.170530
    58  C   -0.070205
    59  C   -0.305608
    60  C   -0.174008
    61  C   -0.185444
    62  C   -0.169493
    63  C   -0.029063
    64  C   -0.306863
    65  C   -0.306808
    66  H    0.066151
    67  H    0.084483
    68  H    0.064549
    69  H    0.107032
    70  H    0.081578
    71  H    0.114743
    72  H    0.096650
    73  H    0.118494
    74  H    0.064233
    75  H    0.114947
    76  H    0.140238
    77  H    0.142412
    78  H    0.099073
    79  H    0.130257
    80  H    0.133574
    81  H    0.075376
    82  H    0.102371
    83  H    0.095530
    84  H    0.128534
    85  H    0.108604
    86  H    0.083924
    87  H    0.077680
    88  H    0.102166
    89  H    0.114376
    90  H    0.088500
    91  H    0.116619
    92  H    0.134180
    93  H    0.142612
    94  H    0.132995
    95  H    0.158931
    96  H    0.114736
    97  H    0.136614
    98  H    0.117760
    99  H    0.090882
   100  H    0.118471
   101  H    0.075966
   102  H    0.120556
   103  H    0.071985
   104  H    0.116584
   105  H    0.112257
   106  H    0.084095
   107  H    0.102921
   108  H    0.067941
   109  H    0.105150
   110  H    0.088971
   111  H    0.087900
   112  H    0.107036
   113  H    0.106395
   114  H    0.089124
   115  H    0.097608
   116  H    0.099695
   117  H    0.091008
   118  H    0.098266
   119  H    0.060011
   120  H    0.099499
   121  H    0.088431
   122  H    0.113914
   123  H    0.116278
   124  H    0.064651
   125  H    0.094657
   126  H    0.093463
   127  H    0.081066
   128  H    0.094422
   129  H    0.073042
   130  H    0.100579
   131  H    0.101024
   132  H    0.079862
   133  H    0.101286
   134  H    0.101243
   135  H    0.081983
   136  H    0.072433
   137  H    0.103895
 Sum of Mulliken charges =  -0.00000

 Dipole moment (field-independent basis, Debye):
    X=              0.7295    Y=              3.0789    Z=             -0.3644  Tot=              3.1851
 Quadrupole moment (field-independent basis, Debye-Ang):
   XX=           -356.8337   YY=           -394.9160   ZZ=           -400.3647
   XY=            -15.1519   XZ=             20.7370   YZ=              0.6880

 Normal termination of Gaussian 16 at Sat Sep  7 02:02:49 2019.
