 Gaussian 16, Revision A.03,
 Gaussian 16:  ES64L-G16RevA.03 25-Dec-2016

 ----------------------------------------------------------------------
 # td=(NStates=1) iop(3/107=0140000000,3/108=0140000000) CAM-B3LYP/6-31
 G(d,p)
 ----------------------------------------------------------------------

 --
 TD
 --
 Symbolic Z-matrix:
 Charge =  0 Multiplicity = 1

                         Standard orientation:
 ---------------------------------------------------------------------
 Center     Atomic      Atomic             Coordinates (Angstroms)
 Number     Number       Type             X           Y           Z
 ---------------------------------------------------------------------
      1         12           0       -7.173490    0.683618    0.061873
      2          6           0       -4.849024   -1.941321    0.490889
      3          6           0       -4.877941    2.814383    1.118348
      4          6           0       -9.324535    3.159557   -0.352197
      5          6           0       -9.540468   -1.723523   -0.806516
      6          7           0       -5.110193    0.388578    0.740791
      7          6           0       -4.357561   -0.687020    0.772961
      8          6           0       -2.900446   -0.404803    1.228394
      9          6           0       -2.995767    1.082112    1.660907
     10          6           0       -4.404695    1.476726    1.112803
     11          6           0       -2.863668    1.334433    3.114774
     12          6           0       -1.866992   -0.626520    0.119182
     13          6           0       -0.354033   -0.372475    0.503093
     14          6           0        0.653986   -0.788483   -0.682104
     15          8           0        0.335572   -1.235167   -1.757362
     16          8           0        1.872388   -0.574388   -0.153076
     17          7           0       -7.013185    2.621399    0.281530
     18          6           0       -6.030020    3.342497    0.765007
     19          6           0       -6.348234    4.744213    0.820738
     20          6           0       -7.680096    4.842217    0.273642
     21          6           0       -8.028426    3.502280    0.013061
     22          6           0       -5.438539    5.911005    1.238658
     23          6           0       -8.503977    6.123243    0.106876
     24          6           0       -8.461940    7.281635    0.782136
     25          7           0       -9.091212    0.647920   -0.447765
     26          6           0       -9.809291    1.834383   -0.616042
     27          6           0      -11.156184    1.547438   -1.187589
     28          6           0      -11.282909    0.205418   -1.259748
     29          6           0       -9.866930   -0.409542   -0.871250
     30          6           0      -12.338689    2.608783   -1.429860
     31          6           0      -12.426941   -0.629979   -1.640419
     32          6           0      -12.341309   -1.038364   -3.163517
     33          7           0       -7.285888   -1.390216   -0.167403
     34          6           0       -8.251896   -2.257880   -0.599384
     35          6           0       -7.846485   -3.646368   -0.538832
     36          6           0       -6.526010   -3.575766   -0.175794
     37          6           0       -6.202181   -2.197237    0.058576
     38          6           0       -8.693269   -4.844315   -0.952272
     39          6           0       -5.412305   -4.401903    0.152114
     40          8           0       -5.316755   -5.607005    0.199853
     41          6           0       -4.199183   -3.308701    0.583293
     42          6           0       -3.536957   -3.664928    1.946235
     43          8           0       -3.719329   -3.092234    2.979008
     44          8           0       -2.801830   -4.747555    1.808143
     45          6           0       -2.314201   -5.396042    3.053387
     46          6           0        2.890476   -0.901801   -1.144494
     47          6           0        4.195073   -0.638365   -0.459794
     48          6           0        5.070095    0.287312   -0.910543
     49          6           0        5.069601    1.091714   -2.164081
     50          6           0        6.436341    0.434773   -0.149375
     51          6           0        7.596561   -0.172144   -0.931245
     52          6           0        8.830560   -0.172989   -0.153608
     53          6           0       10.137613   -0.490480   -0.867981
     54          6           0       10.095009   -2.051846   -1.221301
     55          6           0       11.381492   -0.301919    0.074141
     56          6           0       12.782707   -0.480956   -0.661251
     57          6           0       14.004360   -0.003505    0.109008
     58          6           0       15.374781   -0.103315   -0.520736
     59          6           0       15.676727   -1.521749   -1.064269
     60          6           0       16.460102    0.364771    0.398169
     61          6           0       17.797265    0.604652   -0.184787
     62          6           0       18.847195    1.155047    0.756124
     63          6           0       20.199345    1.305769    0.306554
     64          6           0       20.286501    2.244621   -1.068496
     65          6           0       21.169202    1.994726    1.310856
     66          1           0       -4.019336    3.442598    1.681235
     67          1           0      -10.127144    3.979473   -0.638427
     68          1           0      -10.422820   -2.390013   -0.930912
     69          1           0       -2.664727   -0.995773    2.185466
     70          1           0       -2.318963    1.681317    1.059357
     71          1           0       -1.881019    1.240703    3.395129
     72          1           0       -3.044577    2.321355    3.262136
     73          1           0       -3.468495    0.593406    3.575772
     74          1           0       -1.903185   -1.662068   -0.503453
     75          1           0       -1.947343    0.183501   -0.673781
     76          1           0       -0.280420    0.656783    0.508496
     77          1           0       -0.048379   -0.981783    1.320547
     78          1           0       -5.917424    6.880710    0.631015
     79          1           0       -5.588509    6.071587    2.317015
     80          1           0       -4.485962    5.725641    1.070444
     81          1           0       -9.060134    6.021163   -0.864558
     82          1           0       -9.024960    8.197298    0.333534
     83          1           0       -7.967439    7.198166    1.807875
     84          1           0      -11.981181    3.171947   -2.257367
     85          1           0      -13.327310    2.191359   -1.669503
     86          1           0      -12.487802    3.189699   -0.568516
     87          1           0      -12.320623   -1.529850   -1.099718
     88          1           0      -13.377701   -0.279615   -1.234496
     89          1           0      -12.997831   -1.800053   -3.559906
     90          1           0      -12.458769   -0.289971   -3.939901
     91          1           0      -11.513844   -1.540246   -3.498716
     92          1           0       -8.807402   -4.917889   -2.096996
     93          1           0       -8.127555   -5.752625   -0.667661
     94          1           0       -9.681355   -4.700386   -0.455006
     95          1           0       -3.191776   -3.405957    0.019168
     96          1           0       -1.617050   -4.797549    3.557528
     97          1           0       -3.277267   -5.460232    3.593951
     98          1           0       -1.950413   -6.552481    2.574523
     99          1           0        2.800305   -1.882212   -1.452167
    100          1           0        2.896928   -0.190993   -1.938586
    101          1           0        4.165980   -0.985314    0.559484
    102          1           0        4.001836    1.072168   -2.743627
    103          1           0        5.044839    2.160451   -1.844757
    104          1           0        5.892840    0.863687   -2.967996
    105          1           0        6.577616    1.529139   -0.003728
    106          1           0        6.114103   -0.219089    0.728489
    107          1           0        7.446783   -1.062800   -1.077048
    108          1           0        7.792285    0.375032   -1.952271
    109          1           0        9.028675    0.798290    0.332173
    110          1           0        8.652218   -0.683271    0.725106
    111          1           0       10.335733    0.099678   -1.757243
    112          1           0        9.288380   -2.068407   -1.996852
    113          1           0       10.966625   -2.700307   -1.843554
    114          1           0        9.640535   -2.781353   -0.377930
    115          1           0       11.259403    0.747122    0.607601
    116          1           0       11.427731   -0.846719    0.950628
    117          1           0       12.718710   -1.359809   -1.196474
    118          1           0       12.650092    0.300009   -1.479889
    119          1           0       13.923886    1.007954    0.339890
    120          1           0       14.213108   -0.587477    1.006746
    121          1           0       15.246815    0.604122   -1.379939
    122          1           0       16.048622   -2.227790   -0.263960
    123          1           0       14.803041   -1.969556   -1.644451
    124          1           0       16.605170   -1.444089   -1.713401
    125          1           0       15.935638    1.176740    0.933508
    126          1           0       16.440224   -0.536988    1.230218
    127          1           0       18.130118   -0.488955   -0.657669
    128          1           0       17.605521    1.361293   -1.066040
    129          1           0       18.562365    2.068478    0.942251
    130          1           0       18.836679    0.453760    1.654270
    131          1           0       20.744417    0.366294   -0.117544
    132          1           0       19.889883    3.287265   -0.642346
    133          1           0       21.268474    2.372777   -1.441082
    134          1           0       19.720054    1.872953   -1.955698
    135          1           0       21.081979    1.394050    2.178549
    136          1           0       22.007768    2.175844    0.886988
    137          1           0       20.604854    2.994594    1.444373
 ---------------------------------------------------------------------

 SCF Done:  E(RCAM-B3LYP) =  -2933.52850217     A.U. after   16 cycles

 Excitation energies and oscillator strengths:

 Excited State   1:      Singlet-A      2.0829 eV  595.25 nm  f=0.2670  <S**2>=0.000
     240 -> 243       -0.24583
     241 -> 242        0.66131
 This state for optimization and/or second-order correction.
 Total Energy, E(TD-HF/TD-DFT) =  -2933.45195746
 Copying the excited state density for this state as the 1-particle RhoCI density.

 The electronic state is 1-A.
 Alpha  occ. eigenvalues --  -46.79673 -19.22895 -19.21172 -19.17441 -19.15878
 Alpha  occ. eigenvalues --  -19.15330 -14.37499 -14.35444 -14.34856 -14.34845
 Alpha  occ. eigenvalues --  -10.34655 -10.33125 -10.30121 -10.28542 -10.26120
 Alpha  occ. eigenvalues --  -10.26016 -10.25565 -10.25143 -10.24775 -10.24714
 Alpha  occ. eigenvalues --  -10.24055 -10.24047 -10.24011 -10.23934 -10.23838
 Alpha  occ. eigenvalues --  -10.23702 -10.23660 -10.23414 -10.23134 -10.23118
 Alpha  occ. eigenvalues --  -10.23116 -10.23081 -10.23032 -10.23003 -10.22896
 Alpha  occ. eigenvalues --  -10.22804 -10.22647 -10.22601 -10.22463 -10.22348
 Alpha  occ. eigenvalues --  -10.22275 -10.22248 -10.22198 -10.22142 -10.22109
 Alpha  occ. eigenvalues --  -10.22102 -10.22075 -10.22034 -10.21884 -10.21680
 Alpha  occ. eigenvalues --  -10.21648 -10.21386 -10.20886 -10.20851 -10.20847
 Alpha  occ. eigenvalues --  -10.20704 -10.20681 -10.20199 -10.20127 -10.19930
 Alpha  occ. eigenvalues --  -10.19929 -10.19740 -10.19696 -10.19264 -10.19222
 Alpha  occ. eigenvalues --   -3.08415  -1.83338  -1.82908  -1.82820  -1.13508
 Alpha  occ. eigenvalues --   -1.12911  -1.05805  -1.05406  -1.03789  -1.00491
 Alpha  occ. eigenvalues --   -0.99565  -0.98030  -0.95986  -0.87016  -0.86259
 Alpha  occ. eigenvalues --   -0.86025  -0.84920  -0.84622  -0.84191  -0.84015
 Alpha  occ. eigenvalues --   -0.83191  -0.82628  -0.82140  -0.81480  -0.81167
 Alpha  occ. eigenvalues --   -0.80224  -0.78830  -0.78266  -0.77923  -0.77614
 Alpha  occ. eigenvalues --   -0.77016  -0.75985  -0.75570  -0.74975  -0.73514
 Alpha  occ. eigenvalues --   -0.73088  -0.72332  -0.71330  -0.71114  -0.70840
 Alpha  occ. eigenvalues --   -0.70196  -0.69967  -0.69844  -0.68600  -0.68235
 Alpha  occ. eigenvalues --   -0.67554  -0.66368  -0.65834  -0.64519  -0.63640
 Alpha  occ. eigenvalues --   -0.63130  -0.62532  -0.60948  -0.60823  -0.60546
 Alpha  occ. eigenvalues --   -0.59959  -0.59416  -0.58857  -0.57574  -0.57234
 Alpha  occ. eigenvalues --   -0.57128  -0.56067  -0.55840  -0.55203  -0.54547
 Alpha  occ. eigenvalues --   -0.54205  -0.53659  -0.53216  -0.52845  -0.52001
 Alpha  occ. eigenvalues --   -0.51868  -0.51667  -0.51345  -0.51186  -0.50943
 Alpha  occ. eigenvalues --   -0.50549  -0.50303  -0.50213  -0.49632  -0.49448
 Alpha  occ. eigenvalues --   -0.49077  -0.48561  -0.48293  -0.48098  -0.47802
 Alpha  occ. eigenvalues --   -0.47667  -0.47642  -0.47080  -0.47017  -0.46699
 Alpha  occ. eigenvalues --   -0.46506  -0.46368  -0.46214  -0.46021  -0.45917
 Alpha  occ. eigenvalues --   -0.45339  -0.45251  -0.44865  -0.44743  -0.44713
 Alpha  occ. eigenvalues --   -0.44472  -0.44384  -0.44247  -0.43971  -0.43763
 Alpha  occ. eigenvalues --   -0.43568  -0.43393  -0.42973  -0.42418  -0.42264
 Alpha  occ. eigenvalues --   -0.42192  -0.41906  -0.41454  -0.41333  -0.41284
 Alpha  occ. eigenvalues --   -0.41169  -0.41034  -0.40784  -0.40765  -0.40572
 Alpha  occ. eigenvalues --   -0.40437  -0.40266  -0.40060  -0.39966  -0.39952
 Alpha  occ. eigenvalues --   -0.39623  -0.39466  -0.39302  -0.39245  -0.39200
 Alpha  occ. eigenvalues --   -0.39021  -0.38926  -0.38594  -0.38495  -0.38404
 Alpha  occ. eigenvalues --   -0.38133  -0.37741  -0.37695  -0.37357  -0.37161
 Alpha  occ. eigenvalues --   -0.36826  -0.36681  -0.36603  -0.36540  -0.36193
 Alpha  occ. eigenvalues --   -0.35829  -0.35567  -0.35226  -0.35101  -0.34858
 Alpha  occ. eigenvalues --   -0.34683  -0.34218  -0.33942  -0.33888  -0.33733
 Alpha  occ. eigenvalues --   -0.32943  -0.32817  -0.32543  -0.32455  -0.32323
 Alpha  occ. eigenvalues --   -0.32096  -0.31827  -0.31199  -0.30835  -0.30556
 Alpha  occ. eigenvalues --   -0.30210  -0.29822  -0.29160  -0.27791  -0.27540
 Alpha  occ. eigenvalues --   -0.26810  -0.26368  -0.26228  -0.25477  -0.21099
 Alpha  occ. eigenvalues --   -0.19635
 Alpha virt. eigenvalues --   -0.06631  -0.02935   0.00497   0.02551   0.03418
 Alpha virt. eigenvalues --    0.04860   0.05012   0.05283   0.05639   0.06087
 Alpha virt. eigenvalues --    0.06947   0.09198   0.09596   0.10041   0.10179

 Mulliken charges:
               1
     1  Mg   0.831246
     2  C    0.110066
     3  C   -0.238854
     4  C   -0.193779
     5  C   -0.186657
     6  N   -0.607018
     7  C    0.305520
     8  C   -0.148794
     9  C   -0.154897
    10  C    0.312349
    11  C   -0.292679
    12  C   -0.181517
    13  C   -0.257934
    14  C    0.586396
    15  O   -0.458162
    16  O   -0.457350
    17  N   -0.754532
    18  C    0.401193
    19  C   -0.008983
    20  C   -0.004451
    21  C    0.330759
    22  C   -0.358931
    23  C   -0.052025
    24  C   -0.260205
    25  N   -0.697496
    26  C    0.287535
    27  C    0.003017
    28  C    0.034765
    29  C    0.290296
    30  C   -0.371161
    31  C   -0.248659
    32  C   -0.333360
    33  N   -0.687794
    34  C    0.255349
    35  C    0.028582
    36  C    0.039241
    37  C    0.260113
    38  C   -0.369073
    39  C    0.352033
    40  O   -0.455114
    41  C   -0.353460
    42  C    0.589743
    43  O   -0.477190
    44  O   -0.438422
    45  C   -0.081108
    46  C    0.013787
    47  C   -0.146706
    48  C    0.109210
    49  C   -0.364307
    50  C   -0.224450
    51  C   -0.123926
    52  C   -0.181195
    53  C   -0.053237
    54  C   -0.312355
    55  C   -0.173123
    56  C   -0.186547
    57  C   -0.160913
    58  C   -0.058166
    59  C   -0.311676
    60  C   -0.148394
    61  C   -0.166717
    62  C   -0.110300
    63  C   -0.088575
    64  C   -0.325347
    65  C   -0.274622
    66  H    0.061680
    67  H    0.085129
    68  H    0.080657
    69  H    0.120734
    70  H    0.097745
    71  H    0.115284
    72  H    0.108898
    73  H    0.131875
    74  H    0.105946
    75  H    0.098112
    76  H    0.135997
    77  H    0.131255
    78  H    0.107532
    79  H    0.123366
    80  H    0.124068
    81  H    0.089502
    82  H    0.110602
    83  H    0.112200
    84  H    0.130640
    85  H    0.115950
    86  H    0.132434
    87  H    0.114499
    88  H    0.108644
    89  H    0.096072
    90  H    0.110679
    91  H    0.122800
    92  H    0.123492
    93  H    0.145524
    94  H    0.119386
    95  H    0.137568
    96  H    0.144953
    97  H    0.145304
    98  H    0.112830
    99  H    0.136684
   100  H    0.113954
   101  H    0.098098
   102  H    0.088052
   103  H    0.127458
   104  H    0.126256
   105  H    0.097205
   106  H    0.092712
   107  H    0.108925
   108  H    0.071521
   109  H    0.079905
   110  H    0.102233
   111  H    0.094075
   112  H    0.097458
   113  H    0.079190
   114  H    0.092122
   115  H    0.052297
   116  H    0.102940
   117  H    0.106186
   118  H    0.075393
   119  H    0.097659
   120  H    0.081373
   121  H    0.069747
   122  H    0.092807
   123  H    0.096061
   124  H    0.097531
   125  H    0.082469
   126  H    0.055342
   127  H    0.068798
   128  H    0.084487
   129  H    0.098319
   130  H    0.084031
   131  H    0.067983
   132  H    0.071163
   133  H    0.105850
   134  H    0.102281
   135  H    0.106864
   136  H    0.113310
   137  H    0.078865
 Sum of Mulliken charges =  -0.00000

 Dipole moment (field-independent basis, Debye):
    X=              1.6260    Y=              4.6552    Z=              0.2030  Tot=              4.9352
 Quadrupole moment (field-independent basis, Debye-Ang):
   XX=           -349.5606   YY=           -392.8340   ZZ=           -395.9086
   XY=            -21.2433   XZ=             10.5413   YZ=             -3.9976

 Normal termination of Gaussian 16 at Sat Sep  7 21:33:05 2019.
