 Gaussian 09, Revision D.01,
 Gaussian 09:  ES64L-G09RevD.01 24-Apr-2013

 -------------------------------------
 # td=(NStates=1) CAM-B3LYP/6-31G(d,p)
 -------------------------------------

 --
 TD
 --
 Symbolic Z-matrix:
 Charge =  0 Multiplicity = 1

                         Standard orientation:
 ---------------------------------------------------------------------
 Center     Atomic      Atomic             Coordinates (Angstroms)
 Number     Number       Type             X           Y           Z
 ---------------------------------------------------------------------
      1         12           0       -7.114478    0.513630    0.062399
      2          6           0       -4.831866   -2.012907    0.515752
      3          6           0       -4.878061    2.835793    1.273590
      4          6           0       -9.393735    3.117043   -0.435175
      5          6           0       -9.565732   -1.781722   -0.901334
      6          7           0       -5.144335    0.347766    0.876359
      7          6           0       -4.392866   -0.700626    0.846370
      8          6           0       -2.971398   -0.395088    1.190760
      9          6           0       -2.993393    1.072768    1.647421
     10          6           0       -4.396030    1.522200    1.233963
     11          6           0       -2.818908    1.267006    3.087470
     12          6           0       -1.943910   -0.602892    0.071466
     13          6           0       -0.525404   -0.438798    0.425557
     14          6           0        0.472706   -0.677666   -0.639374
     15          8           0        0.176851   -1.044042   -1.773844
     16          8           0        1.788017   -0.460424   -0.201026
     17          7           0       -7.087423    2.652824    0.330727
     18          6           0       -6.054104    3.360456    0.926874
     19          6           0       -6.436655    4.707418    0.804861
     20          6           0       -7.706282    4.880963    0.334152
     21          6           0       -8.116441    3.465714    0.054471
     22          6           0       -5.448994    5.800803    1.106706
     23          6           0       -8.515799    6.100354    0.063933
     24          6           0       -8.474685    7.189628    0.721301
     25          7           0       -9.154630    0.606553   -0.425402
     26          6           0       -9.899192    1.799667   -0.629660
     27          6           0      -11.200512    1.531614   -1.086436
     28          6           0      -11.209194    0.099440   -1.231644
     29          6           0       -9.951777   -0.428236   -0.848749
     30          6           0      -12.225368    2.479821   -1.373718
     31          6           0      -12.395735   -0.676884   -1.766098
     32          6           0      -12.257646   -1.050493   -3.264284
     33          7           0       -7.145711   -1.401037   -0.252796
     34          6           0       -8.323659   -2.199817   -0.545572
     35          6           0       -7.901628   -3.578936   -0.501018
     36          6           0       -6.452685   -3.550159   -0.125540
     37          6           0       -6.119075   -2.214100    0.056606
     38          6           0       -8.666673   -4.814825   -0.788897
     39          6           0       -5.349042   -4.364332    0.318173
     40          8           0       -5.176494   -5.553222    0.466564
     41          6           0       -4.165304   -3.340611    0.520304
     42          6           0       -3.529428   -3.690217    1.834796
     43          8           0       -3.638210   -3.099234    2.885724
     44          8           0       -2.672234   -4.686280    1.720085
     45          6           0       -2.087420   -5.157837    2.910907
     46          6           0        2.753700   -0.750419   -1.156159
     47          6           0        4.055627   -0.569782   -0.549991
     48          6           0        5.033444    0.324449   -0.939992
     49          6           0        4.938877    1.149421   -2.121928
     50          6           0        6.405325    0.423659   -0.192307
     51          6           0        7.644111   -0.063749   -1.100226
     52          6           0        8.846703   -0.201976   -0.093294
     53          6           0       10.119038   -0.489048   -0.917282
     54          6           0       10.052166   -1.961136   -1.623076
     55          6           0       11.389045   -0.503734    0.081165
     56          6           0       12.778106   -0.557289   -0.745985
     57          6           0       14.004713   -0.212549    0.223508
     58          6           0       15.362402   -0.192177   -0.455945
     59          6           0       15.957521   -1.668872   -0.905883
     60          6           0       16.434380    0.561305    0.422513
     61          6           0       17.831018    0.703884   -0.098368
     62          6           0       18.765643    1.342898    0.842143
     63          6           0       20.209521    1.399497    0.279683
     64          6           0       20.311703    2.138897   -1.120117
     65          6           0       21.127032    1.958611    1.291302
     66          1           0       -4.233115    3.452886    1.600987
     67          1           0      -10.027433    3.979415   -0.644862
     68          1           0      -10.231462   -2.522813   -1.153648
     69          1           0       -2.711095   -1.030214    2.022083
     70          1           0       -1.999985    1.547540    1.083939
     71          1           0       -1.679362    1.041610    3.427634
     72          1           0       -3.097261    2.382072    3.608744
     73          1           0       -3.511245    0.608211    3.758833
     74          1           0       -2.226084   -1.583277   -0.231486
     75          1           0       -2.056597    0.243379   -0.759643
     76          1           0       -0.295152    0.473894    0.924134
     77          1           0       -0.458196   -1.236849    1.246101
     78          1           0       -5.847885    6.757755    0.562907
     79          1           0       -5.466455    6.103306    2.119727
     80          1           0       -4.409429    5.431052    0.863780
     81          1           0       -9.213271    6.090637   -0.882601
     82          1           0       -8.936388    8.093143    0.362465
     83          1           0       -7.706528    7.237617    1.659184
     84          1           0      -12.050646    3.223017   -2.151103
     85          1           0      -13.243872    2.003675   -1.720314
     86          1           0      -12.230879    3.268252   -0.664690
     87          1           0      -12.474852   -1.541566   -1.179807
     88          1           0      -13.302236    0.041379   -1.576897
     89          1           0      -13.144081   -1.595083   -3.675391
     90          1           0      -12.219542   -0.095479   -3.838522
     91          1           0      -11.195539   -1.656463   -3.337197
     92          1           0       -9.248077   -4.782564   -1.688356
     93          1           0       -8.025328   -5.552411   -0.826038
     94          1           0       -9.388434   -4.960302    0.001604
     95          1           0       -3.394176   -3.453518   -0.334814
     96          1           0       -1.403631   -4.256939    3.328142
     97          1           0       -2.954289   -5.454821    3.665988
     98          1           0       -1.402536   -5.916008    2.454080
     99          1           0        2.617683   -1.927038   -1.466357
    100          1           0        2.709215    0.000904   -2.045358
    101          1           0        4.195819   -1.135271    0.423841
    102          1           0        3.990335    1.543317   -2.403237
    103          1           0        5.750788    2.221018   -1.869274
    104          1           0        5.420216    0.699977   -3.007244
    105          1           0        6.566985    1.503918    0.090296
    106          1           0        6.277260   -0.091574    0.800393
    107          1           0        7.183775   -0.985549   -1.324359
    108          1           0        7.840592    0.616348   -1.872079
    109          1           0        9.079463    0.728199    0.475527
    110          1           0        8.758266   -1.112637    0.788611
    111          1           0       10.417545    0.248347   -1.573974
    112          1           0        9.282775   -2.067459   -2.393560
    113          1           0       10.987249   -2.121492   -2.341952
    114          1           0        9.938904   -2.677683   -0.828727
    115          1           0       11.361028    0.302329    0.688985
    116          1           0       11.312253   -1.397934    0.826815
    117          1           0       12.849472   -1.502732   -1.080990
    118          1           0       12.871286    0.042499   -1.517609
    119          1           0       13.776245    0.732789    0.873794
    120          1           0       14.006904   -1.165510    0.844296
    121          1           0       15.352637    0.209988   -1.359188
    122          1           0       15.941684   -2.122789    0.052525
    123          1           0       15.286258   -2.326701   -1.631311
    124          1           0       16.781759   -1.483750   -1.491038
    125          1           0       15.934355    1.519426    0.504971
    126          1           0       16.344476    0.210678    1.623593
    127          1           0       18.268631   -0.325337   -0.526341
    128          1           0       17.640362    1.263303   -1.096135
    129          1           0       18.516902    2.562609    0.993344
    130          1           0       18.744397    0.881991    1.779199
    131          1           0       20.330530    0.218603   -0.051735
    132          1           0       19.879846    3.134793   -1.001007
    133          1           0       21.228852    2.083031   -1.607737
    134          1           0       19.713661    1.672841   -1.860509
    135          1           0       21.106360    1.436276    2.130636
    136          1           0       22.137876    2.087822    0.897403
    137          1           0       20.892338    3.002615    1.733325
 ---------------------------------------------------------------------

 SCF Done:  E(RCAM-B3LYP) =  -2932.67384317     A.U. after   16 cycles

 Excitation energies and oscillator strengths:

 Excited State   1:      Singlet-A      2.0348 eV  609.31 nm  f=0.1717  <S**2>=0.000
     240 -> 243        0.29812
     241 -> 242        0.63617
 This state for optimization and/or second-order correction.
 Total Energy, E(TD-HF/TD-KS) =  -2932.59906496
 Copying the excited state density for this state as the 1-particle RhoCI density.

 The electronic state is 1-A.
 Alpha  occ. eigenvalues --  -46.84159 -19.26470 -19.25726 -19.21910 -19.20266
 Alpha  occ. eigenvalues --  -19.20182 -14.42322 -14.39250 -14.38904 -14.38897
 Alpha  occ. eigenvalues --  -10.40075 -10.38413 -10.35005 -10.32765 -10.32535
 Alpha  occ. eigenvalues --  -10.32040 -10.31043 -10.29890 -10.29708 -10.29316
 Alpha  occ. eigenvalues --  -10.28954 -10.28951 -10.28859 -10.28679 -10.28601
 Alpha  occ. eigenvalues --  -10.28595 -10.28580 -10.27973 -10.27902 -10.27829
 Alpha  occ. eigenvalues --  -10.27676 -10.27613 -10.27519 -10.27500 -10.27238
 Alpha  occ. eigenvalues --  -10.27053 -10.27018 -10.26891 -10.26767 -10.26718
 Alpha  occ. eigenvalues --  -10.26686 -10.26401 -10.26401 -10.26291 -10.26197
 Alpha  occ. eigenvalues --  -10.26148 -10.26114 -10.26011 -10.25973 -10.25953
 Alpha  occ. eigenvalues --  -10.25909 -10.25906 -10.25903 -10.25891 -10.25702
 Alpha  occ. eigenvalues --  -10.25560 -10.25467 -10.25134 -10.25100 -10.25032
 Alpha  occ. eigenvalues --  -10.24931 -10.24371 -10.23577 -10.23417 -10.23304
 Alpha  occ. eigenvalues --   -3.13153  -1.87861  -1.87381  -1.87335  -1.19537
 Alpha  occ. eigenvalues --   -1.17840  -1.11339  -1.09754  -1.08929  -1.05186
 Alpha  occ. eigenvalues --   -1.03617  -1.02653  -1.01379  -0.93302  -0.91758
 Alpha  occ. eigenvalues --   -0.90456  -0.90128  -0.90061  -0.89265  -0.88797
 Alpha  occ. eigenvalues --   -0.88546  -0.87959  -0.87705  -0.87441  -0.86649
 Alpha  occ. eigenvalues --   -0.85024  -0.84402  -0.84340  -0.83202  -0.82688
 Alpha  occ. eigenvalues --   -0.82104  -0.81752  -0.80942  -0.79380  -0.78753
 Alpha  occ. eigenvalues --   -0.77674  -0.76966  -0.76832  -0.76006  -0.75711
 Alpha  occ. eigenvalues --   -0.74799  -0.74687  -0.74008  -0.73136  -0.72616
 Alpha  occ. eigenvalues --   -0.72120  -0.70517  -0.69000  -0.68606  -0.68069
 Alpha  occ. eigenvalues --   -0.66680  -0.66326  -0.65597  -0.65150  -0.64691
 Alpha  occ. eigenvalues --   -0.64106  -0.63365  -0.62559  -0.62451  -0.61734
 Alpha  occ. eigenvalues --   -0.61521  -0.60907  -0.60577  -0.59718  -0.59456
 Alpha  occ. eigenvalues --   -0.59002  -0.58550  -0.57983  -0.57647  -0.57388
 Alpha  occ. eigenvalues --   -0.57043  -0.56279  -0.55385  -0.55228  -0.54762
 Alpha  occ. eigenvalues --   -0.54639  -0.54264  -0.53985  -0.53873  -0.53587
 Alpha  occ. eigenvalues --   -0.53385  -0.52700  -0.52358  -0.52075  -0.51763
 Alpha  occ. eigenvalues --   -0.51595  -0.51519  -0.51146  -0.51005  -0.50860
 Alpha  occ. eigenvalues --   -0.50632  -0.50266  -0.49998  -0.49852  -0.49710
 Alpha  occ. eigenvalues --   -0.49594  -0.49341  -0.48984  -0.48873  -0.48749
 Alpha  occ. eigenvalues --   -0.48588  -0.48357  -0.47883  -0.47445  -0.47193
 Alpha  occ. eigenvalues --   -0.47056  -0.46921  -0.46723  -0.46367  -0.46157
 Alpha  occ. eigenvalues --   -0.45809  -0.45770  -0.45471  -0.45378  -0.45282
 Alpha  occ. eigenvalues --   -0.44828  -0.44565  -0.44487  -0.44311  -0.44138
 Alpha  occ. eigenvalues --   -0.43933  -0.43852  -0.43648  -0.43518  -0.43451
 Alpha  occ. eigenvalues --   -0.43104  -0.42740  -0.42481  -0.42313  -0.42115
 Alpha  occ. eigenvalues --   -0.41675  -0.41554  -0.41343  -0.41266  -0.40988
 Alpha  occ. eigenvalues --   -0.40946  -0.40678  -0.40617  -0.40252  -0.40084
 Alpha  occ. eigenvalues --   -0.39878  -0.39609  -0.39477  -0.39240  -0.38974
 Alpha  occ. eigenvalues --   -0.38741  -0.38618  -0.38512  -0.38426  -0.37971
 Alpha  occ. eigenvalues --   -0.37840  -0.37729  -0.37221  -0.37012  -0.36778
 Alpha  occ. eigenvalues --   -0.36567  -0.35994  -0.35939  -0.35715  -0.35551
 Alpha  occ. eigenvalues --   -0.35305  -0.34496  -0.34136  -0.33615  -0.33568
 Alpha  occ. eigenvalues --   -0.33271  -0.33039  -0.32794  -0.31070  -0.30089
 Alpha  occ. eigenvalues --   -0.28807  -0.28790  -0.28149  -0.26792  -0.23186
 Alpha  occ. eigenvalues --   -0.21706
 Alpha virt. eigenvalues --   -0.06877  -0.04305   0.01621   0.04297   0.04756
 Alpha virt. eigenvalues --    0.05055   0.05758   0.06376   0.07013   0.07244
 Alpha virt. eigenvalues --    0.08563   0.10453   0.10851   0.11232   0.11798

 Mulliken charges:
               1
     1  Mg   0.824309
     2  C    0.086137
     3  C   -0.160926
     4  C   -0.161709
     5  C   -0.141369
     6  N   -0.655804
     7  C    0.379625
     8  C   -0.177717
     9  C   -0.119982
    10  C    0.290760
    11  C   -0.292616
    12  C   -0.157607
    13  C   -0.265950
    14  C    0.626143
    15  O   -0.463143
    16  O   -0.477223
    17  N   -0.713704
    18  C    0.353968
    19  C   -0.007261
    20  C    0.012374
    21  C    0.304131
    22  C   -0.377274
    23  C   -0.053810
    24  C   -0.243857
    25  N   -0.713559
    26  C    0.274041
    27  C    0.103395
    28  C   -0.039969
    29  C    0.327630
    30  C   -0.405683
    31  C   -0.233350
    32  C   -0.289813
    33  N   -0.806716
    34  C    0.298630
    35  C   -0.008067
    36  C   -0.012876
    37  C    0.336791
    38  C   -0.364160
    39  C    0.360895
    40  O   -0.465179
    41  C   -0.358266
    42  C    0.620833
    43  O   -0.488445
    44  O   -0.426900
    45  C   -0.072104
    46  C    0.036440
    47  C   -0.125547
    48  C    0.116771
    49  C   -0.355343
    50  C   -0.238635
    51  C   -0.170447
    52  C   -0.160824
    53  C   -0.068503
    54  C   -0.311782
    55  C   -0.189439
    56  C   -0.187885
    57  C   -0.182794
    58  C   -0.070251
    59  C   -0.323042
    60  C   -0.171231
    61  C   -0.167137
    62  C   -0.141604
    63  C   -0.048376
    64  C   -0.316720
    65  C   -0.304772
    66  H    0.053207
    67  H    0.084673
    68  H    0.094337
    69  H    0.140916
    70  H    0.083840
    71  H    0.087878
    72  H    0.082520
    73  H    0.124081
    74  H    0.115063
    75  H    0.097587
    76  H    0.139705
    77  H    0.132022
    78  H    0.109425
    79  H    0.128496
    80  H    0.108220
    81  H    0.091259
    82  H    0.108951
    83  H    0.091606
    84  H    0.122515
    85  H    0.109672
    86  H    0.127554
    87  H    0.109313
    88  H    0.085242
    89  H    0.104821
    90  H    0.110585
    91  H    0.086282
    92  H    0.125005
    93  H    0.152727
    94  H    0.135178
    95  H    0.166768
    96  H    0.102918
    97  H    0.134084
    98  H    0.128472
    99  H    0.100238
   100  H    0.095116
   101  H    0.084425
   102  H    0.129959
   103  H    0.047919
   104  H    0.133843
   105  H    0.093455
   106  H    0.098242
   107  H    0.126696
   108  H    0.113003
   109  H    0.095828
   110  H    0.065538
   111  H    0.095432
   112  H    0.102436
   113  H    0.083030
   114  H    0.111112
   115  H    0.094522
   116  H    0.071227
   117  H    0.114290
   118  H    0.096688
   119  H    0.079747
   120  H    0.086882
   121  H    0.092893
   122  H    0.115291
   123  H    0.073494
   124  H    0.114485
   125  H    0.101280
   126  H    0.048035
   127  H    0.079532
   128  H    0.089757
   129  H    0.055626
   130  H    0.106218
   131  H    0.055605
   132  H    0.099440
   133  H    0.107224
   134  H    0.101707
   135  H    0.114198
   136  H    0.100655
   137  H    0.086502
 Sum of Mulliken charges =   0.00000

 Dipole moment (field-independent basis, Debye):
    X=              0.5529    Y=              4.4390    Z=             -0.8061  Tot=              4.5454
 Quadrupole moment (field-independent basis, Debye-Ang):
   XX=           -347.9425   YY=           -391.6002   ZZ=           -398.2942
   XY=            -15.4100   XZ=             11.3220   YZ=             -1.1783

 Normal termination of Gaussian 09 at Tue Jul  2 12:52:28 2019.
