 Gaussian 16, Revision A.03,
 Gaussian 16:  ES64L-G16RevA.03 25-Dec-2016

 ----------------------------------------------------------------------
 # td=(NStates=1) iop(3/107=0140000000,3/108=0140000000) CAM-B3LYP/6-31
 G(d,p)
 ----------------------------------------------------------------------

 --
 TD
 --
 Symbolic Z-matrix:
 Charge =  0 Multiplicity = 1

                         Standard orientation:
 ---------------------------------------------------------------------
 Center     Atomic      Atomic             Coordinates (Angstroms)
 Number     Number       Type             X           Y           Z
 ---------------------------------------------------------------------
      1         12           0       -7.184632    0.591184    0.085299
      2          6           0       -4.893048   -1.963793    0.544421
      3          6           0       -4.747981    2.842414    1.227672
      4          6           0       -9.331737    3.066082   -0.428001
      5          6           0       -9.468376   -1.749652   -1.122715
      6          7           0       -5.208197    0.443650    0.805908
      7          6           0       -4.350503   -0.693533    0.896483
      8          6           0       -2.978145   -0.334804    1.430616
      9          6           0       -3.139044    1.077528    1.771287
     10          6           0       -4.482898    1.533868    1.217545
     11          6           0       -2.914728    1.294792    3.276946
     12          6           0       -1.930061   -0.453298    0.081357
     13          6           0       -0.511462   -0.250365    0.489763
     14          6           0        0.530777   -0.637771   -0.594439
     15          8           0        0.172236   -1.103084   -1.674624
     16          8           0        1.777658   -0.568891   -0.192540
     17          7           0       -7.059533    2.644379    0.254335
     18          6           0       -6.009898    3.372734    0.900857
     19          6           0       -6.438607    4.725352    0.925195
     20          6           0       -7.724537    4.840402    0.387600
     21          6           0       -8.050857    3.497131   -0.001165
     22          6           0       -5.599644    5.743640    1.270451
     23          6           0       -8.434041    5.988257    0.179632
     24          6           0       -8.310534    7.278742    0.629129
     25          7           0       -9.055132    0.687117   -0.716698
     26          6           0       -9.838438    1.835861   -0.734632
     27          6           0      -11.153603    1.451840   -1.207164
     28          6           0      -11.207259    0.089732   -1.394208
     29          6           0       -9.874183   -0.396180   -1.047876
     30          6           0      -12.261812    2.414337   -1.353947
     31          6           0      -12.247651   -0.709552   -1.946667
     32          6           0      -12.125735   -1.275997   -3.429565
     33          7           0       -7.186639   -1.325675   -0.222837
     34          6           0       -8.192153   -2.164392   -0.615573
     35          6           0       -7.737475   -3.619877   -0.551769
     36          6           0       -6.494544   -3.522272   -0.120149
     37          6           0       -6.180916   -2.159305    0.140628
     38          6           0       -8.635857   -4.807733   -0.653406
     39          6           0       -5.310282   -4.332027    0.186266
     40          8           0       -5.139078   -5.556390    0.250230
     41          6           0       -4.175143   -3.190932    0.614275
     42          6           0       -3.583705   -3.622044    1.946192
     43          8           0       -3.946539   -3.226158    3.075952
     44          8           0       -2.761750   -4.713221    1.813169
     45          6           0       -2.319410   -5.163347    3.070491
     46          6           0        2.798497   -0.691199   -1.198966
     47          6           0        4.127286   -0.389128   -0.609959
     48          6           0        5.146164    0.281232   -1.013842
     49          6           0        5.011450    1.138068   -2.274517
     50          6           0        6.495570    0.328522   -0.179641
     51          6           0        7.601916   -0.313232   -0.976689
     52          6           0        8.856058   -0.094230   -0.145524
     53          6           0       10.221171   -0.534149   -0.865550
     54          6           0       10.116084   -2.056831   -1.232613
     55          6           0       11.423753   -0.284814    0.007214
     56          6           0       12.721089   -0.577362   -0.814238
     57          6           0       13.941468   -0.068475    0.281207
     58          6           0       15.190513   -0.103669   -0.435408
     59          6           0       15.685474   -1.553269   -0.950985
     60          6           0       16.432573    0.394641    0.451954
     61          6           0       17.733130    0.591694   -0.180511
     62          6           0       18.826195    1.223239    0.724425
     63          6           0       20.282042    1.340674    0.116692
     64          6           0       20.334441    2.191328   -1.073448
     65          6           0       21.168706    1.852842    1.221713
     66          1           0       -4.052078    3.518896    1.658441
     67          1           0      -10.159080    3.852102   -0.237086
     68          1           0      -10.150281   -2.592568   -1.422974
     69          1           0       -2.794824   -0.972943    2.271423
     70          1           0       -2.495613    1.915300    1.405802
     71          1           0       -1.914530    1.076086    3.626726
     72          1           0       -2.859437    2.406085    3.586688
     73          1           0       -3.827884    0.903199    3.996054
     74          1           0       -2.150799   -1.387024   -0.281951
     75          1           0       -2.233460    0.304365   -0.543213
     76          1           0       -0.136720    0.691001    0.782676
     77          1           0       -0.075257   -1.116686    1.221187
     78          1           0       -5.744478    6.492816    0.579201
     79          1           0       -5.632125    6.347925    2.237748
     80          1           0       -4.447704    5.646993    1.063497
     81          1           0       -9.300933    5.989249   -0.555222
     82          1           0       -8.965467    7.892146    0.238477
     83          1           0       -7.667562    7.519613    1.570344
     84          1           0      -12.218974    3.213241   -2.165367
     85          1           0      -13.091389    1.834147   -1.669421
     86          1           0      -12.492475    3.132181   -0.512102
     87          1           0      -12.291292   -1.674203   -1.375487
     88          1           0      -13.397142   -0.225636   -2.002089
     89          1           0      -12.892985   -1.974831   -3.576446
     90          1           0      -12.208428   -0.517932   -4.103583
     91          1           0      -11.107189   -1.881529   -3.336340
     92          1           0       -9.083853   -4.789742   -1.698239
     93          1           0       -8.080168   -5.863424   -0.665154
     94          1           0       -9.486875   -4.888275    0.103443
     95          1           0       -3.347964   -3.565129   -0.044198
     96          1           0       -1.393606   -4.594454    3.334673
     97          1           0       -3.097323   -5.287890    3.857876
     98          1           0       -1.744374   -6.273892    3.069641
     99          1           0        2.853400   -1.764377   -1.589832
    100          1           0        2.560466   -0.045527   -1.851248
    101          1           0        4.657304   -0.902334    0.484412
    102          1           0        3.944737    1.388296   -2.566201
    103          1           0        5.365353    2.188711   -1.943533
    104          1           0        5.533334    0.824861   -3.030392
    105          1           0        6.689362    1.347776    0.077893
    106          1           0        6.470827   -0.179073    0.814484
    107          1           0        7.269784   -1.249153   -1.254008
    108          1           0        7.758296    0.123302   -2.055108
    109          1           0        9.055653    1.008007    0.075423
    110          1           0        8.848180   -0.650240    0.590617
    111          1           0       10.419216    0.129790   -1.683129
    112          1           0        9.160473   -2.108905   -1.933664
    113          1           0       10.933480   -2.117806   -1.987807
    114          1           0        9.970841   -2.790538   -0.508243
    115          1           0       11.331384    0.775339    0.264866
    116          1           0       11.346720   -1.081063    0.763626
    117          1           0       12.776428   -1.734376   -0.971948
    118          1           0       12.795268   -0.051041   -1.701256
    119          1           0       13.752862    1.003639    0.498445
    120          1           0       13.882709   -0.733541    1.128123
    121          1           0       14.984012    0.688520   -1.280435
    122          1           0       15.668093   -2.366405   -0.175205
    123          1           0       15.089193   -2.045481   -1.697252
    124          1           0       16.789662   -1.374877   -1.491701
    125          1           0       16.056086    1.340466    0.646810
    126          1           0       16.522716   -0.212510    1.567669
    127          1           0       18.142121   -0.427147   -0.311191
    128          1           0       17.729758    1.132264   -1.175348
    129          1           0       18.304771    2.037129    1.037991
    130          1           0       18.855492    0.445941    1.852401
    131          1           0       20.416935    0.203508   -0.039293
    132          1           0       19.711842    3.136614   -0.848633
    133          1           0       21.597966    2.591569   -1.397697
    134          1           0       19.972144    1.436709   -2.008003
    135          1           0       21.142537    1.296794    2.078842
    136          1           0       22.198298    1.718497    0.752683
    137          1           0       21.005895    2.898564    1.384707
 ---------------------------------------------------------------------

 SCF Done:  E(RCAM-B3LYP) =  -2933.38943996     A.U. after   16 cycles

 Excitation energies and oscillator strengths:

 Excited State   1:      Singlet-A      1.8885 eV  656.53 nm  f=0.2981  <S**2>=0.000
     240 -> 243       -0.20819
     241 -> 242        0.67439
 This state for optimization and/or second-order correction.
 Total Energy, E(TD-HF/TD-DFT) =  -2933.32003932
 Copying the excited state density for this state as the 1-particle RhoCI density.

 The electronic state is 1-A.
 Alpha  occ. eigenvalues --  -46.79058 -19.22686 -19.22553 -19.17554 -19.16321
 Alpha  occ. eigenvalues --  -19.15406 -14.38052 -14.36192 -14.35069 -14.34872
 Alpha  occ. eigenvalues --  -10.34753 -10.34044 -10.31886 -10.27696 -10.27689
 Alpha  occ. eigenvalues --  -10.27347 -10.26212 -10.25366 -10.25353 -10.24981
 Alpha  occ. eigenvalues --  -10.24648 -10.24573 -10.24569 -10.24551 -10.24433
 Alpha  occ. eigenvalues --  -10.24249 -10.24044 -10.23909 -10.23817 -10.23537
 Alpha  occ. eigenvalues --  -10.23432 -10.22938 -10.22821 -10.22819 -10.22653
 Alpha  occ. eigenvalues --  -10.22635 -10.22624 -10.22453 -10.22329 -10.22250
 Alpha  occ. eigenvalues --  -10.22096 -10.22071 -10.22058 -10.21991 -10.21789
 Alpha  occ. eigenvalues --  -10.21747 -10.21576 -10.21371 -10.21340 -10.21299
 Alpha  occ. eigenvalues --  -10.21196 -10.21188 -10.21180 -10.21108 -10.21083
 Alpha  occ. eigenvalues --  -10.21018 -10.20958 -10.20870 -10.20790 -10.20767
 Alpha  occ. eigenvalues --  -10.20476 -10.20432 -10.20426 -10.19754 -10.19244
 Alpha  occ. eigenvalues --   -3.07893  -1.82817  -1.82358  -1.82326  -1.14273
 Alpha  occ. eigenvalues --   -1.12831  -1.05744  -1.03338  -1.02681  -1.00151
 Alpha  occ. eigenvalues --   -0.98253  -0.97544  -0.96625  -0.88928  -0.86593
 Alpha  occ. eigenvalues --   -0.85357  -0.85128  -0.84961  -0.84668  -0.84451
 Alpha  occ. eigenvalues --   -0.83756  -0.83409  -0.83277  -0.82438  -0.81906
 Alpha  occ. eigenvalues --   -0.80826  -0.79919  -0.78831  -0.78799  -0.77919
 Alpha  occ. eigenvalues --   -0.77493  -0.76320  -0.75914  -0.74211  -0.73707
 Alpha  occ. eigenvalues --   -0.73288  -0.72564  -0.71882  -0.71062  -0.70687
 Alpha  occ. eigenvalues --   -0.70522  -0.70108  -0.69713  -0.68874  -0.68466
 Alpha  occ. eigenvalues --   -0.67383  -0.67197  -0.65503  -0.65061  -0.64502
 Alpha  occ. eigenvalues --   -0.63385  -0.62751  -0.61745  -0.60688  -0.60549
 Alpha  occ. eigenvalues --   -0.60283  -0.60155  -0.59071  -0.58020  -0.57669
 Alpha  occ. eigenvalues --   -0.56678  -0.56494  -0.56118  -0.55731  -0.55299
 Alpha  occ. eigenvalues --   -0.54752  -0.54290  -0.53820  -0.53342  -0.52559
 Alpha  occ. eigenvalues --   -0.52142  -0.52117  -0.51955  -0.51566  -0.51186
 Alpha  occ. eigenvalues --   -0.50889  -0.50276  -0.49932  -0.49868  -0.49271
 Alpha  occ. eigenvalues --   -0.49021  -0.48598  -0.48572  -0.48440  -0.48106
 Alpha  occ. eigenvalues --   -0.47867  -0.47769  -0.47470  -0.47381  -0.47043
 Alpha  occ. eigenvalues --   -0.46905  -0.46614  -0.46446  -0.46372  -0.46171
 Alpha  occ. eigenvalues --   -0.46109  -0.45864  -0.45355  -0.45181  -0.45079
 Alpha  occ. eigenvalues --   -0.44704  -0.44281  -0.44169  -0.44146  -0.43949
 Alpha  occ. eigenvalues --   -0.43494  -0.43343  -0.43118  -0.42912  -0.42612
 Alpha  occ. eigenvalues --   -0.42487  -0.42412  -0.42061  -0.41963  -0.41855
 Alpha  occ. eigenvalues --   -0.41741  -0.41576  -0.41442  -0.40934  -0.40782
 Alpha  occ. eigenvalues --   -0.40573  -0.40430  -0.40213  -0.40080  -0.39878
 Alpha  occ. eigenvalues --   -0.39774  -0.39704  -0.39425  -0.39339  -0.39074
 Alpha  occ. eigenvalues --   -0.38924  -0.38800  -0.38419  -0.37901  -0.37869
 Alpha  occ. eigenvalues --   -0.37682  -0.37609  -0.37289  -0.37210  -0.36950
 Alpha  occ. eigenvalues --   -0.36470  -0.36144  -0.36119  -0.35846  -0.35605
 Alpha  occ. eigenvalues --   -0.35585  -0.35497  -0.35110  -0.35029  -0.34788
 Alpha  occ. eigenvalues --   -0.34131  -0.33880  -0.33724  -0.33353  -0.33260
 Alpha  occ. eigenvalues --   -0.33078  -0.33061  -0.32999  -0.32903  -0.32592
 Alpha  occ. eigenvalues --   -0.32235  -0.31663  -0.30805  -0.30546  -0.30209
 Alpha  occ. eigenvalues --   -0.29641  -0.29366  -0.28666  -0.28597  -0.28293
 Alpha  occ. eigenvalues --   -0.27753  -0.27326  -0.25411  -0.23770  -0.22022
 Alpha  occ. eigenvalues --   -0.19693
 Alpha virt. eigenvalues --   -0.07554  -0.04295  -0.01175   0.01754   0.02758
 Alpha virt. eigenvalues --    0.04260   0.05052   0.05263   0.05394   0.05988
 Alpha virt. eigenvalues --    0.06165   0.07767   0.08203   0.09000   0.09080

 Mulliken charges:
               1
     1  Mg   0.813049
     2  C    0.105918
     3  C   -0.163794
     4  C   -0.181117
     5  C   -0.174265
     6  N   -0.648121
     7  C    0.281198
     8  C   -0.162267
     9  C   -0.136511
    10  C    0.392580
    11  C   -0.318956
    12  C   -0.145660
    13  C   -0.246311
    14  C    0.565185
    15  O   -0.489600
    16  O   -0.450794
    17  N   -0.709452
    18  C    0.268630
    19  C    0.061866
    20  C    0.094078
    21  C    0.315551
    22  C   -0.442432
    23  C   -0.143686
    24  C   -0.224234
    25  N   -0.703313
    26  C    0.323140
    27  C    0.035869
    28  C    0.109703
    29  C    0.286817
    30  C   -0.392555
    31  C   -0.294655
    32  C   -0.296492
    33  N   -0.727240
    34  C    0.255900
    35  C    0.002064
    36  C    0.086487
    37  C    0.298283
    38  C   -0.390635
    39  C    0.361139
    40  O   -0.452042
    41  C   -0.375409
    42  C    0.620984
    43  O   -0.496341
    44  O   -0.427235
    45  C   -0.080199
    46  C    0.055178
    47  C   -0.125066
    48  C    0.110263
    49  C   -0.369342
    50  C   -0.223899
    51  C   -0.169493
    52  C   -0.143591
    53  C   -0.093203
    54  C   -0.322825
    55  C   -0.145174
    56  C   -0.202582
    57  C   -0.161543
    58  C   -0.048527
    59  C   -0.311650
    60  C   -0.147497
    61  C   -0.179981
    62  C   -0.153955
    63  C   -0.042513
    64  C   -0.263477
    65  C   -0.288360
    66  H    0.084870
    67  H    0.084938
    68  H    0.093902
    69  H    0.136858
    70  H    0.101387
    71  H    0.121091
    72  H    0.085869
    73  H    0.102480
    74  H    0.129063
    75  H    0.129648
    76  H    0.132133
    77  H    0.119402
    78  H    0.139781
    79  H    0.113327
    80  H    0.091025
    81  H    0.079981
    82  H    0.091565
    83  H    0.089285
    84  H    0.110699
    85  H    0.110130
    86  H    0.117344
    87  H    0.102819
    88  H    0.077653
    89  H    0.115751
    90  H    0.124957
    91  H    0.088495
    92  H    0.117903
    93  H    0.134637
    94  H    0.137307
    95  H    0.161101
    96  H    0.115166
    97  H    0.148851
    98  H    0.084148
    99  H    0.134393
   100  H    0.112631
   101  H    0.041113
   102  H    0.107305
   103  H    0.100197
   104  H    0.134883
   105  H    0.106386
   106  H    0.098950
   107  H    0.112312
   108  H    0.073519
   109  H    0.077432
   110  H    0.099385
   111  H    0.078050
   112  H    0.079262
   113  H    0.108200
   114  H    0.115668
   115  H    0.084475
   116  H    0.087804
   117  H    0.095767
   118  H    0.099265
   119  H    0.089612
   120  H    0.096385
   121  H    0.066192
   122  H    0.098030
   123  H    0.097427
   124  H    0.080833
   125  H    0.085110
   126  H    0.055865
   127  H    0.096034
   128  H    0.089328
   129  H    0.096065
   130  H    0.016103
   131  H    0.086690
   132  H    0.108044
   133  H    0.050865
   134  H    0.088615
   135  H    0.111296
   136  H    0.084952
   137  H    0.104097
 Sum of Mulliken charges =  -0.00000

 Dipole moment (field-independent basis, Debye):
    X=              1.8598    Y=              3.4414    Z=             -0.0571  Tot=              3.9122
 Quadrupole moment (field-independent basis, Debye-Ang):
   XX=           -356.3192   YY=           -398.2613   ZZ=           -401.8219
   XY=             -2.4570   XZ=             10.3589   YZ=              0.0860

 Normal termination of Gaussian 16 at Mon Sep 16 10:16:49 2019.
