 Gaussian 16, Revision A.03,
 Gaussian 16:  ES64L-G16RevA.03 25-Dec-2016

 ----------------------------------------------------------------------
 # td=(NStates=1) iop(3/107=0140000000,3/108=0140000000) CAM-B3LYP/6-31
 G(d,p)
 ----------------------------------------------------------------------

 --
 TD
 --
 Symbolic Z-matrix:
 Charge =  0 Multiplicity = 1

                         Standard orientation:
 ---------------------------------------------------------------------
 Center     Atomic      Atomic             Coordinates (Angstroms)
 Number     Number       Type             X           Y           Z
 ---------------------------------------------------------------------
      1         12           0       -7.152948    0.663827    0.093653
      2          6           0       -4.883858   -1.986931    0.495798
      3          6           0       -4.836229    2.757690    1.180133
      4          6           0       -9.360234    3.126728   -0.304674
      5          6           0       -9.508872   -1.712886   -0.897480
      6          7           0       -5.176838    0.466282    0.762029
      7          6           0       -4.399052   -0.754727    0.762234
      8          6           0       -3.026217   -0.425575    1.210655
      9          6           0       -3.001765    1.157353    1.581054
     10          6           0       -4.432970    1.534090    1.122784
     11          6           0       -2.981695    1.386458    3.140660
     12          6           0       -1.927046   -0.670816    0.151270
     13          6           0       -0.531340   -0.580778    0.671184
     14          6           0        0.506996   -0.790089   -0.514016
     15          8           0        0.320638   -1.202950   -1.564150
     16          8           0        1.863428   -0.414463   -0.027493
     17          7           0       -7.087557    2.655753    0.339972
     18          6           0       -6.014060    3.342808    0.779013
     19          6           0       -6.396127    4.762944    0.803312
     20          6           0       -7.677748    4.800961    0.421259
     21          6           0       -8.175476    3.581261    0.190572
     22          6           0       -5.364429    5.906469    1.129327
     23          6           0       -8.566778    6.040548    0.135386
     24          6           0       -8.439153    7.265154    0.610629
     25          7           0       -9.082441    0.676461   -0.580403
     26          6           0       -9.790892    1.841441   -0.665460
     27          6           0      -11.161206    1.486623   -1.045657
     28          6           0      -11.248621    0.161132   -1.192818
     29          6           0       -9.926700   -0.364745   -0.937775
     30          6           0      -12.176227    2.594270   -1.388701
     31          6           0      -12.293023   -0.668736   -1.751304
     32          6           0      -12.080983   -1.010840   -3.313985
     33          7           0       -7.207306   -1.354848   -0.287273
     34          6           0       -8.283787   -2.161007   -0.600900
     35          6           0       -7.849253   -3.595402   -0.600472
     36          6           0       -6.536511   -3.625724   -0.221516
     37          6           0       -6.240892   -2.223530    0.065859
     38          6           0       -8.700389   -4.716406   -0.955823
     39          6           0       -5.402805   -4.311396    0.097768
     40          8           0       -5.238126   -5.556490    0.037193
     41          6           0       -4.221487   -3.363043    0.571860
     42          6           0       -3.615023   -3.690604    1.880277
     43          8           0       -3.904000   -3.188230    2.977291
     44          8           0       -2.928322   -4.926980    1.926103
     45          6           0       -2.603594   -5.403454    3.218625
     46          6           0        2.786614   -0.570534   -1.078819
     47          6           0        4.162600   -0.413509   -0.405021
     48          6           0        5.260141    0.338147   -1.006446
     49          6           0        5.038863    0.992764   -2.286021
     50          6           0        6.553632    0.264346   -0.263319
     51          6           0        7.766561   -0.153726   -1.052803
     52          6           0        8.977412   -0.159937   -0.133459
     53          6           0       10.260203   -0.597722   -0.848787
     54          6           0       10.137202   -2.103391   -1.319652
     55          6           0       11.489682   -0.257232    0.000522
     56          6           0       12.832934   -0.430163   -0.714407
     57          6           0       13.955149   -0.131602    0.110100
     58          6           0       15.381989   -0.255854   -0.462865
     59          6           0       15.629176   -1.602032   -1.082434
     60          6           0       16.445341    0.334523    0.433696
     61          6           0       17.784901    0.606827   -0.243486
     62          6           0       18.796823    1.322506    0.759831
     63          6           0       20.302307    1.354876    0.297816
     64          6           0       20.347437    2.199227   -1.005147
     65          6           0       21.258683    1.996783    1.261195
     66          1           0       -4.200399    3.461581    1.411610
     67          1           0      -10.181093    3.906493   -0.111516
     68          1           0      -10.343546   -2.401671   -1.101132
     69          1           0       -2.968248   -1.132163    2.101439
     70          1           0       -2.162142    1.793888    1.006337
     71          1           0       -2.047210    1.220261    3.532110
     72          1           0       -3.119358    2.463509    3.306166
     73          1           0       -3.675618    0.725427    3.556934
     74          1           0       -2.209848   -1.720518   -0.352940
     75          1           0       -2.011205    0.129028   -0.625570
     76          1           0       -0.416563    0.430829    1.048349
     77          1           0       -0.305164   -1.110423    1.594310
     78          1           0       -5.726361    6.771158    0.567751
     79          1           0       -5.297569    6.166037    2.359617
     80          1           0       -4.343984    5.683110    0.873428
     81          1           0       -9.315086    5.765064   -0.567406
     82          1           0       -9.060226    8.116403    0.340327
     83          1           0       -7.730296    7.464834    1.331820
     84          1           0      -11.731019    3.304671   -1.943441
     85          1           0      -13.039486    2.100011   -2.089306
     86          1           0      -12.578670    3.148288   -0.437812
     87          1           0      -12.591556   -1.616817   -1.344909
     88          1           0      -13.245282   -0.132318   -1.794613
     89          1           0      -12.937748   -1.863415   -3.769516
     90          1           0      -12.193667   -0.270371   -4.010502
     91          1           0      -11.209300   -1.450732   -3.507192
     92          1           0       -8.882531   -4.703474   -2.050030
     93          1           0       -7.986225   -5.493319   -0.775137
     94          1           0       -9.629160   -4.728507   -0.583210
     95          1           0       -3.489884   -3.323565   -0.439667
     96          1           0       -2.289155   -4.586039    3.890521
     97          1           0       -3.562996   -5.642292    3.619803
     98          1           0       -1.807627   -6.220607    3.039100
     99          1           0        2.701113   -1.476958   -1.607169
    100          1           0        2.638074    0.141957   -1.762195
    101          1           0        4.336030   -0.923370    0.471135
    102          1           0        3.878634    1.271819   -2.285113
    103          1           0        5.720427    1.972414   -2.198439
    104          1           0        5.617837    0.350159   -3.128105
    105          1           0        6.808169    1.358889    0.134647
    106          1           0        6.600894   -0.316633    0.746064
    107          1           0        7.556949   -1.082443   -1.591067
    108          1           0        7.957850    0.549522   -1.859536
    109          1           0        9.162652    1.016208    0.119099
    110          1           0        8.722812   -0.831258    0.765549
    111          1           0       10.113557   -0.048218   -1.908720
    112          1           0        9.188008   -2.266491   -1.924736
    113          1           0       11.046914   -2.272044   -1.711442
    114          1           0       10.103640   -2.776720   -0.388162
    115          1           0       11.364640    0.766052    0.401576
    116          1           0       11.231603   -0.903276    0.970876
    117          1           0       12.916794   -1.595642   -0.958430
    118          1           0       12.975618    0.162575   -1.597704
    119          1           0       13.793571    0.875196    0.515100
    120          1           0       13.992631   -0.674001    1.059682
    121          1           0       15.423962    0.529079   -1.225027
    122          1           0       15.672168   -2.377701   -0.205025
    123          1           0       14.827455   -1.858690   -1.751302
    124          1           0       16.613561   -1.698033   -1.562117
    125          1           0       16.195299    1.306575    0.781031
    126          1           0       16.338456   -0.472382    1.248591
    127          1           0       18.187493   -0.363186   -0.505536
    128          1           0       17.680832    1.198452   -1.101074
    129          1           0       18.570070    2.266121    1.380055
    130          1           0       18.811176    0.743296    1.625618
    131          1           0       20.505089    0.222392    0.017098
    132          1           0       19.994206    3.092599   -0.735215
    133          1           0       21.458440    2.391099   -1.344512
    134          1           0       19.673676    1.849732   -1.761036
    135          1           0       21.113244    1.528418    2.172867
    136          1           0       22.362467    1.749840    1.027662
    137          1           0       21.116395    3.040527    1.306190
 ---------------------------------------------------------------------

 SCF Done:  E(RCAM-B3LYP) =  -2933.53797057     A.U. after   15 cycles

 Excitation energies and oscillator strengths:

 Excited State   1:      Singlet-A      2.1060 eV  588.73 nm  f=0.2824  <S**2>=0.000
     240 -> 243        0.22082
     241 -> 242        0.66339
 This state for optimization and/or second-order correction.
 Total Energy, E(TD-HF/TD-DFT) =  -2933.46057756
 Copying the excited state density for this state as the 1-particle RhoCI density.

 The electronic state is 1-A.
 Alpha  occ. eigenvalues --  -46.79242 -19.20877 -19.19808 -19.19624 -19.17553
 Alpha  occ. eigenvalues --  -19.15607 -14.37106 -14.36077 -14.35452 -14.34471
 Alpha  occ. eigenvalues --  -10.35605 -10.35246 -10.30609 -10.26818 -10.26461
 Alpha  occ. eigenvalues --  -10.26062 -10.25720 -10.25252 -10.25105 -10.25020
 Alpha  occ. eigenvalues --  -10.24992 -10.24842 -10.24792 -10.24554 -10.24550
 Alpha  occ. eigenvalues --  -10.23993 -10.23955 -10.23795 -10.23792 -10.23746
 Alpha  occ. eigenvalues --  -10.23600 -10.23538 -10.23259 -10.22992 -10.22858
 Alpha  occ. eigenvalues --  -10.22826 -10.22790 -10.22748 -10.22359 -10.22328
 Alpha  occ. eigenvalues --  -10.22307 -10.22209 -10.22104 -10.22036 -10.22013
 Alpha  occ. eigenvalues --  -10.21996 -10.21554 -10.21504 -10.21373 -10.21118
 Alpha  occ. eigenvalues --  -10.21100 -10.21096 -10.20769 -10.20717 -10.20646
 Alpha  occ. eigenvalues --  -10.20644 -10.20644 -10.20643 -10.20574 -10.20466
 Alpha  occ. eigenvalues --  -10.20126 -10.19573 -10.19570 -10.18821 -10.18799
 Alpha  occ. eigenvalues --   -3.07965  -1.82909  -1.82425  -1.82382  -1.14573
 Alpha  occ. eigenvalues --   -1.11444  -1.04919  -1.04010  -1.03015  -0.99635
 Alpha  occ. eigenvalues --   -0.98690  -0.97806  -0.96866  -0.88547  -0.86439
 Alpha  occ. eigenvalues --   -0.85653  -0.85323  -0.84763  -0.84365  -0.84039
 Alpha  occ. eigenvalues --   -0.83853  -0.83173  -0.82966  -0.82844  -0.80834
 Alpha  occ. eigenvalues --   -0.80677  -0.79700  -0.78948  -0.78233  -0.78059
 Alpha  occ. eigenvalues --   -0.77327  -0.76758  -0.76151  -0.75207  -0.74531
 Alpha  occ. eigenvalues --   -0.73504  -0.72626  -0.71548  -0.71292  -0.70820
 Alpha  occ. eigenvalues --   -0.70607  -0.70569  -0.70044  -0.68850  -0.67756
 Alpha  occ. eigenvalues --   -0.67130  -0.66832  -0.65834  -0.65602  -0.64756
 Alpha  occ. eigenvalues --   -0.63222  -0.62213  -0.61942  -0.60895  -0.60435
 Alpha  occ. eigenvalues --   -0.60161  -0.58947  -0.58445  -0.58090  -0.57698
 Alpha  occ. eigenvalues --   -0.57350  -0.57029  -0.56248  -0.55911  -0.55335
 Alpha  occ. eigenvalues --   -0.54867  -0.54612  -0.54252  -0.53464  -0.52956
 Alpha  occ. eigenvalues --   -0.52591  -0.52052  -0.51601  -0.51424  -0.51252
 Alpha  occ. eigenvalues --   -0.50473  -0.50176  -0.50019  -0.49910  -0.49684
 Alpha  occ. eigenvalues --   -0.49651  -0.48893  -0.48840  -0.48413  -0.48001
 Alpha  occ. eigenvalues --   -0.47875  -0.47758  -0.47496  -0.47353  -0.47140
 Alpha  occ. eigenvalues --   -0.47025  -0.46783  -0.46540  -0.46469  -0.46099
 Alpha  occ. eigenvalues --   -0.45922  -0.45557  -0.45298  -0.45002  -0.44750
 Alpha  occ. eigenvalues --   -0.44691  -0.44565  -0.44509  -0.44170  -0.43942
 Alpha  occ. eigenvalues --   -0.43746  -0.43556  -0.43440  -0.43010  -0.42732
 Alpha  occ. eigenvalues --   -0.42481  -0.42297  -0.42155  -0.42064  -0.41815
 Alpha  occ. eigenvalues --   -0.41541  -0.41370  -0.41325  -0.41072  -0.40934
 Alpha  occ. eigenvalues --   -0.40809  -0.40677  -0.40620  -0.40563  -0.40422
 Alpha  occ. eigenvalues --   -0.39907  -0.39847  -0.39437  -0.39396  -0.39282
 Alpha  occ. eigenvalues --   -0.39055  -0.38803  -0.38777  -0.38603  -0.38054
 Alpha  occ. eigenvalues --   -0.37853  -0.37762  -0.37453  -0.37253  -0.37204
 Alpha  occ. eigenvalues --   -0.36992  -0.36922  -0.36890  -0.36644  -0.36584
 Alpha  occ. eigenvalues --   -0.36214  -0.36091  -0.35562  -0.35143  -0.34693
 Alpha  occ. eigenvalues --   -0.34168  -0.33922  -0.33759  -0.33515  -0.33280
 Alpha  occ. eigenvalues --   -0.32980  -0.32812  -0.32590  -0.32552  -0.32203
 Alpha  occ. eigenvalues --   -0.31736  -0.31637  -0.31508  -0.31179  -0.30927
 Alpha  occ. eigenvalues --   -0.30685  -0.30424  -0.30164  -0.29095  -0.28019
 Alpha  occ. eigenvalues --   -0.27089  -0.26529  -0.25715  -0.24041  -0.22392
 Alpha  occ. eigenvalues --   -0.20598
 Alpha virt. eigenvalues --   -0.07472  -0.04089  -0.01043   0.00900   0.02979
 Alpha virt. eigenvalues --    0.03620   0.03956   0.04752   0.04980   0.05624
 Alpha virt. eigenvalues --    0.06052   0.08172   0.08858   0.09413   0.09741

 Mulliken charges:
               1
     1  Mg   0.792415
     2  C    0.065922
     3  C   -0.130575
     4  C   -0.194771
     5  C   -0.183340
     6  N   -0.665860
     7  C    0.297472
     8  C   -0.183041
     9  C   -0.161651
    10  C    0.387719
    11  C   -0.302833
    12  C   -0.161036
    13  C   -0.267356
    14  C    0.589655
    15  O   -0.382927
    16  O   -0.517359
    17  N   -0.740569
    18  C    0.317218
    19  C   -0.009672
    20  C    0.036310
    21  C    0.297770
    22  C   -0.367034
    23  C   -0.048312
    24  C   -0.250920
    25  N   -0.695547
    26  C    0.318954
    27  C    0.005687
    28  C    0.079981
    29  C    0.259638
    30  C   -0.366261
    31  C   -0.275720
    32  C   -0.310257
    33  N   -0.694590
    34  C    0.325953
    35  C   -0.019053
    36  C    0.178424
    37  C    0.251502
    38  C   -0.376741
    39  C    0.279027
    40  O   -0.486389
    41  C   -0.301500
    42  C    0.620808
    43  O   -0.475703
    44  O   -0.456682
    45  C   -0.077906
    46  C    0.036471
    47  C   -0.130392
    48  C    0.121972
    49  C   -0.357793
    50  C   -0.213623
    51  C   -0.178319
    52  C   -0.151248
    53  C   -0.056981
    54  C   -0.305116
    55  C   -0.169707
    56  C   -0.158928
    57  C   -0.167792
    58  C   -0.064607
    59  C   -0.309249
    60  C   -0.169346
    61  C   -0.183833
    62  C   -0.193422
    63  C   -0.051712
    64  C   -0.299315
    65  C   -0.311139
    66  H    0.037426
    67  H    0.091328
    68  H    0.087759
    69  H    0.128581
    70  H    0.090280
    71  H    0.113927
    72  H    0.107947
    73  H    0.135712
    74  H    0.087231
    75  H    0.111218
    76  H    0.135075
    77  H    0.143726
    78  H    0.127290
    79  H    0.091752
    80  H    0.125836
    81  H    0.085632
    82  H    0.104343
    83  H    0.103451
    84  H    0.138937
    85  H    0.091869
    86  H    0.109159
    87  H    0.117002
    88  H    0.106360
    89  H    0.046615
    90  H    0.123699
    91  H    0.124726
    92  H    0.129880
    93  H    0.152009
    94  H    0.135234
    95  H    0.158273
    96  H    0.124988
    97  H    0.133971
    98  H    0.120306
    99  H    0.124635
   100  H    0.094583
   101  H    0.082863
   102  H    0.120163
   103  H    0.091589
   104  H    0.116396
   105  H    0.074196
   106  H    0.090915
   107  H    0.097110
   108  H    0.095280
   109  H    0.068720
   110  H    0.081240
   111  H    0.055713
   112  H    0.102546
   113  H    0.115608
   114  H    0.080964
   115  H    0.091760
   116  H    0.081072
   117  H    0.079329
   118  H    0.103605
   119  H    0.080110
   120  H    0.079645
   121  H    0.069476
   122  H    0.079445
   123  H    0.115098
   124  H    0.103880
   125  H    0.099174
   126  H    0.073834
   127  H    0.102171
   128  H    0.107284
   129  H    0.072728
   130  H    0.100741
   131  H    0.064539
   132  H    0.110927
   133  H    0.076503
   134  H    0.096388
   135  H    0.105895
   136  H    0.094816
   137  H    0.110743
 Sum of Mulliken charges =  -0.00000

 Dipole moment (field-independent basis, Debye):
    X=             -0.1984    Y=              4.5713    Z=              0.0088  Tot=              4.5756
 Quadrupole moment (field-independent basis, Debye-Ang):
   XX=           -354.5269   YY=           -398.6371   ZZ=           -396.0578
   XY=            -15.5373   XZ=             13.7155   YZ=             -0.4818

 Normal termination of Gaussian 16 at Thu Sep  5 16:27:59 2019.
