 Gaussian 16, Revision A.03,
 Gaussian 16:  ES64L-G16RevA.03 25-Dec-2016

 ----------------------------------------------------------------------
 # td=(NStates=1) iop(3/107=0140000000,3/108=0140000000) CAM-B3LYP/6-31
 G(d,p)
 ----------------------------------------------------------------------

 --
 TD
 --
 Symbolic Z-matrix:
 Charge =  0 Multiplicity = 1

                         Standard orientation:
 ---------------------------------------------------------------------
 Center     Atomic      Atomic             Coordinates (Angstroms)
 Number     Number       Type             X           Y           Z
 ---------------------------------------------------------------------
      1         12           0       -7.166037    0.625463    0.122129
      2          6           0       -4.836515   -1.995377    0.467005
      3          6           0       -4.777704    2.795236    1.199646
      4          6           0       -9.410090    3.133986   -0.337584
      5          6           0       -9.520869   -1.682366   -0.829722
      6          7           0       -5.141205    0.408419    0.643639
      7          6           0       -4.383027   -0.693719    0.760603
      8          6           0       -2.957771   -0.390510    1.192778
      9          6           0       -2.975806    1.009231    1.645362
     10          6           0       -4.404436    1.513059    1.144437
     11          6           0       -2.957919    1.151683    3.185734
     12          6           0       -1.914238   -0.661315    0.076858
     13          6           0       -0.486806   -0.433675    0.463689
     14          6           0        0.568302   -0.759177   -0.626110
     15          8           0        0.215523   -1.004786   -1.720250
     16          8           0        1.751337   -0.541086   -0.342994
     17          7           0       -7.070353    2.632271    0.312904
     18          6           0       -5.984881    3.346957    0.713886
     19          6           0       -6.288441    4.745104    0.741077
     20          6           0       -7.526366    4.902901    0.187286
     21          6           0       -8.081700    3.488548    0.048971
     22          6           0       -5.404850    6.022109    1.169111
     23          6           0       -8.514230    5.990217    0.031837
     24          6           0       -8.333951    7.187484    0.724536
     25          7           0       -9.149286    0.680003   -0.451813
     26          6           0       -9.924566    1.857881   -0.584823
     27          6           0      -11.278878    1.554766   -0.930260
     28          6           0      -11.298500    0.169701   -1.172838
     29          6           0       -9.927119   -0.404476   -0.930383
     30          6           0      -12.381195    2.538542   -1.281362
     31          6           0      -12.423185   -0.743547   -1.744076
     32          6           0      -12.240256   -1.187875   -3.099482
     33          7           0       -7.227000   -1.356373   -0.281178
     34          6           0       -8.266167   -2.229745   -0.529798
     35          6           0       -7.853972   -3.583267   -0.566367
     36          6           0       -6.521307   -3.508626   -0.093239
     37          6           0       -6.216375   -2.160220    0.030923
     38          6           0       -8.604689   -4.851832   -0.783351
     39          6           0       -5.318892   -4.338320    0.185558
     40          8           0       -5.182727   -5.576168    0.295163
     41          6           0       -4.153463   -3.303607    0.557925
     42          6           0       -3.543999   -3.635443    1.883635
     43          8           0       -3.759310   -3.099573    2.952918
     44          8           0       -2.744970   -4.774741    1.776070
     45          6           0       -2.238958   -5.220249    3.038828
     46          6           0        2.923409   -0.828676   -1.263796
     47          6           0        4.241164   -0.515700   -0.598744
     48          6           0        5.204482    0.272379   -1.013325
     49          6           0        5.095373    1.329751   -2.156171
     50          6           0        6.461177    0.270648   -0.143317
     51          6           0        7.694245   -0.130379   -1.019358
     52          6           0        8.961573   -0.118324   -0.170054
     53          6           0       10.242447   -0.540720   -0.970642
     54          6           0       10.080214   -1.964059   -1.567964
     55          6           0       11.426997   -0.304649    0.019662
     56          6           0       12.749468   -0.464706   -0.708403
     57          6           0       13.957730   -0.040833    0.143669
     58          6           0       15.300594   -0.172500   -0.450003
     59          6           0       15.626857   -1.532208   -0.945512
     60          6           0       16.411300    0.360848    0.446749
     61          6           0       17.762500    0.619820   -0.192266
     62          6           0       18.700700    1.136278    0.905036
     63          6           0       20.165688    1.362590    0.300539
     64          6           0       20.329120    2.109086   -0.951457
     65          6           0       21.154214    1.861500    1.400711
     66          1           0       -3.984225    3.315681    1.311565
     67          1           0      -10.116344    4.076858   -0.586762
     68          1           0      -10.123965   -2.450487   -1.056997
     69          1           0       -2.407629   -1.079089    1.970859
     70          1           0       -2.219166    1.754455    1.168080
     71          1           0       -1.944630    0.920577    3.382059
     72          1           0       -3.050744    2.088648    3.524540
     73          1           0       -3.562835    0.537655    3.713611
     74          1           0       -2.236560   -1.614290   -0.230982
     75          1           0       -2.167159    0.060920   -0.646184
     76          1           0       -0.349675    0.439448    0.990180
     77          1           0       -0.144507   -1.140626    1.329334
     78          1           0       -5.534808    7.068967    0.617417
     79          1           0       -5.766060    6.034568    2.357024
     80          1           0       -4.307863    5.648960    1.110759
     81          1           0       -9.489879    5.995669   -0.648151
     82          1           0       -8.944552    8.071451    0.637668
     83          1           0       -7.591506    7.370635    1.426547
     84          1           0      -12.192527    3.311803   -1.917929
     85          1           0      -13.360007    2.183446   -1.647382
     86          1           0      -12.575052    3.123218   -0.246308
     87          1           0      -12.472541   -1.850106   -1.078684
     88          1           0      -13.417403   -0.125766   -1.706235
     89          1           0      -12.990478   -1.955620   -3.407262
     90          1           0      -12.379432   -0.410765   -3.874148
     91          1           0      -11.324890   -1.824095   -3.283958
     92          1           0       -8.689870   -4.909392   -1.947940
     93          1           0       -8.072267   -5.728846   -0.460279
     94          1           0       -9.678348   -4.825005   -0.542323
     95          1           0       -3.599239   -3.682315   -0.390099
     96          1           0       -1.643986   -4.291728    3.620546
     97          1           0       -3.132159   -5.443137    3.717075
     98          1           0       -1.669609   -6.153191    2.916936
     99          1           0        2.867122   -1.980939   -1.639980
    100          1           0        2.742784   -0.301759   -2.158030
    101          1           0        4.321150   -0.858376    0.345142
    102          1           0        4.104665    1.254798   -2.661540
    103          1           0        5.126427    2.516080   -1.812660
    104          1           0        5.891051    1.084287   -2.873942
    105          1           0        6.792422    1.335929    0.229374
    106          1           0        6.334478   -0.294437    0.662330
    107          1           0        7.606724   -1.096884   -1.575655
    108          1           0        7.487188    0.733467   -1.765487
    109          1           0        8.849646    0.872862    0.323886
    110          1           0        8.728379   -0.887033    0.713643
    111          1           0       10.437091    0.124396   -2.052277
    112          1           0        9.224620   -2.192254   -2.127295
    113          1           0       10.963262   -2.323287   -2.024068
    114          1           0        9.955671   -2.844422   -0.684387
    115          1           0       11.359638    0.743914    0.283109
    116          1           0       11.231035   -0.879110    0.954595
    117          1           0       13.165978   -1.446681   -0.935958
    118          1           0       12.759101    0.121204   -1.651793
    119          1           0       13.639784    1.027154    0.374560
    120          1           0       13.979380   -0.579546    1.070950
    121          1           0       15.258725    0.368642   -1.465593
    122          1           0       15.832084   -2.137974    0.015636
    123          1           0       14.871491   -2.063766   -1.758927
    124          1           0       16.607657   -1.601058   -1.228730
    125          1           0       16.056498    1.336756    0.722235
    126          1           0       16.183912   -0.390452    1.170604
    127          1           0       18.049101   -0.386290   -0.713985
    128          1           0       17.494108    1.233910   -0.996935
    129          1           0       18.207177    2.073861    1.385028
    130          1           0       18.510433    0.594047    1.777608
    131          1           0       20.430353    0.436088    0.039638
    132          1           0       19.915005    3.243240   -0.825714
    133          1           0       21.494700    2.286061   -1.341777
    134          1           0       19.722771    1.616834   -1.926283
    135          1           0       21.183110    1.369438    2.297159
    136          1           0       22.205994    2.188487    1.239453
    137          1           0       20.779136    3.094115    1.741952
 ---------------------------------------------------------------------

 SCF Done:  E(RCAM-B3LYP) =  -2933.43893003     A.U. after   16 cycles

 Excitation energies and oscillator strengths:

 Excited State   1:      Singlet-A      1.9945 eV  621.64 nm  f=0.3047  <S**2>=0.000
     240 -> 243       -0.21741
     241 -> 242        0.66485
 This state for optimization and/or second-order correction.
 Total Energy, E(TD-HF/TD-DFT) =  -2933.36563435
 Copying the excited state density for this state as the 1-particle RhoCI density.

 The electronic state is 1-A.
 Alpha  occ. eigenvalues --  -46.79458 -19.21671 -19.21057 -19.16709 -19.15947
 Alpha  occ. eigenvalues --  -19.13423 -14.37420 -14.35727 -14.35192 -14.34670
 Alpha  occ. eigenvalues --  -10.34396 -10.32494 -10.30894 -10.29434 -10.27311
 Alpha  occ. eigenvalues --  -10.26069 -10.26041 -10.25854 -10.25629 -10.25510
 Alpha  occ. eigenvalues --  -10.25178 -10.24753 -10.24644 -10.24627 -10.24513
 Alpha  occ. eigenvalues --  -10.24379 -10.24253 -10.24057 -10.24052 -10.23935
 Alpha  occ. eigenvalues --  -10.23867 -10.23826 -10.23718 -10.23505 -10.23267
 Alpha  occ. eigenvalues --  -10.23120 -10.23076 -10.22985 -10.22578 -10.22532
 Alpha  occ. eigenvalues --  -10.22425 -10.22378 -10.22318 -10.22272 -10.22121
 Alpha  occ. eigenvalues --  -10.21931 -10.21926 -10.21752 -10.21736 -10.21637
 Alpha  occ. eigenvalues --  -10.21535 -10.21507 -10.21343 -10.21336 -10.21198
 Alpha  occ. eigenvalues --  -10.20934 -10.20900 -10.20818 -10.20643 -10.20515
 Alpha  occ. eigenvalues --  -10.20333 -10.20018 -10.20002 -10.19880 -10.18779
 Alpha  occ. eigenvalues --   -3.08134  -1.83072  -1.82592  -1.82559  -1.15603
 Alpha  occ. eigenvalues --   -1.11444  -1.03971  -1.03868  -1.03467  -0.99629
 Alpha  occ. eigenvalues --   -0.99108  -0.97655  -0.95502  -0.87282  -0.87009
 Alpha  occ. eigenvalues --   -0.86727  -0.85183  -0.84423  -0.84131  -0.83577
 Alpha  occ. eigenvalues --   -0.83279  -0.83050  -0.82540  -0.82258  -0.81247
 Alpha  occ. eigenvalues --   -0.80351  -0.79273  -0.78971  -0.78619  -0.77275
 Alpha  occ. eigenvalues --   -0.77058  -0.75821  -0.75711  -0.75098  -0.73556
 Alpha  occ. eigenvalues --   -0.72703  -0.72065  -0.71851  -0.71420  -0.70683
 Alpha  occ. eigenvalues --   -0.70590  -0.70544  -0.69869  -0.69367  -0.68583
 Alpha  occ. eigenvalues --   -0.67254  -0.66120  -0.65409  -0.63806  -0.63555
 Alpha  occ. eigenvalues --   -0.63038  -0.62397  -0.60859  -0.60423  -0.60134
 Alpha  occ. eigenvalues --   -0.59839  -0.59709  -0.59039  -0.58720  -0.57691
 Alpha  occ. eigenvalues --   -0.57564  -0.56961  -0.56171  -0.55903  -0.55246
 Alpha  occ. eigenvalues --   -0.54931  -0.54353  -0.53508  -0.52928  -0.52636
 Alpha  occ. eigenvalues --   -0.52275  -0.51750  -0.51566  -0.51292  -0.50630
 Alpha  occ. eigenvalues --   -0.50506  -0.50039  -0.49688  -0.49551  -0.49182
 Alpha  occ. eigenvalues --   -0.48898  -0.48628  -0.48417  -0.48219  -0.48087
 Alpha  occ. eigenvalues --   -0.47582  -0.47282  -0.47084  -0.46733  -0.46622
 Alpha  occ. eigenvalues --   -0.46489  -0.46182  -0.46076  -0.45998  -0.45706
 Alpha  occ. eigenvalues --   -0.45351  -0.45147  -0.44939  -0.44774  -0.44668
 Alpha  occ. eigenvalues --   -0.44366  -0.44165  -0.44114  -0.43857  -0.43627
 Alpha  occ. eigenvalues --   -0.43479  -0.43355  -0.42925  -0.42798  -0.42665
 Alpha  occ. eigenvalues --   -0.42325  -0.42223  -0.42018  -0.41923  -0.41737
 Alpha  occ. eigenvalues --   -0.41477  -0.41418  -0.41336  -0.40731  -0.40572
 Alpha  occ. eigenvalues --   -0.40501  -0.40385  -0.40209  -0.40076  -0.39806
 Alpha  occ. eigenvalues --   -0.39789  -0.39287  -0.39174  -0.38804  -0.38711
 Alpha  occ. eigenvalues --   -0.38539  -0.38308  -0.38000  -0.37902  -0.37709
 Alpha  occ. eigenvalues --   -0.37559  -0.37511  -0.37131  -0.37046  -0.36970
 Alpha  occ. eigenvalues --   -0.36787  -0.36503  -0.36277  -0.36122  -0.35945
 Alpha  occ. eigenvalues --   -0.35754  -0.35411  -0.35321  -0.34896  -0.34760
 Alpha  occ. eigenvalues --   -0.34450  -0.34236  -0.33902  -0.33745  -0.33226
 Alpha  occ. eigenvalues --   -0.33060  -0.32564  -0.32414  -0.32368  -0.32165
 Alpha  occ. eigenvalues --   -0.32124  -0.31924  -0.31370  -0.30527  -0.30291
 Alpha  occ. eigenvalues --   -0.30285  -0.29633  -0.28584  -0.28396  -0.27469
 Alpha  occ. eigenvalues --   -0.26644  -0.26376  -0.25497  -0.25111  -0.21601
 Alpha  occ. eigenvalues --   -0.20073
 Alpha virt. eigenvalues --   -0.07504  -0.03731   0.00236   0.01883   0.02762
 Alpha virt. eigenvalues --    0.03473   0.04596   0.05227   0.05847   0.06544
 Alpha virt. eigenvalues --    0.07534   0.08689   0.09248   0.09500   0.09826

 Mulliken charges:
               1
     1  Mg   0.809938
     2  C    0.052455
     3  C   -0.131192
     4  C   -0.173510
     5  C   -0.149893
     6  N   -0.651355
     7  C    0.350242
     8  C   -0.161638
     9  C   -0.155749
    10  C    0.288483
    11  C   -0.298421
    12  C   -0.137842
    13  C   -0.281822
    14  C    0.572620
    15  O   -0.469649
    16  O   -0.427902
    17  N   -0.706386
    18  C    0.316197
    19  C   -0.015832
    20  C    0.039050
    21  C    0.286416
    22  C   -0.345859
    23  C   -0.098150
    24  C   -0.244597
    25  N   -0.685436
    26  C    0.307196
    27  C    0.049801
    28  C    0.011401
    29  C    0.310894
    30  C   -0.378140
    31  C   -0.212683
    32  C   -0.295640
    33  N   -0.728566
    34  C    0.241620
    35  C    0.052260
    36  C    0.005635
    37  C    0.333611
    38  C   -0.384227
    39  C    0.323694
    40  O   -0.473426
    41  C   -0.326436
    42  C    0.655938
    43  O   -0.473624
    44  O   -0.454092
    45  C   -0.073551
    46  C    0.000148
    47  C   -0.132599
    48  C    0.143215
    49  C   -0.361766
    50  C   -0.226423
    51  C   -0.175777
    52  C   -0.163726
    53  C   -0.035192
    54  C   -0.308854
    55  C   -0.160438
    56  C   -0.185174
    57  C   -0.163620
    58  C   -0.078912
    59  C   -0.298538
    60  C   -0.177790
    61  C   -0.172044
    62  C   -0.176748
    63  C   -0.022327
    64  C   -0.288202
    65  C   -0.306034
    66  H    0.057421
    67  H    0.078815
    68  H    0.055996
    69  H    0.106571
    70  H    0.090974
    71  H    0.102796
    72  H    0.110880
    73  H    0.138463
    74  H    0.114701
    75  H    0.112325
    76  H    0.129707
    77  H    0.096519
    78  H    0.129431
    79  H    0.111769
    80  H    0.105571
    81  H    0.099786
    82  H    0.098297
    83  H    0.104645
    84  H    0.137937
    85  H    0.117689
    86  H    0.098520
    87  H    0.068045
    88  H    0.089926
    89  H    0.100248
    90  H    0.107815
    91  H    0.104019
    92  H    0.115008
    93  H    0.157889
    94  H    0.125372
    95  H    0.172510
    96  H    0.095779
    97  H    0.124486
    98  H    0.125020
    99  H    0.119182
   100  H    0.136185
   101  H    0.094636
   102  H    0.114993
   103  H    0.108717
   104  H    0.129874
   105  H    0.083449
   106  H    0.100365
   107  H    0.093360
   108  H    0.083470
   109  H    0.088874
   110  H    0.079587
   111  H    0.050496
   112  H    0.120631
   113  H    0.118258
   114  H    0.052532
   115  H    0.101898
   116  H    0.097084
   117  H    0.097446
   118  H    0.089872
   119  H    0.071657
   120  H    0.083228
   121  H    0.057420
   122  H    0.068742
   123  H    0.092517
   124  H    0.109928
   125  H    0.099387
   126  H    0.088339
   127  H    0.074675
   128  H    0.114548
   129  H    0.078089
   130  H    0.113119
   131  H    0.116804
   132  H    0.082450
   133  H    0.088749
   134  H    0.077958
   135  H    0.116432
   136  H    0.106719
   137  H    0.032376
 Sum of Mulliken charges =  -0.00000

 Dipole moment (field-independent basis, Debye):
    X=              2.6541    Y=              4.8496    Z=             -0.1248  Tot=              5.5297
 Quadrupole moment (field-independent basis, Debye-Ang):
   XX=           -329.3697   YY=           -394.0672   ZZ=           -397.9657
   XY=            -30.9858   XZ=             16.5838   YZ=              1.6780

 Normal termination of Gaussian 16 at Tue Sep  3 18:49:41 2019.
