 Gaussian 16, Revision A.03,
 Gaussian 16:  ES64L-G16RevA.03 25-Dec-2016

 ----------------------------------------------------------------------
 # td=(NStates=1) iop(3/107=0140000000,3/108=0140000000) CAM-B3LYP/6-31
 G(d,p)
 ----------------------------------------------------------------------

 --
 TD
 --
 Symbolic Z-matrix:
 Charge =  0 Multiplicity = 1

                         Standard orientation:
 ---------------------------------------------------------------------
 Center     Atomic      Atomic             Coordinates (Angstroms)
 Number     Number       Type             X           Y           Z
 ---------------------------------------------------------------------
      1         12           0       -7.175650    0.689758    0.010710
      2          6           0       -4.900929   -1.883016    0.471651
      3          6           0       -4.804517    2.834808    1.190379
      4          6           0       -9.455090    3.088473   -0.437564
      5          6           0       -9.575493   -1.758594   -0.760621
      6          7           0       -5.074668    0.403194    0.609902
      7          6           0       -4.286579   -0.675058    0.739331
      8          6           0       -2.893442   -0.436421    1.253892
      9          6           0       -2.986343    1.073046    1.669737
     10          6           0       -4.370997    1.516871    1.064653
     11          6           0       -2.859660    1.277155    3.238176
     12          6           0       -1.869920   -0.563916    0.045519
     13          6           0       -0.468094   -0.461233    0.474510
     14          6           0        0.526071   -0.758453   -0.614989
     15          8           0        0.234817   -1.140768   -1.803070
     16          8           0        1.819548   -0.496195   -0.166759
     17          7           0       -7.134976    2.714043    0.497395
     18          6           0       -5.989813    3.438303    0.852019
     19          6           0       -6.410518    4.800811    0.878157
     20          6           0       -7.756829    4.868285    0.349258
     21          6           0       -8.181834    3.512239    0.124189
     22          6           0       -5.424734    5.862473    1.206703
     23          6           0       -8.623198    6.081560    0.236520
     24          6           0       -8.439380    7.321403    0.737717
     25          7           0       -9.137409    0.683364   -0.554775
     26          6           0       -9.862666    1.810508   -0.640672
     27          6           0      -11.218575    1.494100   -1.083453
     28          6           0      -11.243959    0.117032   -1.337049
     29          6           0       -9.988597   -0.426574   -0.932827
     30          6           0      -12.304880    2.494234   -1.336138
     31          6           0      -12.376494   -0.713657   -1.834589
     32          6           0      -12.229906   -0.980645   -3.333076
     33          7           0       -7.183336   -1.445282   -0.230852
     34          6           0       -8.242929   -2.197177   -0.561838
     35          6           0       -7.942929   -3.634280   -0.377617
     36          6           0       -6.566904   -3.587432    0.060813
     37          6           0       -6.192560   -2.206158    0.091336
     38          6           0       -8.589547   -4.895681   -0.775225
     39          6           0       -5.446827   -4.360706    0.352896
     40          8           0       -5.280047   -5.586704    0.327479
     41          6           0       -4.269284   -3.346427    0.615579
     42          6           0       -3.491567   -3.693569    1.873946
     43          8           0       -3.655211   -3.051460    2.891695
     44          8           0       -2.861606   -4.804064    1.747892
     45          6           0       -2.192977   -5.253696    2.898089
     46          6           0        2.807139   -0.721892   -1.210431
     47          6           0        4.090267   -0.545319   -0.578706
     48          6           0        5.060225    0.244666   -1.070118
     49          6           0        5.027141    1.038236   -2.323491
     50          6           0        6.397434    0.399140   -0.252070
     51          6           0        7.691377   -0.210501   -0.982977
     52          6           0        9.023126    0.020625   -0.214955
     53          6           0       10.219590   -0.481779   -0.894660
     54          6           0       10.136359   -1.939064   -1.393793
     55          6           0       11.473489   -0.243556   -0.006818
     56          6           0       12.803694   -0.632429   -0.712968
     57          6           0       14.059524   -0.130876    0.127877
     58          6           0       15.437813   -0.307637   -0.403189
     59          6           0       15.842371   -1.787721   -0.623957
     60          6           0       16.374666    0.341923    0.496651
     61          6           0       17.765490    0.578172   -0.156539
     62          6           0       18.814748    1.345812    0.770685
     63          6           0       20.215110    1.421927    0.194121
     64          6           0       20.195365    2.269696   -1.111863
     65          6           0       21.164564    2.001653    1.234955
     66          1           0       -4.018095    3.500136    1.648487
     67          1           0      -10.253027    3.827991   -0.626114
     68          1           0      -10.391286   -2.564324   -0.943884
     69          1           0       -2.602472   -1.024482    2.126588
     70          1           0       -2.255158    1.529059    1.130492
     71          1           0       -1.669772    0.860348    3.314962
     72          1           0       -3.035158    2.146200    3.433595
     73          1           0       -3.524656    0.632826    3.699861
     74          1           0       -2.129041   -1.651748   -0.303179
     75          1           0       -2.396002    0.173439   -0.676490
     76          1           0       -0.444733    0.641036    0.800851
     77          1           0       -0.343258   -1.229624    1.340841
     78          1           0       -5.578393    6.692841    0.534934
     79          1           0       -5.319836    6.362871    2.156533
     80          1           0       -4.419251    5.310180    0.965122
     81          1           0       -9.355585    5.987873   -0.636316
     82          1           0       -9.312217    8.086663    0.613740
     83          1           0       -7.643289    7.410329    1.500525
     84          1           0      -12.006066    3.346746   -2.179749
     85          1           0      -13.358468    1.865763   -1.736045
     86          1           0      -12.761089    2.988504   -0.441655
     87          1           0      -12.310840   -1.760720   -1.316878
     88          1           0      -13.545992   -0.380571   -1.508825
     89          1           0      -12.841751   -1.900168   -3.819816
     90          1           0      -12.347512   -0.191121   -4.074150
     91          1           0      -11.373766   -1.593125   -3.412972
     92          1           0       -9.100365   -4.875955   -1.708927
     93          1           0       -8.046564   -5.735667   -0.657562
     94          1           0       -9.469942   -5.097712    0.143608
     95          1           0       -3.572894   -3.595791   -0.048797
     96          1           0       -1.787657   -4.420228    3.514648
     97          1           0       -2.874884   -5.568472    3.615114
     98          1           0       -1.497830   -5.915962    2.557827
     99          1           0        2.597433   -1.634373   -1.628674
    100          1           0        2.721215    0.159371   -1.986619
    101          1           0        4.369027   -1.214479    0.347964
    102          1           0        4.028274    1.073052   -2.682825
    103          1           0        5.320575    2.025156   -2.153344
    104          1           0        5.768964    0.694975   -3.148001
    105          1           0        6.715852    1.502407   -0.177464
    106          1           0        6.365580    0.062137    0.699084
    107          1           0        7.638228   -1.322767   -1.193421
    108          1           0        7.833690    0.259797   -2.121299
    109          1           0        9.171631    1.115929    0.110211
    110          1           0        8.923785   -0.383470    0.751605
    111          1           0       10.362558    0.154716   -1.876152
    112          1           0        9.383947   -2.034318   -2.049967
    113          1           0       10.888186   -2.121997   -2.031719
    114          1           0       10.119598   -2.786439   -0.772137
    115          1           0       11.382373    0.914038    0.322659
    116          1           0       11.529782   -0.684071    0.885844
    117          1           0       12.789766   -1.695819   -0.738417
    118          1           0       12.973015   -0.130078   -1.662153
    119          1           0       13.880120    0.846043    0.509558
    120          1           0       13.762715   -0.769154    1.102457
    121          1           0       15.844558    0.318976   -1.287299
    122          1           0       16.163617   -2.296680    0.323501
    123          1           0       14.988028   -2.319453   -1.146668
    124          1           0       16.790760   -1.931533   -1.215370
    125          1           0       16.035333    1.449124    0.480573
    126          1           0       16.437218   -0.027569    1.405348
    127          1           0       18.324679   -0.413264   -0.321164
    128          1           0       17.480446    1.005873   -1.191558
    129          1           0       18.465597    2.378561    1.090929
    130          1           0       18.948815    0.602391    1.678048
    131          1           0       20.658370    0.502186    0.095257
    132          1           0       19.755872    3.352059   -0.937790
    133          1           0       21.307470    2.571408   -1.455598
    134          1           0       19.656470    1.894165   -1.935035
    135          1           0       21.152920    1.322278    2.163445
    136          1           0       22.128604    2.147993    0.934401
    137          1           0       20.676750    2.906802    1.724295
 ---------------------------------------------------------------------

 SCF Done:  E(RCAM-B3LYP) =  -2933.50216079     A.U. after   16 cycles

 Excitation energies and oscillator strengths:

 Excited State   1:      Singlet-A      2.0137 eV  615.70 nm  f=0.2566  <S**2>=0.000
     240 -> 243       -0.24611
     241 -> 242        0.65783
 This state for optimization and/or second-order correction.
 Total Energy, E(TD-HF/TD-DFT) =  -2933.42815868
 Copying the excited state density for this state as the 1-particle RhoCI density.

 The electronic state is 1-A.
 Alpha  occ. eigenvalues --  -46.81415 -19.23118 -19.22413 -19.17404 -19.15420
 Alpha  occ. eigenvalues --  -19.14835 -14.38258 -14.35295 -14.35210 -14.34985
 Alpha  occ. eigenvalues --  -10.35617 -10.33525 -10.29089 -10.26874 -10.26710
 Alpha  occ. eigenvalues --  -10.26194 -10.25773 -10.25680 -10.25628 -10.25432
 Alpha  occ. eigenvalues --  -10.25172 -10.24961 -10.24957 -10.24770 -10.24670
 Alpha  occ. eigenvalues --  -10.24354 -10.24252 -10.23910 -10.23580 -10.23575
 Alpha  occ. eigenvalues --  -10.23191 -10.23151 -10.23125 -10.22900 -10.22805
 Alpha  occ. eigenvalues --  -10.22754 -10.22722 -10.22683 -10.22661 -10.22598
 Alpha  occ. eigenvalues --  -10.22574 -10.22509 -10.22391 -10.22311 -10.22226
 Alpha  occ. eigenvalues --  -10.22128 -10.22068 -10.22041 -10.21988 -10.21690
 Alpha  occ. eigenvalues --  -10.21490 -10.21374 -10.21372 -10.21329 -10.21214
 Alpha  occ. eigenvalues --  -10.21099 -10.21015 -10.20861 -10.20784 -10.20596
 Alpha  occ. eigenvalues --  -10.20576 -10.20453 -10.19965 -10.19331 -10.17791
 Alpha  occ. eigenvalues --   -3.09673  -1.84638  -1.84141  -1.84054  -1.16085
 Alpha  occ. eigenvalues --   -1.11110  -1.04427  -1.03942  -1.02084  -1.00809
 Alpha  occ. eigenvalues --   -0.98826  -0.97655  -0.96746  -0.87016  -0.86321
 Alpha  occ. eigenvalues --   -0.86062  -0.85510  -0.84849  -0.84401  -0.83622
 Alpha  occ. eigenvalues --   -0.83368  -0.82650  -0.82387  -0.82253  -0.81265
 Alpha  occ. eigenvalues --   -0.80243  -0.79832  -0.79045  -0.78094  -0.77613
 Alpha  occ. eigenvalues --   -0.77295  -0.76502  -0.76039  -0.75075  -0.74368
 Alpha  occ. eigenvalues --   -0.73315  -0.72885  -0.72650  -0.71550  -0.70678
 Alpha  occ. eigenvalues --   -0.70611  -0.70502  -0.69953  -0.68968  -0.68445
 Alpha  occ. eigenvalues --   -0.67222  -0.65830  -0.65153  -0.64724  -0.64462
 Alpha  occ. eigenvalues --   -0.62277  -0.61832  -0.61498  -0.61258  -0.60659
 Alpha  occ. eigenvalues --   -0.60226  -0.59354  -0.59190  -0.59009  -0.58936
 Alpha  occ. eigenvalues --   -0.58126  -0.56518  -0.56078  -0.55385  -0.55188
 Alpha  occ. eigenvalues --   -0.54703  -0.54309  -0.53687  -0.53521  -0.53120
 Alpha  occ. eigenvalues --   -0.52899  -0.52438  -0.51730  -0.51524  -0.51385
 Alpha  occ. eigenvalues --   -0.50848  -0.50476  -0.50464  -0.49874  -0.49192
 Alpha  occ. eigenvalues --   -0.48998  -0.48570  -0.48266  -0.48094  -0.47792
 Alpha  occ. eigenvalues --   -0.47756  -0.47566  -0.47497  -0.47191  -0.46761
 Alpha  occ. eigenvalues --   -0.46516  -0.46401  -0.46162  -0.46046  -0.45866
 Alpha  occ. eigenvalues --   -0.45578  -0.45336  -0.45267  -0.45057  -0.44804
 Alpha  occ. eigenvalues --   -0.44579  -0.44510  -0.44265  -0.44112  -0.43569
 Alpha  occ. eigenvalues --   -0.43413  -0.43332  -0.42963  -0.42878  -0.42518
 Alpha  occ. eigenvalues --   -0.42429  -0.42251  -0.42065  -0.41800  -0.41733
 Alpha  occ. eigenvalues --   -0.41708  -0.41468  -0.41118  -0.40795  -0.40542
 Alpha  occ. eigenvalues --   -0.40372  -0.40148  -0.39993  -0.39908  -0.39692
 Alpha  occ. eigenvalues --   -0.39539  -0.39402  -0.39321  -0.39053  -0.38978
 Alpha  occ. eigenvalues --   -0.38663  -0.38428  -0.38322  -0.38217  -0.38080
 Alpha  occ. eigenvalues --   -0.37806  -0.37504  -0.37429  -0.37342  -0.36860
 Alpha  occ. eigenvalues --   -0.36566  -0.36272  -0.36252  -0.36153  -0.35784
 Alpha  occ. eigenvalues --   -0.35687  -0.35578  -0.34920  -0.34740  -0.34589
 Alpha  occ. eigenvalues --   -0.34373  -0.34158  -0.34013  -0.33876  -0.33550
 Alpha  occ. eigenvalues --   -0.33277  -0.33194  -0.32957  -0.32892  -0.32687
 Alpha  occ. eigenvalues --   -0.32477  -0.32217  -0.32061  -0.30671  -0.30380
 Alpha  occ. eigenvalues --   -0.30274  -0.29909  -0.29438  -0.28606  -0.27231
 Alpha  occ. eigenvalues --   -0.26639  -0.26060  -0.25812  -0.24163  -0.21602
 Alpha  occ. eigenvalues --   -0.20582
 Alpha virt. eigenvalues --   -0.07802  -0.04303  -0.00545   0.01544   0.02300
 Alpha virt. eigenvalues --    0.03715   0.04031   0.04585   0.05077   0.05404
 Alpha virt. eigenvalues --    0.06210   0.08263   0.08507   0.09745   0.09789

 Mulliken charges:
               1
     1  Mg   0.816741
     2  C    0.083541
     3  C   -0.206935
     4  C   -0.165068
     5  C   -0.172657
     6  N   -0.617424
     7  C    0.314298
     8  C   -0.163438
     9  C   -0.153731
    10  C    0.307289
    11  C   -0.262360
    12  C   -0.163551
    13  C   -0.254164
    14  C    0.617316
    15  O   -0.488564
    16  O   -0.478883
    17  N   -0.739183
    18  C    0.335578
    19  C    0.020410
    20  C   -0.024940
    21  C    0.336613
    22  C   -0.393444
    23  C   -0.063231
    24  C   -0.256564
    25  N   -0.732621
    26  C    0.373899
    27  C    0.043607
    28  C    0.063171
    29  C    0.277691
    30  C   -0.382985
    31  C   -0.257445
    32  C   -0.300603
    33  N   -0.697914
    34  C    0.262312
    35  C    0.031821
    36  C    0.057983
    37  C    0.276237
    38  C   -0.363311
    39  C    0.317989
    40  O   -0.492038
    41  C   -0.311422
    42  C    0.585075
    43  O   -0.493293
    44  O   -0.388405
    45  C   -0.098924
    46  C    0.019869
    47  C   -0.118405
    48  C    0.128033
    49  C   -0.367690
    50  C   -0.222014
    51  C   -0.177902
    52  C   -0.160945
    53  C   -0.039350
    54  C   -0.331295
    55  C   -0.169848
    56  C   -0.192915
    57  C   -0.178331
    58  C   -0.017821
    59  C   -0.319775
    60  C   -0.158943
    61  C   -0.189351
    62  C   -0.159160
    63  C   -0.037559
    64  C   -0.302952
    65  C   -0.309852
    66  H    0.083617
    67  H    0.090490
    68  H    0.091756
    69  H    0.127446
    70  H    0.103291
    71  H    0.075589
    72  H    0.113046
    73  H    0.139629
    74  H    0.103777
    75  H    0.111227
    76  H    0.134236
    77  H    0.138387
    78  H    0.128547
    79  H    0.125207
    80  H    0.096367
    81  H    0.081728
    82  H    0.102310
    83  H    0.099366
    84  H    0.105501
    85  H    0.080127
    86  H    0.133109
    87  H    0.096718
    88  H    0.081968
    89  H    0.069910
    90  H    0.124376
    91  H    0.122232
    92  H    0.133534
    93  H    0.163487
    94  H    0.081156
    95  H    0.147624
    96  H    0.122708
    97  H    0.141718
    98  H    0.129381
    99  H    0.140771
   100  H    0.104230
   101  H    0.083252
   102  H    0.108856
   103  H    0.127489
   104  H    0.120200
   105  H    0.091952
   106  H    0.105920
   107  H    0.099928
   108  H    0.056228
   109  H    0.074113
   110  H    0.096836
   111  H    0.070959
   112  H    0.106250
   113  H    0.111887
   114  H    0.104414
   115  H    0.056111
   116  H    0.101390
   117  H    0.108844
   118  H    0.093820
   119  H    0.097062
   120  H    0.060892
   121  H    0.067838
   122  H    0.096660
   123  H    0.096405
   124  H    0.099313
   125  H    0.076817
   126  H    0.092301
   127  H    0.079317
   128  H    0.081490
   129  H    0.086885
   130  H    0.074137
   131  H    0.100086
   132  H    0.083101
   133  H    0.073791
   134  H    0.116666
   135  H    0.082950
   136  H    0.109955
   137  H    0.089051
 Sum of Mulliken charges =  -0.00000

 Dipole moment (field-independent basis, Debye):
    X=              2.2359    Y=              2.6975    Z=              0.4901  Tot=              3.5378
 Quadrupole moment (field-independent basis, Debye-Ang):
   XX=           -349.8650   YY=           -398.5433   ZZ=           -398.2277
   XY=            -20.3439   XZ=             14.1325   YZ=             -3.1738

 Normal termination of Gaussian 16 at Mon Sep 16 23:53:42 2019.
