 Gaussian 09, Revision D.01,
 Gaussian 09:  ES64L-G09RevD.01 24-Apr-2013

 -------------------------------------
 # td=(NStates=1) CAM-B3LYP/6-31G(d,p)
 -------------------------------------

 --
 TD
 --
 Symbolic Z-matrix:
 Charge =  0 Multiplicity = 1

                         Standard orientation:
 ---------------------------------------------------------------------
 Center     Atomic      Atomic             Coordinates (Angstroms)
 Number     Number       Type             X           Y           Z
 ---------------------------------------------------------------------
      1         12           0       -7.130169    0.567668    0.104899
      2          6           0       -4.859946   -1.931735    0.520881
      3          6           0       -4.881523    2.812041    1.194955
      4          6           0       -9.362208    3.128409   -0.337178
      5          6           0       -9.644665   -1.702064   -0.868283
      6          7           0       -5.161357    0.440101    0.811149
      7          6           0       -4.347020   -0.724501    0.814091
      8          6           0       -2.869940   -0.413545    1.224268
      9          6           0       -2.985385    1.136678    1.697496
     10          6           0       -4.379390    1.462609    1.177453
     11          6           0       -2.942292    1.340885    3.234440
     12          6           0       -1.901716   -0.611711    0.039311
     13          6           0       -0.495532   -0.527883    0.429058
     14          6           0        0.585169   -0.738285   -0.609804
     15          8           0        0.295839   -1.050270   -1.667016
     16          8           0        1.816603   -0.400841   -0.185952
     17          7           0       -7.088680    2.637297    0.259723
     18          6           0       -6.083980    3.376940    0.765980
     19          6           0       -6.396292    4.744018    0.724594
     20          6           0       -7.743817    4.830556    0.360502
     21          6           0       -8.142992    3.513696    0.036021
     22          6           0       -5.467729    5.769909    1.088064
     23          6           0       -8.534891    6.014034    0.132100
     24          6           0       -8.449239    7.162436    0.848966
     25          7           0       -9.206935    0.692997   -0.511241
     26          6           0       -9.868188    1.859542   -0.638445
     27          6           0      -11.186694    1.427621   -1.125745
     28          6           0      -11.293918    0.115807   -1.251150
     29          6           0      -10.007550   -0.376881   -0.905558
     30          6           0      -12.334601    2.376077   -1.475933
     31          6           0      -12.393765   -0.762210   -1.670298
     32          6           0      -12.373095   -1.095680   -3.175268
     33          7           0       -7.301850   -1.444360   -0.159005
     34          6           0       -8.374368   -2.260118   -0.504318
     35          6           0       -7.899894   -3.623128   -0.569826
     36          6           0       -6.520504   -3.535582   -0.212788
     37          6           0       -6.240774   -2.185741    0.103983
     38          6           0       -8.548441   -4.889559   -0.928304
     39          6           0       -5.309656   -4.329007    0.150870
     40          8           0       -5.259123   -5.569902    0.197884
     41          6           0       -4.218749   -3.204080    0.620560
     42          6           0       -3.478493   -3.675471    1.901076
     43          8           0       -3.775664   -3.224463    2.977196
     44          8           0       -2.654690   -4.747298    1.667642
     45          6           0       -1.977446   -5.121033    2.985091
     46          6           0        2.789670   -0.564168   -1.220510
     47          6           0        4.043088   -0.392257   -0.567960
     48          6           0        5.032317    0.396692   -1.026656
     49          6           0        5.067780    1.194368   -2.242779
     50          6           0        6.500354    0.367969   -0.274097
     51          6           0        7.614696   -0.157566   -1.034765
     52          6           0        8.922660   -0.161309   -0.111060
     53          6           0       10.227256   -0.496266   -0.820361
     54          6           0       10.359879   -2.057256   -1.179810
     55          6           0       11.445631   -0.208672    0.027715
     56          6           0       12.758170   -0.425806   -0.571944
     57          6           0       13.969556    0.052233    0.240328
     58          6           0       15.393667   -0.237207   -0.357942
     59          6           0       15.604306   -1.632163   -0.718309
     60          6           0       16.466443    0.280766    0.487068
     61          6           0       17.826224    0.569519   -0.213144
     62          6           0       18.867893    1.304214    0.662116
     63          6           0       20.319869    1.241188    0.095739
     64          6           0       20.262562    2.043785   -1.205256
     65          6           0       21.261426    1.906719    1.119526
     66          1           0       -4.285517    3.448481    1.676625
     67          1           0      -10.049894    3.969467   -0.520427
     68          1           0      -10.397504   -2.340831   -1.231335
     69          1           0       -2.552568   -1.115452    2.068783
     70          1           0       -2.272611    1.665297    1.132357
     71          1           0       -1.988056    1.019978    3.629206
     72          1           0       -3.076630    2.406377    3.619558
     73          1           0       -3.826831    0.969864    3.718187
     74          1           0       -2.255537   -1.683358   -0.399006
     75          1           0       -2.087252    0.003720   -0.851404
     76          1           0       -0.213172    0.489641    0.822956
     77          1           0       -0.350483   -1.448015    1.183615
     78          1           0       -5.711595    6.826133    0.748052
     79          1           0       -5.403027    5.754064    2.354160
     80          1           0       -4.569606    5.688159    0.901658
     81          1           0       -9.498087    5.883625   -0.459406
     82          1           0       -9.202809    8.107734    0.699207
     83          1           0       -7.658807    7.411400    1.662215
     84          1           0      -11.857743    3.419274   -1.945251
     85          1           0      -13.103623    1.857636   -2.397177
     86          1           0      -13.080295    2.688247   -0.503502
     87          1           0      -12.466497   -1.654797   -1.038666
     88          1           0      -13.394434   -0.190834   -1.555140
     89          1           0      -12.962678   -1.955884   -3.420337
     90          1           0      -12.675700   -0.215566   -3.810221
     91          1           0      -11.380083   -1.407399   -3.634527
     92          1           0       -9.051874   -4.869342   -1.979636
     93          1           0       -7.809056   -5.716294   -0.710790
     94          1           0       -9.400414   -5.056206   -0.102302
     95          1           0       -3.402102   -3.361124   -0.094251
     96          1           0       -1.667992   -4.228613    3.377980
     97          1           0       -2.899443   -5.621906    3.510301
     98          1           0       -1.279920   -5.893440    2.712384
     99          1           0        2.625891   -1.464564   -1.732677
    100          1           0        2.459801    0.253364   -2.065044
    101          1           0        4.284207   -0.960061    0.366934
    102          1           0        4.065924    1.601237   -2.673938
    103          1           0        5.621281    2.150997   -2.086380
    104          1           0        5.763431    0.806027   -3.111526
    105          1           0        6.898600    1.269093    0.096029
    106          1           0        6.127540   -0.222217    0.536217
    107          1           0        7.683336   -1.317117   -1.343855
    108          1           0        7.811173    0.252159   -2.010004
    109          1           0        8.856232    0.872237    0.334482
    110          1           0        8.827921   -0.636497    0.776941
    111          1           0       10.173891    0.127449   -1.673919
    112          1           0        9.433537   -2.440768   -1.456352
    113          1           0       11.144505   -2.432899   -1.894856
    114          1           0       10.512616   -2.667509   -0.102503
    115          1           0       11.420681    0.805419    0.246692
    116          1           0       11.252314   -0.630002    1.047209
    117          1           0       12.838958   -1.525591   -0.836580
    118          1           0       12.762008    0.040674   -1.524061
    119          1           0       14.039249    1.226252    0.370480
    120          1           0       14.115487   -0.486926    1.203934
    121          1           0       15.171212    0.536218   -1.143569
    122          1           0       15.267827   -2.182520    0.202096
    123          1           0       14.813416   -2.064266   -1.364369
    124          1           0       16.622327   -1.841347   -0.906291
    125          1           0       16.192304    1.370451    0.821256
    126          1           0       16.581891   -0.362663    1.375309
    127          1           0       18.177943   -0.276527   -0.490093
    128          1           0       17.516219    1.124803   -1.303821
    129          1           0       18.666710    2.381818    0.943640
    130          1           0       18.823139    0.972919    1.605826
    131          1           0       20.710896    0.095874    0.009348
    132          1           0       19.952779    3.038998   -1.076177
    133          1           0       21.146467    2.249572   -1.550632
    134          1           0       19.564264    1.689799   -2.048419
    135          1           0       21.167122    1.485143    2.257799
    136          1           0       22.259254    1.796102    0.599642
    137          1           0       21.146006    3.035798    1.267607
 ---------------------------------------------------------------------

 SCF Done:  E(RCAM-B3LYP) =  -2932.67333128     A.U. after   17 cycles

 Excitation energies and oscillator strengths:

 Excited State   1:      Singlet-A      2.1418 eV  578.87 nm  f=0.2210  <S**2>=0.000
     240 -> 242       -0.10506
     240 -> 243        0.23479
     241 -> 242        0.64652
 This state for optimization and/or second-order correction.
 Total Energy, E(TD-HF/TD-KS) =  -2932.59461994
 Copying the excited state density for this state as the 1-particle RhoCI density.

 The electronic state is 1-A.
 Alpha  occ. eigenvalues --  -46.84908 -19.26107 -19.26041 -19.21183 -19.20809
 Alpha  occ. eigenvalues --  -19.19801 -14.42080 -14.39157 -14.39002 -14.38632
 Alpha  occ. eigenvalues --  -10.39050 -10.38301 -10.35168 -10.32000 -10.31799
 Alpha  occ. eigenvalues --  -10.31678 -10.30299 -10.30069 -10.29557 -10.29426
 Alpha  occ. eigenvalues --  -10.29019 -10.28922 -10.28781 -10.28673 -10.28560
 Alpha  occ. eigenvalues --  -10.28328 -10.28249 -10.28184 -10.28153 -10.28084
 Alpha  occ. eigenvalues --  -10.27775 -10.27710 -10.27582 -10.27433 -10.27418
 Alpha  occ. eigenvalues --  -10.27274 -10.27167 -10.27126 -10.26975 -10.26773
 Alpha  occ. eigenvalues --  -10.26556 -10.26549 -10.26535 -10.26491 -10.26488
 Alpha  occ. eigenvalues --  -10.26289 -10.26246 -10.26198 -10.26031 -10.25921
 Alpha  occ. eigenvalues --  -10.25785 -10.25746 -10.25719 -10.25031 -10.25014
 Alpha  occ. eigenvalues --  -10.24987 -10.24928 -10.24866 -10.24516 -10.24336
 Alpha  occ. eigenvalues --  -10.24139 -10.24076 -10.24036 -10.23695 -10.23006
 Alpha  occ. eigenvalues --   -3.13734  -1.88464  -1.87978  -1.87883  -1.20873
 Alpha  occ. eigenvalues --   -1.16738  -1.12441  -1.08728  -1.08560  -1.04618
 Alpha  occ. eigenvalues --   -1.03676  -1.03267  -1.02481  -0.92530  -0.91810
 Alpha  occ. eigenvalues --   -0.91286  -0.90345  -0.90162  -0.89909  -0.89703
 Alpha  occ. eigenvalues --   -0.88603  -0.88505  -0.87124  -0.86857  -0.86488
 Alpha  occ. eigenvalues --   -0.85645  -0.84197  -0.83591  -0.83158  -0.82218
 Alpha  occ. eigenvalues --   -0.81961  -0.80930  -0.80719  -0.80402  -0.78391
 Alpha  occ. eigenvalues --   -0.77902  -0.77012  -0.76273  -0.75893  -0.75800
 Alpha  occ. eigenvalues --   -0.75437  -0.74606  -0.73989  -0.73697  -0.72458
 Alpha  occ. eigenvalues --   -0.71706  -0.70320  -0.70094  -0.69426  -0.67722
 Alpha  occ. eigenvalues --   -0.67079  -0.66974  -0.65752  -0.65677  -0.64779
 Alpha  occ. eigenvalues --   -0.64131  -0.64052  -0.63754  -0.63187  -0.61330
 Alpha  occ. eigenvalues --   -0.61256  -0.61155  -0.60579  -0.59800  -0.58867
 Alpha  occ. eigenvalues --   -0.58616  -0.58510  -0.58032  -0.57344  -0.57046
 Alpha  occ. eigenvalues --   -0.56344  -0.56127  -0.55426  -0.55178  -0.55027
 Alpha  occ. eigenvalues --   -0.54663  -0.54313  -0.54046  -0.53459  -0.53085
 Alpha  occ. eigenvalues --   -0.52843  -0.52531  -0.52326  -0.51815  -0.51701
 Alpha  occ. eigenvalues --   -0.51373  -0.51205  -0.50819  -0.50743  -0.50666
 Alpha  occ. eigenvalues --   -0.50576  -0.50378  -0.49991  -0.49862  -0.49516
 Alpha  occ. eigenvalues --   -0.49210  -0.48918  -0.48695  -0.48581  -0.48346
 Alpha  occ. eigenvalues --   -0.48179  -0.47862  -0.47640  -0.47468  -0.46917
 Alpha  occ. eigenvalues --   -0.46790  -0.46622  -0.46534  -0.46136  -0.45999
 Alpha  occ. eigenvalues --   -0.45845  -0.45479  -0.45425  -0.45142  -0.44886
 Alpha  occ. eigenvalues --   -0.44767  -0.44529  -0.44314  -0.44178  -0.44066
 Alpha  occ. eigenvalues --   -0.43942  -0.43610  -0.43563  -0.43511  -0.43183
 Alpha  occ. eigenvalues --   -0.43087  -0.43053  -0.42823  -0.42714  -0.42557
 Alpha  occ. eigenvalues --   -0.42348  -0.42078  -0.42022  -0.41987  -0.41689
 Alpha  occ. eigenvalues --   -0.41570  -0.41199  -0.41163  -0.41147  -0.40487
 Alpha  occ. eigenvalues --   -0.40267  -0.40036  -0.39950  -0.39654  -0.39646
 Alpha  occ. eigenvalues --   -0.39344  -0.38804  -0.38437  -0.38135  -0.37807
 Alpha  occ. eigenvalues --   -0.37741  -0.37398  -0.37381  -0.36665  -0.36434
 Alpha  occ. eigenvalues --   -0.36415  -0.36250  -0.36039  -0.36021  -0.35934
 Alpha  occ. eigenvalues --   -0.35746  -0.35421  -0.34015  -0.33708  -0.33602
 Alpha  occ. eigenvalues --   -0.32825  -0.32005  -0.31972  -0.30849  -0.30075
 Alpha  occ. eigenvalues --   -0.29211  -0.28569  -0.27787  -0.27123  -0.23070
 Alpha  occ. eigenvalues --   -0.21754
 Alpha virt. eigenvalues --   -0.06560  -0.02542   0.01929   0.03832   0.05677
 Alpha virt. eigenvalues --    0.06050   0.06263   0.06331   0.07057   0.07773
 Alpha virt. eigenvalues --    0.08757   0.09927   0.10738   0.11390   0.11773

 Mulliken charges:
               1
     1  Mg   0.815624
     2  C    0.113785
     3  C   -0.223138
     4  C   -0.187429
     5  C   -0.151384
     6  N   -0.636244
     7  C    0.284727
     8  C   -0.153119
     9  C   -0.120704
    10  C    0.339234
    11  C   -0.316540
    12  C   -0.171563
    13  C   -0.253003
    14  C    0.593842
    15  O   -0.419566
    16  O   -0.480219
    17  N   -0.740041
    18  C    0.362276
    19  C    0.048100
    20  C    0.025534
    21  C    0.337631
    22  C   -0.357254
    23  C   -0.088124
    24  C   -0.244553
    25  N   -0.706927
    26  C    0.352265
    27  C   -0.033809
    28  C    0.128698
    29  C    0.273663
    30  C   -0.345012
    31  C   -0.260955
    32  C   -0.313431
    33  N   -0.741423
    34  C    0.258115
    35  C    0.024285
    36  C   -0.026336
    37  C    0.307816
    38  C   -0.388121
    39  C    0.380789
    40  O   -0.477206
    41  C   -0.357513
    42  C    0.614578
    43  O   -0.467476
    44  O   -0.484378
    45  C   -0.084186
    46  C    0.003544
    47  C   -0.121079
    48  C    0.115258
    49  C   -0.378294
    50  C   -0.216225
    51  C   -0.172113
    52  C   -0.194112
    53  C   -0.054975
    54  C   -0.314854
    55  C   -0.157222
    56  C   -0.173301
    57  C   -0.181776
    58  C   -0.047654
    59  C   -0.310167
    60  C   -0.182638
    61  C   -0.152044
    62  C   -0.161292
    63  C   -0.055980
    64  C   -0.300606
    65  C   -0.306604
    66  H    0.050565
    67  H    0.081096
    68  H    0.092668
    69  H    0.119629
    70  H    0.115670
    71  H    0.119910
    72  H    0.102049
    73  H    0.138283
    74  H    0.099103
    75  H    0.118153
    76  H    0.124756
    77  H    0.111528
    78  H    0.115695
    79  H    0.082224
    80  H    0.128847
    81  H    0.100229
    82  H    0.094911
    83  H    0.110656
    84  H    0.088395
    85  H    0.077331
    86  H    0.094276
    87  H    0.115332
    88  H    0.103025
    89  H    0.111309
    90  H    0.108506
    91  H    0.103138
    92  H    0.115283
    93  H    0.156826
    94  H    0.104017
    95  H    0.156409
    96  H    0.147277
    97  H    0.143425
    98  H    0.137216
    99  H    0.144258
   100  H    0.102786
   101  H    0.100568
   102  H    0.103241
   103  H    0.113609
   104  H    0.116072
   105  H    0.108940
   106  H    0.102310
   107  H    0.077330
   108  H    0.102616
   109  H    0.072707
   110  H    0.104923
   111  H    0.088153
   112  H    0.106030
   113  H    0.111011
   114  H    0.068691
   115  H    0.090642
   116  H    0.082242
   117  H    0.086361
   118  H    0.096847
   119  H    0.074421
   120  H    0.079049
   121  H    0.075483
   122  H    0.089424
   123  H    0.105560
   124  H    0.109886
   125  H    0.072490
   126  H    0.082895
   127  H    0.106187
   128  H    0.056909
   129  H    0.079799
   130  H    0.093627
   131  H    0.070766
   132  H    0.106916
   133  H    0.099788
   134  H    0.099452
   135  H    0.086713
   136  H    0.098513
   137  H    0.095871
 Sum of Mulliken charges =   0.00000

 Dipole moment (field-independent basis, Debye):
    X=              2.7778    Y=              5.3223    Z=              0.5589  Tot=              6.0296
 Quadrupole moment (field-independent basis, Debye-Ang):
   XX=           -362.7317   YY=           -395.2614   ZZ=           -395.4382
   XY=            -23.2900   XZ=              8.9059   YZ=             -0.8956

 Normal termination of Gaussian 09 at Fri Jul  5 15:40:50 2019.
