 Gaussian 09, Revision D.01,
 Gaussian 09:  ES64L-G09RevD.01 24-Apr-2013

 -------------------------------------
 # td=(NStates=1) CAM-B3LYP/6-31G(d,p)
 -------------------------------------

 --
 TD
 --
 Symbolic Z-matrix:
 Charge =  0 Multiplicity = 1

                         Standard orientation:
 ---------------------------------------------------------------------
 Center     Atomic      Atomic             Coordinates (Angstroms)
 Number     Number       Type             X           Y           Z
 ---------------------------------------------------------------------
      1         12           0       -7.167520    0.619268    0.136928
      2          6           0       -4.859044   -1.907746    0.533219
      3          6           0       -4.864116    2.738775    1.185936
      4          6           0       -9.448790    3.107485   -0.382894
      5          6           0       -9.489453   -1.743682   -0.819042
      6          7           0       -5.148588    0.410991    0.725489
      7          6           0       -4.323954   -0.681601    0.900917
      8          6           0       -2.863883   -0.335918    1.294162
      9          6           0       -3.091847    1.130198    1.756977
     10          6           0       -4.494727    1.477743    1.252464
     11          6           0       -2.956047    1.206272    3.277002
     12          6           0       -1.878776   -0.460468    0.163511
     13          6           0       -0.473611   -0.429185    0.712647
     14          6           0        0.495184   -0.627110   -0.507818
     15          8           0        0.189238   -0.817050   -1.660548
     16          8           0        1.796435   -0.411058   -0.137680
     17          7           0       -7.015221    2.648577    0.337098
     18          6           0       -6.064349    3.314752    0.839218
     19          6           0       -6.365961    4.714020    0.833804
     20          6           0       -7.728410    4.812410    0.278659
     21          6           0       -8.117956    3.484996    0.079912
     22          6           0       -5.469621    5.801510    1.177925
     23          6           0       -8.586506    6.080624    0.001021
     24          6           0       -8.574221    7.189783    0.678643
     25          7           0       -9.130303    0.642830   -0.468031
     26          6           0       -9.896389    1.761914   -0.529868
     27          6           0      -11.223333    1.443036   -1.144983
     28          6           0      -11.234200    0.078484   -1.260657
     29          6           0       -9.894962   -0.381715   -0.852575
     30          6           0      -12.369268    2.468823   -1.390306
     31          6           0      -12.328054   -0.844080   -1.786894
     32          6           0      -12.164299   -1.114609   -3.418919
     33          7           0       -7.193254   -1.323153   -0.128404
     34          6           0       -8.209573   -2.276344   -0.611208
     35          6           0       -7.792663   -3.628426   -0.533522
     36          6           0       -6.460554   -3.556319   -0.163944
     37          6           0       -6.167164   -2.156145    0.127775
     38          6           0       -8.634311   -4.840722   -0.950585
     39          6           0       -5.290821   -4.423361    0.127412
     40          8           0       -5.175725   -5.669120    0.246974
     41          6           0       -4.237101   -3.340397    0.563262
     42          6           0       -3.499785   -3.647712    1.878683
     43          8           0       -3.621090   -3.138686    2.955608
     44          8           0       -2.699156   -4.754897    1.749726
     45          6           0       -2.279713   -5.209545    2.932647
     46          6           0        2.755005   -0.726276   -1.273244
     47          6           0        4.174846   -0.374224   -0.717692
     48          6           0        5.158788    0.356017   -1.028629
     49          6           0        5.042232    1.175611   -2.237207
     50          6           0        6.469207    0.495264   -0.220630
     51          6           0        7.674701   -0.074174   -0.974629
     52          6           0        8.906458   -0.021916   -0.165649
     53          6           0       10.180236   -0.614785   -0.986468
     54          6           0        9.984937   -2.108490   -1.207855
     55          6           0       11.429802   -0.206604   -0.153944
     56          6           0       12.781408   -0.577048   -0.792021
     57          6           0       13.935599   -0.160545    0.087582
     58          6           0       15.402559   -0.324341   -0.495291
     59          6           0       15.756543   -1.713722   -0.828500
     60          6           0       16.343386    0.397047    0.455637
     61          6           0       17.899517    0.322028   -0.034761
     62          6           0       18.796976    1.286026    0.728973
     63          6           0       20.274675    1.366925    0.215095
     64          6           0       20.272160    2.100242   -1.087505
     65          6           0       21.165212    2.167552    1.257186
     66          1           0       -4.150833    3.477904    1.631844
     67          1           0       -9.922836    3.990989   -0.502658
     68          1           0      -10.328037   -2.539129   -1.406446
     69          1           0       -2.574197   -0.914912    1.999921
     70          1           0       -2.327543    1.539295    1.223055
     71          1           0       -1.974944    0.788393    3.524084
     72          1           0       -3.230286    2.205606    3.746761
     73          1           0       -3.756156    0.486966    3.913945
     74          1           0       -2.026108   -1.453559   -0.554206
     75          1           0       -2.097899    0.383330   -0.715505
     76          1           0       -0.254609    0.612432    1.132110
     77          1           0       -0.130689   -1.093132    1.621973
     78          1           0       -5.856787    6.815100    0.830880
     79          1           0       -5.323446    5.838915    2.207526
     80          1           0       -4.517772    5.612469    0.526647
     81          1           0       -9.262209    6.039744   -0.876656
     82          1           0       -9.137138    8.051296    0.212404
     83          1           0       -8.188612    7.394861    1.701009
     84          1           0      -12.290830    2.937149   -2.380486
     85          1           0      -13.292499    2.015498   -1.550061
     86          1           0      -12.167851    3.351611   -0.483274
     87          1           0      -12.489156   -1.746809   -1.361417
     88          1           0      -13.151960   -0.348142   -1.546887
     89          1           0      -13.208800   -1.634712   -3.710051
     90          1           0      -12.295072    0.014125   -3.700724
     91          1           0      -11.360188   -1.588117   -3.850445
     92          1           0       -9.204840   -4.904842   -1.894565
     93          1           0       -7.926804   -5.826960   -0.866361
     94          1           0       -9.395778   -5.049248   -0.101997
     95          1           0       -3.328905   -3.476027   -0.235619
     96          1           0       -1.515886   -4.506141    3.309431
     97          1           0       -3.151155   -5.241999    3.588200
     98          1           0       -2.006713   -6.463299    2.761238
     99          1           0        2.809475   -1.672065   -1.510276
    100          1           0        2.359136   -0.066761   -2.065609
    101          1           0        4.360394   -0.826620    0.295067
    102          1           0        3.902023    1.369451   -2.631944
    103          1           0        5.472416    2.292782   -2.132511
    104          1           0        5.612046    0.896840   -3.294289
    105          1           0        6.802553    1.570728   -0.157654
    106          1           0        6.455780    0.064676    0.717641
    107          1           0        7.415788   -1.072569   -1.432180
    108          1           0        8.066030    0.537019   -1.853069
    109          1           0        9.281234    1.018623   -0.192716
    110          1           0        8.780733   -0.529501    0.751628
    111          1           0       10.252762   -0.171878   -2.008547
    112          1           0        9.162418   -2.365979   -1.664926
    113          1           0       10.829226   -2.744747   -1.739879
    114          1           0        9.957871   -2.650779   -0.135639
    115          1           0       11.383376    0.866246   -0.016321
    116          1           0       11.474896   -0.576258    0.855580
    117          1           0       12.885459   -1.748756   -0.568745
    118          1           0       12.866210   -0.297895   -1.982735
    119          1           0       13.635559    0.945393    0.284707
    120          1           0       13.939590   -0.519820    1.211484
    121          1           0       15.485402    0.237191   -1.337630
    122          1           0       15.677537   -2.136268    0.154674
    123          1           0       14.931887   -2.230862   -1.271611
    124          1           0       16.671936   -1.748340   -1.276348
    125          1           0       16.230684    1.483184    0.581613
    126          1           0       16.357993   -0.013963    1.463656
    127          1           0       18.310592   -0.481149    0.036447
    128          1           0       17.762461    0.758394   -1.041117
    129          1           0       18.468949    2.211611    0.931793
    130          1           0       18.871392    0.953180    1.795062
    131          1           0       20.479383    0.194160    0.240949
    132          1           0       19.585188    3.156048   -0.913190
    133          1           0       21.263233    2.414318   -1.556894
    134          1           0       19.957734    1.584392   -1.908207
    135          1           0       21.095059    1.740184    2.347290
    136          1           0       22.167484    1.945988    0.787894
    137          1           0       20.933012    3.263731    1.205872
 ---------------------------------------------------------------------

 SCF Done:  E(RCAM-B3LYP) =  -2932.57269844     A.U. after   16 cycles

 Excitation energies and oscillator strengths:

 Excited State   1:      Singlet-A      2.0200 eV  613.80 nm  f=0.2772  <S**2>=0.000
     240 -> 243        0.22832
     241 -> 242        0.65970
 This state for optimization and/or second-order correction.
 Total Energy, E(TD-HF/TD-KS) =  -2932.49846652
 Copying the excited state density for this state as the 1-particle RhoCI density.

 The electronic state is 1-A.
 Alpha  occ. eigenvalues --  -46.83995 -19.26006 -19.25182 -19.21600 -19.21501
 Alpha  occ. eigenvalues --  -19.21174 -14.41388 -14.40245 -14.39821 -14.38700
 Alpha  occ. eigenvalues --  -10.39732 -10.39294 -10.36425 -10.32072 -10.31231
 Alpha  occ. eigenvalues --  -10.30992 -10.30119 -10.29956 -10.29880 -10.29799
 Alpha  occ. eigenvalues --  -10.29595 -10.29552 -10.29533 -10.29482 -10.29303
 Alpha  occ. eigenvalues --  -10.29226 -10.28940 -10.28405 -10.28193 -10.28156
 Alpha  occ. eigenvalues --  -10.28067 -10.28039 -10.27978 -10.27526 -10.27248
 Alpha  occ. eigenvalues --  -10.27192 -10.27153 -10.27015 -10.26948 -10.26855
 Alpha  occ. eigenvalues --  -10.26764 -10.26742 -10.26634 -10.26564 -10.26536
 Alpha  occ. eigenvalues --  -10.26443 -10.26392 -10.26274 -10.26141 -10.26122
 Alpha  occ. eigenvalues --  -10.25907 -10.25782 -10.25655 -10.25608 -10.25586
 Alpha  occ. eigenvalues --  -10.25517 -10.25101 -10.24962 -10.24731 -10.24628
 Alpha  occ. eigenvalues --  -10.24518 -10.24318 -10.23192 -10.23095 -10.22701
 Alpha  occ. eigenvalues --   -3.13201  -1.87894  -1.87449  -1.87393  -1.19964
 Alpha  occ. eigenvalues --   -1.17354  -1.10450  -1.09211  -1.08637  -1.05268
 Alpha  occ. eigenvalues --   -1.04178  -1.03849  -1.02357  -0.91920  -0.91835
 Alpha  occ. eigenvalues --   -0.91286  -0.90609  -0.89520  -0.89341  -0.88388
 Alpha  occ. eigenvalues --   -0.88235  -0.87987  -0.87418  -0.87069  -0.85955
 Alpha  occ. eigenvalues --   -0.85297  -0.84485  -0.83497  -0.82887  -0.82494
 Alpha  occ. eigenvalues --   -0.81668  -0.80804  -0.80634  -0.80125  -0.77959
 Alpha  occ. eigenvalues --   -0.77591  -0.76741  -0.75880  -0.75492  -0.75169
 Alpha  occ. eigenvalues --   -0.74901  -0.74539  -0.74330  -0.73372  -0.72840
 Alpha  occ. eigenvalues --   -0.71676  -0.70763  -0.69790  -0.69478  -0.68103
 Alpha  occ. eigenvalues --   -0.66808  -0.66486  -0.66156  -0.65224  -0.64285
 Alpha  occ. eigenvalues --   -0.63330  -0.63302  -0.62705  -0.62601  -0.62200
 Alpha  occ. eigenvalues --   -0.62053  -0.61088  -0.60415  -0.59968  -0.59283
 Alpha  occ. eigenvalues --   -0.58874  -0.57742  -0.57483  -0.56924  -0.56628
 Alpha  occ. eigenvalues --   -0.56469  -0.55907  -0.55712  -0.55353  -0.55248
 Alpha  occ. eigenvalues --   -0.54759  -0.54182  -0.53782  -0.53500  -0.53348
 Alpha  occ. eigenvalues --   -0.52911  -0.52608  -0.52379  -0.52269  -0.51954
 Alpha  occ. eigenvalues --   -0.51634  -0.51287  -0.50922  -0.50602  -0.50377
 Alpha  occ. eigenvalues --   -0.50259  -0.50029  -0.49881  -0.49615  -0.49381
 Alpha  occ. eigenvalues --   -0.49170  -0.49098  -0.48644  -0.48572  -0.48503
 Alpha  occ. eigenvalues --   -0.48025  -0.47806  -0.47488  -0.47163  -0.47052
 Alpha  occ. eigenvalues --   -0.46685  -0.46557  -0.46349  -0.46156  -0.45893
 Alpha  occ. eigenvalues --   -0.45827  -0.45609  -0.45420  -0.45121  -0.44966
 Alpha  occ. eigenvalues --   -0.44777  -0.44605  -0.44331  -0.44184  -0.43796
 Alpha  occ. eigenvalues --   -0.43646  -0.43626  -0.43331  -0.43031  -0.43022
 Alpha  occ. eigenvalues --   -0.42907  -0.42763  -0.42321  -0.42220  -0.41928
 Alpha  occ. eigenvalues --   -0.41716  -0.41635  -0.41515  -0.41295  -0.41077
 Alpha  occ. eigenvalues --   -0.40980  -0.40949  -0.40498  -0.40480  -0.40004
 Alpha  occ. eigenvalues --   -0.39806  -0.39627  -0.39406  -0.39336  -0.39104
 Alpha  occ. eigenvalues --   -0.38543  -0.38475  -0.38201  -0.38103  -0.37901
 Alpha  occ. eigenvalues --   -0.37576  -0.37543  -0.37264  -0.36882  -0.36711
 Alpha  occ. eigenvalues --   -0.36595  -0.36509  -0.35839  -0.35796  -0.35459
 Alpha  occ. eigenvalues --   -0.35283  -0.34679  -0.34209  -0.34084  -0.34026
 Alpha  occ. eigenvalues --   -0.33667  -0.32473  -0.32187  -0.31693  -0.30977
 Alpha  occ. eigenvalues --   -0.30857  -0.30067  -0.28873  -0.27064  -0.23149
 Alpha  occ. eigenvalues --   -0.21592
 Alpha virt. eigenvalues --   -0.07116  -0.02732   0.00837   0.04521   0.05678
 Alpha virt. eigenvalues --    0.05772   0.06208   0.06529   0.07071   0.07164
 Alpha virt. eigenvalues --    0.08116   0.09884   0.10700   0.11522   0.11587

 Mulliken charges:
               1
     1  Mg   0.815067
     2  C    0.040841
     3  C   -0.209364
     4  C   -0.101765
     5  C   -0.175819
     6  N   -0.632646
     7  C    0.279514
     8  C   -0.100091
     9  C   -0.134269
    10  C    0.371728
    11  C   -0.306990
    12  C   -0.180327
    13  C   -0.272385
    14  C    0.618243
    15  O   -0.465518
    16  O   -0.504350
    17  N   -0.708893
    18  C    0.382554
    19  C   -0.029029
    20  C   -0.002806
    21  C    0.231095
    22  C   -0.380224
    23  C   -0.079446
    24  C   -0.237061
    25  N   -0.659478
    26  C    0.257738
    27  C    0.015349
    28  C    0.003736
    29  C    0.299666
    30  C   -0.356372
    31  C   -0.235044
    32  C   -0.307074
    33  N   -0.715399
    34  C    0.221359
    35  C    0.077417
    36  C   -0.023601
    37  C    0.319751
    38  C   -0.389356
    39  C    0.399160
    40  O   -0.469132
    41  C   -0.331136
    42  C    0.612025
    43  O   -0.463639
    44  O   -0.415424
    45  C   -0.068688
    46  C    0.037552
    47  C   -0.177426
    48  C    0.188417
    49  C   -0.369796
    50  C   -0.219070
    51  C   -0.177679
    52  C   -0.175289
    53  C   -0.075799
    54  C   -0.292557
    55  C   -0.170516
    56  C   -0.164445
    57  C   -0.184582
    58  C   -0.054636
    59  C   -0.304733
    60  C   -0.189820
    61  C   -0.160372
    62  C   -0.188125
    63  C   -0.059622
    64  C   -0.283595
    65  C   -0.300647
    66  H    0.073710
    67  H    0.076075
    68  H    0.078052
    69  H    0.114832
    70  H    0.113341
    71  H    0.110884
    72  H    0.109261
    73  H    0.099499
    74  H    0.112195
    75  H    0.107796
    76  H    0.140256
    77  H    0.139133
    78  H    0.116323
    79  H    0.129774
    80  H    0.108999
    81  H    0.102287
    82  H    0.094007
    83  H    0.113856
    84  H    0.124580
    85  H    0.124004
    86  H    0.100208
    87  H    0.114385
    88  H    0.111067
    89  H    0.084017
    90  H    0.099577
    91  H    0.131170
    92  H    0.135726
    93  H    0.134428
    94  H    0.126626
    95  H    0.144517
    96  H    0.107949
    97  H    0.124643
    98  H    0.084421
    99  H    0.145611
   100  H    0.138995
   101  H    0.077622
   102  H    0.093217
   103  H    0.091825
   104  H    0.095722
   105  H    0.102035
   106  H    0.105166
   107  H    0.093134
   108  H    0.085396
   109  H    0.099721
   110  H    0.098330
   111  H    0.083544
   112  H    0.117098
   113  H    0.085500
   114  H    0.068857
   115  H    0.088057
   116  H    0.098621
   117  H    0.080004
   118  H    0.079141
   119  H    0.068499
   120  H    0.078541
   121  H    0.089744
   122  H    0.097471
   123  H    0.109316
   124  H    0.114112
   125  H    0.096082
   126  H    0.082989
   127  H    0.092813
   128  H    0.090118
   129  H    0.087686
   130  H    0.068057
   131  H    0.070134
   132  H    0.068513
   133  H    0.086323
   134  H    0.117709
   135  H    0.091360
   136  H    0.103394
   137  H    0.104767
 Sum of Mulliken charges =   0.00000

 Dipole moment (field-independent basis, Debye):
    X=              0.0460    Y=              4.3208    Z=             -0.4553  Tot=              4.3450
 Quadrupole moment (field-independent basis, Debye-Ang):
   XX=           -338.6712   YY=           -400.3303   ZZ=           -396.5768
   XY=            -21.0941   XZ=              9.8519   YZ=              3.2440

 Normal termination of Gaussian 09 at Sun Jul  7 03:07:20 2019.
