 Gaussian 09, Revision D.01,
 Gaussian 09:  ES64L-G09RevD.01 24-Apr-2013

 -------------------------------------
 # td=(NStates=1) CAM-B3LYP/6-31G(d,p)
 -------------------------------------

 --
 TD
 --
 Symbolic Z-matrix:
 Charge =  0 Multiplicity = 1

                         Standard orientation:
 ---------------------------------------------------------------------
 Center     Atomic      Atomic             Coordinates (Angstroms)
 Number     Number       Type             X           Y           Z
 ---------------------------------------------------------------------
      1         12           0       -7.176826    0.654699    0.093478
      2          6           0       -4.913592   -1.956349    0.441460
      3          6           0       -4.707619    2.852647    1.235302
      4          6           0       -9.336491    3.153919   -0.406580
      5          6           0       -9.560991   -1.778904   -0.925910
      6          7           0       -5.091556    0.431654    0.728845
      7          6           0       -4.347240   -0.780082    0.779812
      8          6           0       -2.988222   -0.557073    1.278765
      9          6           0       -3.006170    0.890852    1.658947
     10          6           0       -4.370853    1.463989    1.161358
     11          6           0       -2.947252    1.100070    3.116743
     12          6           0       -2.003387   -0.741294    0.085585
     13          6           0       -0.471613   -0.519052    0.524264
     14          6           0        0.521850   -0.654899   -0.656144
     15          8           0        0.291024   -0.910256   -1.804467
     16          8           0        1.771118   -0.490072   -0.156877
     17          7           0       -7.071984    2.664251    0.398790
     18          6           0       -6.059965    3.407902    0.828722
     19          6           0       -6.315609    4.788941    0.759917
     20          6           0       -7.664910    4.914417    0.471497
     21          6           0       -8.092396    3.520226    0.049566
     22          6           0       -5.452657    5.943738    1.140246
     23          6           0       -8.522026    6.028455    0.224093
     24          6           0       -8.374167    7.121407    0.912087
     25          7           0       -9.104544    0.743958   -0.522009
     26          6           0       -9.860886    1.810897   -0.676960
     27          6           0      -11.196870    1.501618   -1.122875
     28          6           0      -11.247024    0.179610   -1.294672
     29          6           0       -9.886905   -0.373620   -0.925891
     30          6           0      -12.282338    2.499146   -1.471761
     31          6           0      -12.463142   -0.690306   -1.810270
     32          6           0      -12.187157   -1.007971   -3.299756
     33          7           0       -7.356264   -1.344388   -0.120790
     34          6           0       -8.276669   -2.249250   -0.484863
     35          6           0       -7.909696   -3.618338   -0.508451
     36          6           0       -6.629004   -3.568254   -0.037561
     37          6           0       -6.330004   -2.192311    0.085559
     38          6           0       -8.588962   -4.826743   -0.966606
     39          6           0       -5.392877   -4.337508    0.264441
     40          8           0       -5.232177   -5.571892    0.347749
     41          6           0       -4.287513   -3.312622    0.574148
     42          6           0       -3.639843   -3.760132    1.905736
     43          8           0       -3.735365   -3.246600    2.985925
     44          8           0       -2.691136   -4.716857    1.671746
     45          6           0       -2.018481   -5.246692    2.908956
     46          6           0        2.874165   -0.795537   -1.101719
     47          6           0        4.023987   -0.351513   -0.404736
     48          6           0        5.032747    0.380452   -0.911643
     49          6           0        4.943924    1.123208   -2.199158
     50          6           0        6.386503    0.579766   -0.251728
     51          6           0        7.601398   -0.188130   -0.928440
     52          6           0        8.889160   -0.027487   -0.224834
     53          6           0       10.202482   -0.527896   -0.909898
     54          6           0       10.114171   -2.013091   -1.317242
     55          6           0       11.395035   -0.148111   -0.010182
     56          6           0       12.762689   -0.429030   -0.788488
     57          6           0       14.007806    0.170850    0.042793
     58          6           0       15.407311   -0.170190   -0.590030
     59          6           0       15.702637   -1.636434   -0.795882
     60          6           0       16.437505    0.478581    0.320954
     61          6           0       17.810671    0.555951   -0.201147
     62          6           0       18.839296    1.147475    0.737204
     63          6           0       20.185703    1.277312    0.266182
     64          6           0       20.426343    1.997191   -0.963646
     65          6           0       21.153434    1.858849    1.329647
     66          1           0       -3.954470    3.520880    1.411140
     67          1           0       -9.987591    4.117873   -0.497152
     68          1           0      -10.413324   -2.731193   -0.846997
     69          1           0       -2.759911   -1.104828    2.062198
     70          1           0       -2.175994    1.440421    1.047417
     71          1           0       -1.991675    0.597195    3.716449
     72          1           0       -2.851401    2.060950    3.617975
     73          1           0       -3.772888    0.445196    3.608609
     74          1           0       -2.215064   -1.674911   -0.424358
     75          1           0       -2.110425   -0.042832   -0.717521
     76          1           0       -0.352682    0.412190    1.013610
     77          1           0       -0.090801   -1.362871    1.134504
     78          1           0       -5.753972    6.959317    0.671508
     79          1           0       -5.262286    5.998756    2.159713
     80          1           0       -4.380873    5.830467    0.641054
     81          1           0       -9.497134    5.851911   -0.256930
     82          1           0       -9.238390    7.840463    0.625098
     83          1           0       -7.492785    7.130124    1.631403
     84          1           0      -12.349624    2.975089   -2.421442
     85          1           0      -13.351918    2.127577   -1.448241
     86          1           0      -12.446679    3.173699   -0.740986
     87          1           0      -12.140698   -1.641437   -1.316831
     88          1           0      -13.402911   -0.200093   -1.416071
     89          1           0      -12.986122   -1.516785   -3.980195
     90          1           0      -11.877936   -0.072508   -3.809082
     91          1           0      -11.365195   -1.539053   -3.403996
     92          1           0       -8.751223   -4.777081   -2.120397
     93          1           0       -7.921773   -5.791380   -0.751883
     94          1           0       -9.713513   -4.887547   -0.613174
     95          1           0       -3.392550   -3.579569   -0.247491
     96          1           0       -1.275874   -4.517435    3.337092
     97          1           0       -2.587137   -5.394724    3.792659
     98          1           0       -1.369379   -5.873247    2.525159
     99          1           0        2.802824   -1.804786   -1.468272
    100          1           0        2.557547   -0.174138   -1.978961
    101          1           0        4.235026   -0.937858    0.497739
    102          1           0        3.861283    1.047634   -2.479557
    103          1           0        5.405718    2.111209   -2.030700
    104          1           0        5.663192    0.600193   -2.975527
    105          1           0        6.872782    1.526916   -0.006774
    106          1           0        6.312692    0.041788    0.782671
    107          1           0        7.192017   -1.154669   -1.008492
    108          1           0        7.826800    0.331877   -1.962304
    109          1           0        9.093024    1.068805    0.102856
    110          1           0        8.974376   -0.544916    0.793681
    111          1           0       10.287359    0.130127   -1.683235
    112          1           0        9.182740   -2.338030   -1.634740
    113          1           0       10.722876   -2.233184   -1.981466
    114          1           0       10.245438   -2.771375   -0.356670
    115          1           0       11.470475    1.037641    0.166210
    116          1           0       11.422583   -0.737500    0.936167
    117          1           0       12.880105   -1.585863   -0.822397
    118          1           0       12.709343   -0.049342   -1.822626
    119          1           0       13.742332    1.340268   -0.003745
    120          1           0       13.970349   -0.404922    1.067930
    121          1           0       15.672264    0.341070   -1.614973
    122          1           0       15.547087   -2.183536    0.219905
    123          1           0       15.015224   -2.040770   -1.311520
    124          1           0       16.832363   -1.590105   -1.252123
    125          1           0       16.134172    1.476140    0.638272
    126          1           0       16.394973   -0.313009    1.210461
    127          1           0       18.077471   -0.467375   -0.451299
    128          1           0       17.789033    1.177720   -1.184306
    129          1           0       18.549360    2.269015    0.961090
    130          1           0       18.654202    0.695396    1.596571
    131          1           0       20.549300    0.225979    0.232405
    132          1           0       19.969384    2.996854   -0.926797
    133          1           0       21.555783    1.969597   -1.253041
    134          1           0       19.931068    1.576453   -1.829272
    135          1           0       21.160577    1.242806    2.207177
    136          1           0       22.169951    1.876685    0.848193
    137          1           0       20.748026    2.901405    1.424936
 ---------------------------------------------------------------------

 SCF Done:  E(RCAM-B3LYP) =  -2932.66974523     A.U. after   17 cycles

 Excitation energies and oscillator strengths:

 Excited State   1:      Singlet-A      2.0992 eV  590.62 nm  f=0.2275  <S**2>=0.000
     240 -> 242       -0.20082
     240 -> 243        0.22212
     241 -> 242        0.61885
     241 -> 243        0.13134
 This state for optimization and/or second-order correction.
 Total Energy, E(TD-HF/TD-KS) =  -2932.59260022
 Copying the excited state density for this state as the 1-particle RhoCI density.

 The electronic state is 1-A.
 Alpha  occ. eigenvalues --  -46.85076 -19.25655 -19.25075 -19.20856 -19.20793
 Alpha  occ. eigenvalues --  -19.19698 -14.41044 -14.40603 -14.40031 -14.39709
 Alpha  occ. eigenvalues --  -10.39099 -10.38660 -10.34998 -10.31395 -10.31120
 Alpha  occ. eigenvalues --  -10.31079 -10.30278 -10.30250 -10.30095 -10.29974
 Alpha  occ. eigenvalues --  -10.29932 -10.29814 -10.29521 -10.29213 -10.28418
 Alpha  occ. eigenvalues --  -10.28276 -10.28015 -10.27942 -10.27742 -10.27696
 Alpha  occ. eigenvalues --  -10.27567 -10.27549 -10.27448 -10.27448 -10.27322
 Alpha  occ. eigenvalues --  -10.27303 -10.27236 -10.26800 -10.26763 -10.26721
 Alpha  occ. eigenvalues --  -10.26681 -10.26635 -10.26586 -10.26486 -10.26446
 Alpha  occ. eigenvalues --  -10.26309 -10.26307 -10.26246 -10.25878 -10.25832
 Alpha  occ. eigenvalues --  -10.25645 -10.25638 -10.25591 -10.25549 -10.25126
 Alpha  occ. eigenvalues --  -10.24867 -10.24773 -10.24748 -10.24703 -10.24662
 Alpha  occ. eigenvalues --  -10.24462 -10.24422 -10.24338 -10.23970 -10.23736
 Alpha  occ. eigenvalues --   -3.14069  -1.88777  -1.88314  -1.88245  -1.17427
 Alpha  occ. eigenvalues --   -1.16979  -1.08966  -1.08878  -1.08056  -1.05837
 Alpha  occ. eigenvalues --   -1.04832  -1.03497  -1.03033  -0.92316  -0.91898
 Alpha  occ. eigenvalues --   -0.91677  -0.90923  -0.90200  -0.89968  -0.89286
 Alpha  occ. eigenvalues --   -0.88741  -0.88305  -0.87658  -0.86248  -0.86077
 Alpha  occ. eigenvalues --   -0.85128  -0.84319  -0.83577  -0.83219  -0.83167
 Alpha  occ. eigenvalues --   -0.81717  -0.80973  -0.80314  -0.80065  -0.78015
 Alpha  occ. eigenvalues --   -0.77877  -0.77522  -0.76565  -0.76521  -0.76211
 Alpha  occ. eigenvalues --   -0.75431  -0.75273  -0.74613  -0.72950  -0.72392
 Alpha  occ. eigenvalues --   -0.71050  -0.70597  -0.69871  -0.69189  -0.68194
 Alpha  occ. eigenvalues --   -0.66954  -0.66210  -0.65380  -0.64954  -0.63810
 Alpha  occ. eigenvalues --   -0.63371  -0.63121  -0.63093  -0.62672  -0.61529
 Alpha  occ. eigenvalues --   -0.60941  -0.60787  -0.60181  -0.59735  -0.59206
 Alpha  occ. eigenvalues --   -0.58622  -0.58123  -0.57752  -0.57206  -0.56589
 Alpha  occ. eigenvalues --   -0.56248  -0.55957  -0.55485  -0.55255  -0.54858
 Alpha  occ. eigenvalues --   -0.54433  -0.54345  -0.54216  -0.53493  -0.53104
 Alpha  occ. eigenvalues --   -0.52939  -0.52777  -0.52650  -0.52104  -0.51995
 Alpha  occ. eigenvalues --   -0.51757  -0.51608  -0.51269  -0.51110  -0.50589
 Alpha  occ. eigenvalues --   -0.50180  -0.50141  -0.49716  -0.49619  -0.49084
 Alpha  occ. eigenvalues --   -0.49059  -0.48713  -0.48575  -0.48408  -0.48307
 Alpha  occ. eigenvalues --   -0.47797  -0.47753  -0.47674  -0.47498  -0.47138
 Alpha  occ. eigenvalues --   -0.46538  -0.46420  -0.46060  -0.45925  -0.45757
 Alpha  occ. eigenvalues --   -0.45563  -0.45513  -0.45484  -0.45287  -0.45039
 Alpha  occ. eigenvalues --   -0.44859  -0.44657  -0.44472  -0.44290  -0.44127
 Alpha  occ. eigenvalues --   -0.44080  -0.43816  -0.43547  -0.43343  -0.43242
 Alpha  occ. eigenvalues --   -0.43010  -0.42750  -0.42663  -0.42566  -0.42447
 Alpha  occ. eigenvalues --   -0.42315  -0.42208  -0.41729  -0.41689  -0.41458
 Alpha  occ. eigenvalues --   -0.41118  -0.41092  -0.40883  -0.40851  -0.40737
 Alpha  occ. eigenvalues --   -0.40382  -0.40181  -0.39894  -0.39876  -0.39084
 Alpha  occ. eigenvalues --   -0.38934  -0.38540  -0.38153  -0.37996  -0.37911
 Alpha  occ. eigenvalues --   -0.37730  -0.37631  -0.37253  -0.37236  -0.36616
 Alpha  occ. eigenvalues --   -0.36351  -0.36290  -0.36022  -0.35600  -0.35487
 Alpha  occ. eigenvalues --   -0.35349  -0.35266  -0.34320  -0.33705  -0.33456
 Alpha  occ. eigenvalues --   -0.33384  -0.33190  -0.31879  -0.30579  -0.30154
 Alpha  occ. eigenvalues --   -0.29884  -0.29771  -0.29402  -0.28051  -0.22879
 Alpha  occ. eigenvalues --   -0.21532
 Alpha virt. eigenvalues --   -0.06506  -0.02932   0.01703   0.04109   0.05158
 Alpha virt. eigenvalues --    0.05752   0.06327   0.06647   0.07207   0.07832
 Alpha virt. eigenvalues --    0.08454   0.09777   0.11070   0.11189   0.11479

 Mulliken charges:
               1
     1  Mg   0.833553
     2  C    0.062471
     3  C   -0.202806
     4  C   -0.178565
     5  C   -0.173409
     6  N   -0.644322
     7  C    0.275889
     8  C   -0.106099
     9  C   -0.148998
    10  C    0.362035
    11  C   -0.309012
    12  C   -0.200337
    13  C   -0.262232
    14  C    0.588692
    15  O   -0.470891
    16  O   -0.491587
    17  N   -0.705681
    18  C    0.330560
    19  C    0.027836
    20  C    0.010069
    21  C    0.287480
    22  C   -0.400217
    23  C   -0.055318
    24  C   -0.248334
    25  N   -0.681520
    26  C    0.309485
    27  C    0.045547
    28  C   -0.018303
    29  C    0.234750
    30  C   -0.384789
    31  C   -0.214044
    32  C   -0.305260
    33  N   -0.680300
    34  C    0.223048
    35  C    0.080589
    36  C    0.012482
    37  C    0.268160
    38  C   -0.398775
    39  C    0.372797
    40  O   -0.485658
    41  C   -0.326700
    42  C    0.632952
    43  O   -0.468096
    44  O   -0.471477
    45  C   -0.076174
    46  C   -0.013334
    47  C   -0.106578
    48  C    0.119513
    49  C   -0.345046
    50  C   -0.244808
    51  C   -0.161193
    52  C   -0.175657
    53  C   -0.051970
    54  C   -0.296122
    55  C   -0.170763
    56  C   -0.200227
    57  C   -0.159903
    58  C   -0.070143
    59  C   -0.277504
    60  C   -0.143360
    61  C   -0.179996
    62  C   -0.130739
    63  C   -0.063063
    64  C   -0.301828
    65  C   -0.291284
    66  H    0.071545
    67  H    0.084057
    68  H    0.105437
    69  H    0.131576
    70  H    0.092925
    71  H    0.070934
    72  H    0.120985
    73  H    0.120675
    74  H    0.114748
    75  H    0.126373
    76  H    0.142427
    77  H    0.137953
    78  H    0.124309
    79  H    0.143133
    80  H    0.100398
    81  H    0.096572
    82  H    0.103845
    83  H    0.122012
    84  H    0.130334
    85  H    0.098109
    86  H    0.123897
    87  H    0.104766
    88  H    0.111112
    89  H    0.090840
    90  H    0.105042
    91  H    0.127587
    92  H    0.123082
    93  H    0.149717
    94  H    0.106049
    95  H    0.157545
    96  H    0.103205
    97  H    0.152802
    98  H    0.130604
    99  H    0.139636
   100  H    0.130460
   101  H    0.092565
   102  H    0.105137
   103  H    0.120537
   104  H    0.111164
   105  H    0.106782
   106  H    0.083783
   107  H    0.109061
   108  H    0.073918
   109  H    0.074042
   110  H    0.076106
   111  H    0.093792
   112  H    0.112519
   113  H    0.118069
   114  H    0.067562
   115  H    0.071975
   116  H    0.093089
   117  H    0.081156
   118  H    0.094327
   119  H    0.083383
   120  H    0.087218
   121  H    0.064856
   122  H    0.077070
   123  H    0.116385
   124  H    0.091352
   125  H    0.090957
   126  H    0.058900
   127  H    0.089914
   128  H    0.074172
   129  H    0.049108
   130  H    0.099088
   131  H    0.074096
   132  H    0.097450
   133  H    0.091677
   134  H    0.103542
   135  H    0.101231
   136  H    0.092549
   137  H    0.091294
 Sum of Mulliken charges =   0.00000

 Dipole moment (field-independent basis, Debye):
    X=              1.1555    Y=              4.7645    Z=             -0.2814  Tot=              4.9107
 Quadrupole moment (field-independent basis, Debye-Ang):
   XX=           -347.5932   YY=           -392.0600   ZZ=           -399.7548
   XY=            -40.9020   XZ=              4.6916   YZ=             -0.0378

 Normal termination of Gaussian 09 at Sat Jul  6 01:23:39 2019.
