 Gaussian 16, Revision A.03,
 Gaussian 16:  ES64L-G16RevA.03 25-Dec-2016

 -------------------------------------
 # td=(NStates=1) CAM-B3LYP/6-31G(d,p)
 -------------------------------------

 --
 TD
 --
 Symbolic Z-matrix:
 Charge =  0 Multiplicity = 1

                         Standard orientation:
 ---------------------------------------------------------------------
 Center     Atomic      Atomic             Coordinates (Angstroms)
 Number     Number       Type             X           Y           Z
 ---------------------------------------------------------------------
      1         12           0       -7.158198    0.671995    0.147041
      2          6           0       -4.869093   -1.969934    0.400510
      3          6           0       -4.811520    2.888973    1.148953
      4          6           0       -9.336540    3.196952   -0.481697
      5          6           0       -9.503715   -1.697270   -0.864524
      6          7           0       -5.088237    0.463279    0.837888
      7          6           0       -4.315009   -0.683679    0.690959
      8          6           0       -2.950409   -0.439321    1.253004
      9          6           0       -2.953740    1.031624    1.697304
     10          6           0       -4.322814    1.511322    1.136249
     11          6           0       -2.942126    1.197066    3.131535
     12          6           0       -2.001523   -0.722749    0.088450
     13          6           0       -0.454963   -0.587696    0.449605
     14          6           0        0.462448   -0.722685   -0.584371
     15          8           0        0.138435   -1.118789   -1.685681
     16          8           0        1.679529   -0.579370   -0.192600
     17          7           0       -7.091553    2.593256    0.321387
     18          6           0       -5.999948    3.289290    0.763206
     19          6           0       -6.384628    4.718926    0.849353
     20          6           0       -7.668945    4.835628    0.307851
     21          6           0       -8.124129    3.507129    0.022392
     22          6           0       -5.455647    5.878593    1.169518
     23          6           0       -8.499122    6.122907    0.170479
     24          6           0       -8.396616    7.304158    0.867002
     25          7           0       -9.159377    0.684416   -0.488563
     26          6           0       -9.847555    1.844349   -0.656313
     27          6           0      -11.152432    1.501441   -1.194707
     28          6           0      -11.190272    0.185583   -1.315080
     29          6           0       -9.877077   -0.406032   -0.887253
     30          6           0      -12.190877    2.459201   -1.524323
     31          6           0      -12.294512   -0.680103   -1.830819
     32          6           0      -12.304880   -0.955744   -3.457517
     33          7           0       -7.229850   -1.290515   -0.167424
     34          6           0       -8.325632   -2.162702   -0.501217
     35          6           0       -7.896618   -3.610322   -0.401817
     36          6           0       -6.581574   -3.580986   -0.021066
     37          6           0       -6.162710   -2.141551    0.076753
     38          6           0       -8.715829   -4.770318   -0.726179
     39          6           0       -5.379165   -4.332931    0.198815
     40          8           0       -5.143440   -5.539160    0.056238
     41          6           0       -4.204338   -3.332957    0.484947
     42          6           0       -3.726563   -3.671007    1.856671
     43          8           0       -3.923544   -3.056588    2.871290
     44          8           0       -2.977019   -4.792792    1.826875
     45          6           0       -2.266397   -5.139322    3.097085
     46          6           0        2.814561   -0.850938   -1.195842
     47          6           0        4.106345   -0.462750   -0.502491
     48          6           0        5.190802    0.094399   -0.841740
     49          6           0        5.133648    0.923670   -2.044376
     50          6           0        6.395127    0.343396   -0.060943
     51          6           0        7.628463   -0.287134   -0.801991
     52          6           0        8.984864   -0.104671   -0.030939
     53          6           0       10.196079   -0.717308   -0.741809
     54          6           0       10.062691   -2.197538   -1.074057
     55          6           0       11.491380   -0.312182   -0.046462
     56          6           0       12.863617   -0.518789   -0.772191
     57          6           0       13.952778   -0.058439    0.051044
     58          6           0       15.358294   -0.148372   -0.570794
     59          6           0       15.729054   -1.580182   -0.899683
     60          6           0       16.480419    0.411474    0.295593
     61          6           0       17.860734    0.645746   -0.215502
     62          6           0       18.848434    1.396843    0.641999
     63          6           0       20.192638    1.433288    0.159880
     64          6           0       20.348866    2.292362   -1.108157
     65          6           0       21.240822    1.875526    1.256438
     66          1           0       -3.968036    3.641253    1.298721
     67          1           0       -9.858306    4.091755   -0.672199
     68          1           0      -10.379240   -2.329385   -1.223966
     69          1           0       -2.642638   -0.904994    2.109365
     70          1           0       -2.336976    1.647822    1.278399
     71          1           0       -2.145930    0.773305    3.437468
     72          1           0       -2.826539    2.190176    3.526751
     73          1           0       -3.652964    0.623799    3.388393
     74          1           0       -1.982173   -1.648134   -0.287559
     75          1           0       -2.090495    0.185929   -0.704999
     76          1           0       -0.195228    0.540133    0.893700
     77          1           0       -0.381827   -1.432067    1.234167
     78          1           0       -5.860981    6.809011    0.708091
     79          1           0       -5.406157    6.203033    2.018010
     80          1           0       -4.468020    5.659586    0.817388
     81          1           0       -9.312963    6.067628   -0.699025
     82          1           0       -8.999337    8.225791    0.611318
     83          1           0       -7.758853    7.272367    1.949503
     84          1           0      -11.998502    3.005747   -2.332663
     85          1           0      -13.243440    2.044285   -1.542300
     86          1           0      -12.232351    3.006177   -0.593584
     87          1           0      -12.422612   -1.623120   -1.408632
     88          1           0      -13.160449   -0.229219   -1.510678
     89          1           0      -13.146166   -1.329801   -3.838399
     90          1           0      -12.569800   -0.018620   -3.832616
     91          1           0      -11.443638   -1.380671   -3.694680
     92          1           0       -9.099255   -4.782898   -1.795928
     93          1           0       -8.073133   -5.539053   -0.590692
     94          1           0       -9.653311   -4.938516    0.070558
     95          1           0       -3.341783   -3.569974   -0.242833
     96          1           0       -1.987225   -4.197170    3.626693
     97          1           0       -3.003270   -5.883497    3.674492
     98          1           0       -1.462050   -5.648678    2.717084
     99          1           0        2.833961   -1.777177   -1.483236
    100          1           0        2.561369   -0.442113   -2.150691
    101          1           0        4.245903   -0.922609    0.481392
    102          1           0        4.119292    1.225336   -2.389775
    103          1           0        5.522685    2.010179   -2.070092
    104          1           0        5.731986    0.463892   -2.785614
    105          1           0        6.655335    1.312188    0.034105
    106          1           0        6.254991   -0.104627    0.968908
    107          1           0        7.440259   -1.333668   -1.231519
    108          1           0        7.616089    0.333833   -1.545051
    109          1           0        9.347524    1.080321    0.207443
    110          1           0        8.905543   -0.721806    0.944552
    111          1           0       10.251785   -0.202095   -1.700739
    112          1           0        9.148585   -2.420670   -1.724613
    113          1           0       10.946393   -2.598166   -1.655953
    114          1           0        9.808018   -2.687277   -0.176677
    115          1           0       11.634681    0.926797    0.258094
    116          1           0       11.562000   -0.937132    0.893915
    117          1           0       12.858820   -1.604965   -0.973705
    118          1           0       13.005975    0.243954   -1.879165
    119          1           0       13.700689    1.003633    0.320112
    120          1           0       14.065482   -0.586413    1.047852
    121          1           0       15.429966    0.435408   -1.484984
    122          1           0       15.815129   -2.225852   -0.099398
    123          1           0       14.980652   -2.062128   -1.548127
    124          1           0       16.455483   -1.705871   -1.566691
    125          1           0       16.108746    1.554586    0.528011
    126          1           0       16.466139   -0.042584    1.115684
    127          1           0       18.147545   -0.339068   -0.445122
    128          1           0       17.983718    1.172999   -1.318891
    129          1           0       18.434499    2.413605    0.796751
    130          1           0       19.038798    1.033650    1.822117
    131          1           0       20.626000    0.519058   -0.041032
    132          1           0       20.331285    3.428502   -0.666968
    133          1           0       21.477767    2.159471   -1.384041
    134          1           0       19.694018    2.014746   -2.028905
    135          1           0       20.940926    1.317108    2.086733
    136          1           0       22.296982    1.766306    1.018571
    137          1           0       20.937588    2.977851    1.670480
 ---------------------------------------------------------------------

 SCF Done:  E(RCAM-B3LYP) =  -2932.51543799     A.U. after   18 cycles

 Excitation energies and oscillator strengths:

 Excited State   1:      Singlet-A      2.1050 eV  588.99 nm  f=0.2099  <S**2>=0.000
     240 -> 243        0.28849
     241 -> 242        0.64189
 This state for optimization and/or second-order correction.
 Total Energy, E(TD-HF/TD-DFT) =  -2932.43807994
 Copying the excited state density for this state as the 1-particle RhoCI density.

 The electronic state is 1-A.
 Alpha  occ. eigenvalues --  -46.82968 -19.26484 -19.25252 -19.20404 -19.19786
 Alpha  occ. eigenvalues --  -19.19062 -14.42119 -14.39781 -14.38807 -14.38386
 Alpha  occ. eigenvalues --  -10.38510 -10.37505 -10.34845 -10.32294 -10.31906
 Alpha  occ. eigenvalues --  -10.31321 -10.31248 -10.29588 -10.29446 -10.29075
 Alpha  occ. eigenvalues --  -10.28888 -10.28838 -10.28803 -10.28763 -10.28661
 Alpha  occ. eigenvalues --  -10.28636 -10.28172 -10.27971 -10.27471 -10.27390
 Alpha  occ. eigenvalues --  -10.27327 -10.27270 -10.27115 -10.27031 -10.26936
 Alpha  occ. eigenvalues --  -10.26663 -10.26613 -10.26425 -10.26243 -10.26172
 Alpha  occ. eigenvalues --  -10.26134 -10.26059 -10.26053 -10.25849 -10.25716
 Alpha  occ. eigenvalues --  -10.25707 -10.25706 -10.25690 -10.25640 -10.25622
 Alpha  occ. eigenvalues --  -10.25600 -10.25528 -10.25362 -10.25344 -10.25198
 Alpha  occ. eigenvalues --  -10.24834 -10.24477 -10.24423 -10.24134 -10.24036
 Alpha  occ. eigenvalues --  -10.23988 -10.23907 -10.22514 -10.22458 -10.22096
 Alpha  occ. eigenvalues --   -3.12241  -1.86929  -1.86477  -1.86444  -1.18954
 Alpha  occ. eigenvalues --   -1.17335  -1.09542  -1.08352  -1.08142  -1.04596
 Alpha  occ. eigenvalues --   -1.02723  -1.02082  -1.00911  -0.93537  -0.92849
 Alpha  occ. eigenvalues --   -0.91698  -0.91623  -0.90507  -0.89428  -0.89237
 Alpha  occ. eigenvalues --   -0.88481  -0.88079  -0.87809  -0.87680  -0.87151
 Alpha  occ. eigenvalues --   -0.86220  -0.85130  -0.84114  -0.83550  -0.82470
 Alpha  occ. eigenvalues --   -0.82384  -0.81561  -0.81427  -0.80713  -0.79356
 Alpha  occ. eigenvalues --   -0.78481  -0.77386  -0.76726  -0.76556  -0.76352
 Alpha  occ. eigenvalues --   -0.75588  -0.75492  -0.74862  -0.74447  -0.73262
 Alpha  occ. eigenvalues --   -0.72084  -0.71610  -0.71098  -0.70312  -0.68286
 Alpha  occ. eigenvalues --   -0.67658  -0.66987  -0.65825  -0.65466  -0.64610
 Alpha  occ. eigenvalues --   -0.63845  -0.63367  -0.63140  -0.62602  -0.62028
 Alpha  occ. eigenvalues --   -0.61243  -0.60595  -0.60115  -0.59720  -0.59077
 Alpha  occ. eigenvalues --   -0.58387  -0.57961  -0.57701  -0.57092  -0.57050
 Alpha  occ. eigenvalues --   -0.56409  -0.56070  -0.56019  -0.55659  -0.55321
 Alpha  occ. eigenvalues --   -0.54769  -0.54300  -0.53683  -0.53517  -0.53295
 Alpha  occ. eigenvalues --   -0.53117  -0.53098  -0.52818  -0.52346  -0.52246
 Alpha  occ. eigenvalues --   -0.51883  -0.51727  -0.51469  -0.51019  -0.50894
 Alpha  occ. eigenvalues --   -0.50809  -0.50682  -0.50651  -0.50103  -0.50019
 Alpha  occ. eigenvalues --   -0.49938  -0.49506  -0.49011  -0.48921  -0.48629
 Alpha  occ. eigenvalues --   -0.48506  -0.48337  -0.48235  -0.48024  -0.47913
 Alpha  occ. eigenvalues --   -0.47730  -0.47091  -0.46956  -0.46705  -0.46410
 Alpha  occ. eigenvalues --   -0.46206  -0.45989  -0.45614  -0.45438  -0.45321
 Alpha  occ. eigenvalues --   -0.45036  -0.44632  -0.44581  -0.44287  -0.44196
 Alpha  occ. eigenvalues --   -0.43979  -0.43798  -0.43476  -0.43194  -0.43079
 Alpha  occ. eigenvalues --   -0.43061  -0.42698  -0.42556  -0.42492  -0.42057
 Alpha  occ. eigenvalues --   -0.42019  -0.41644  -0.41452  -0.41237  -0.41117
 Alpha  occ. eigenvalues --   -0.41069  -0.41056  -0.40792  -0.40500  -0.40047
 Alpha  occ. eigenvalues --   -0.39992  -0.39603  -0.39500  -0.39222  -0.39192
 Alpha  occ. eigenvalues --   -0.38866  -0.38850  -0.38478  -0.38454  -0.38004
 Alpha  occ. eigenvalues --   -0.37843  -0.37658  -0.37250  -0.36576  -0.36340
 Alpha  occ. eigenvalues --   -0.36165  -0.35940  -0.35769  -0.35513  -0.35255
 Alpha  occ. eigenvalues --   -0.35208  -0.35153  -0.34608  -0.34221  -0.33397
 Alpha  occ. eigenvalues --   -0.32761  -0.32497  -0.32099  -0.31216  -0.30657
 Alpha  occ. eigenvalues --   -0.29967  -0.29391  -0.28032  -0.27513  -0.23489
 Alpha  occ. eigenvalues --   -0.20195
 Alpha virt. eigenvalues --   -0.05111  -0.03572   0.00715   0.03927   0.06213
 Alpha virt. eigenvalues --    0.06474   0.06652   0.06930   0.07128   0.07699
 Alpha virt. eigenvalues --    0.08550   0.10447   0.10776   0.11947   0.11995

 Mulliken charges:
               1
     1  Mg   0.815484
     2  C    0.096577
     3  C   -0.218672
     4  C   -0.157294
     5  C   -0.170285
     6  N   -0.600361
     7  C    0.289850
     8  C   -0.157557
     9  C   -0.124165
    10  C    0.286238
    11  C   -0.281418
    12  C   -0.153046
    13  C   -0.287849
    14  C    0.631312
    15  O   -0.507101
    16  O   -0.471047
    17  N   -0.783930
    18  C    0.396072
    19  C   -0.030186
    20  C    0.009418
    21  C    0.330636
    22  C   -0.358275
    23  C   -0.064003
    24  C   -0.257974
    25  N   -0.708499
    26  C    0.285318
    27  C    0.024457
    28  C    0.010753
    29  C    0.293002
    30  C   -0.369023
    31  C   -0.270470
    32  C   -0.313152
    33  N   -0.725729
    34  C    0.268452
    35  C    0.044031
    36  C    0.054480
    37  C    0.287073
    38  C   -0.373960
    39  C    0.334506
    40  O   -0.470693
    41  C   -0.339671
    42  C    0.625848
    43  O   -0.475611
    44  O   -0.470877
    45  C   -0.084022
    46  C    0.014899
    47  C   -0.171650
    48  C    0.178439
    49  C   -0.385231
    50  C   -0.223659
    51  C   -0.190708
    52  C   -0.165185
    53  C   -0.054906
    54  C   -0.320450
    55  C   -0.158594
    56  C   -0.142892
    57  C   -0.146337
    58  C   -0.067988
    59  C   -0.325493
    60  C   -0.142407
    61  C   -0.172855
    62  C   -0.137879
    63  C   -0.049786
    64  C   -0.290406
    65  C   -0.319004
    66  H    0.082956
    67  H    0.076315
    68  H    0.100061
    69  H    0.118585
    70  H    0.091882
    71  H    0.114796
    72  H    0.110175
    73  H    0.130246
    74  H    0.129355
    75  H    0.099286
    76  H    0.100232
    77  H    0.128874
    78  H    0.116620
    79  H    0.128384
    80  H    0.111062
    81  H    0.090341
    82  H    0.117201
    83  H    0.094664
    84  H    0.131656
    85  H    0.102896
    86  H    0.121411
    87  H    0.105128
    88  H    0.098886
    89  H    0.106703
    90  H    0.109574
    91  H    0.120338
    92  H    0.126521
    93  H    0.155025
    94  H    0.103912
    95  H    0.169573
    96  H    0.139558
    97  H    0.127252
    98  H    0.139711
    99  H    0.150861
   100  H    0.139774
   101  H    0.077556
   102  H    0.112139
   103  H    0.099478
   104  H    0.122963
   105  H    0.121997
   106  H    0.083967
   107  H    0.094138
   108  H    0.120011
   109  H    0.073538
   110  H    0.079509
   111  H    0.088646
   112  H    0.097243
   113  H    0.108036
   114  H    0.109381
   115  H    0.051641
   116  H    0.085668
   117  H    0.099201
   118  H    0.036495
   119  H    0.088058
   120  H    0.079386
   121  H    0.081414
   122  H    0.105969
   123  H    0.088741
   124  H    0.112910
   125  H    0.043115
   126  H    0.097913
   127  H    0.099936
   128  H    0.062834
   129  H    0.093347
   130  H    0.046213
   131  H    0.103340
   132  H    0.083644
   133  H    0.083028
   134  H    0.100753
   135  H    0.111242
   136  H    0.109473
   137  H    0.070713
 Sum of Mulliken charges =  -0.00000

 Dipole moment (field-independent basis, Debye):
    X=              3.6519    Y=              3.3813    Z=              0.7420  Tot=              5.0319
 Quadrupole moment (field-independent basis, Debye-Ang):
   XX=           -352.7712   YY=           -391.7678   ZZ=           -395.8664
   XY=            -37.2327   XZ=              6.7458   YZ=             -2.3575

 Normal termination of Gaussian 16 at Sat Jun 29 18:39:39 2019.
