 Gaussian 09, Revision D.01,
 Gaussian 09:  ES64L-G09RevD.01 24-Apr-2013

 -------------------------------------
 # td=(NStates=1) CAM-B3LYP/6-31G(d,p)
 -------------------------------------

 --
 TD
 --
 Symbolic Z-matrix:
 Charge =  0 Multiplicity = 1

                         Standard orientation:
 ---------------------------------------------------------------------
 Center     Atomic      Atomic             Coordinates (Angstroms)
 Number     Number       Type             X           Y           Z
 ---------------------------------------------------------------------
      1         12           0       -7.063774    0.580527    0.057304
      2          6           0       -4.771321   -1.923311    0.417175
      3          6           0       -4.795649    2.810974    1.219141
      4          6           0       -9.359155    3.057120   -0.283661
      5          6           0       -9.537152   -1.749405   -0.711482
      6          7           0       -5.051337    0.393415    0.708958
      7          6           0       -4.266250   -0.765069    0.718560
      8          6           0       -2.794619   -0.399406    1.124612
      9          6           0       -2.985650    1.066955    1.631546
     10          6           0       -4.360441    1.424420    1.119683
     11          6           0       -2.814919    1.239462    3.185227
     12          6           0       -1.789334   -0.575423    0.042254
     13          6           0       -0.388867   -0.337636    0.549273
     14          6           0        0.531193   -0.676134   -0.603336
     15          8           0        0.299038   -0.960370   -1.735563
     16          8           0        1.749207   -0.451126   -0.114482
     17          7           0       -7.047688    2.588406    0.340533
     18          6           0       -5.991909    3.314161    0.725885
     19          6           0       -6.352012    4.763359    0.728308
     20          6           0       -7.734962    4.812607    0.294501
     21          6           0       -8.153999    3.515827    0.063756
     22          6           0       -5.561105    5.948783    1.114550
     23          6           0       -8.446342    6.065675    0.115933
     24          6           0       -8.431177    7.162338    0.928186
     25          7           0       -9.071144    0.697585   -0.458543
     26          6           0       -9.798398    1.809548   -0.638514
     27          6           0      -11.087495    1.444144   -1.152556
     28          6           0      -11.101896    0.066724   -1.276134
     29          6           0       -9.829494   -0.380375   -0.873694
     30          6           0      -12.261235    2.345665   -1.413281
     31          6           0      -12.244731   -0.834513   -1.783527
     32          6           0      -12.021380   -1.202025   -3.206801
     33          7           0       -7.228588   -1.379784   -0.068648
     34          6           0       -8.237390   -2.287925   -0.349403
     35          6           0       -7.848611   -3.627383   -0.402736
     36          6           0       -6.471466   -3.510909   -0.152131
     37          6           0       -6.149238   -2.215533    0.044907
     38          6           0       -8.676785   -4.881858   -0.616534
     39          6           0       -5.379193   -4.354818    0.179058
     40          8           0       -5.282813   -5.535744    0.019906
     41          6           0       -4.079280   -3.328315    0.437836
     42          6           0       -3.515125   -3.743570    1.719342
     43          8           0       -3.793426   -3.072154    2.819467
     44          8           0       -2.667611   -4.714905    1.729808
     45          6           0       -2.199805   -5.225267    2.994351
     46          6           0        2.764753   -0.489516   -1.234551
     47          6           0        4.135228   -0.263790   -0.623503
     48          6           0        5.180397    0.611307   -1.050691
     49          6           0        5.083030    1.357426   -2.430257
     50          6           0        6.444265    0.649590   -0.315827
     51          6           0        7.649591   -0.091229   -0.932926
     52          6           0        8.838551   -0.000538   -0.090276
     53          6           0       10.094288   -0.530504   -0.838095
     54          6           0        9.928740   -1.998420   -1.276537
     55          6           0       11.462173   -0.276514    0.104340
     56          6           0       12.646030   -0.629461   -0.568760
     57          6           0       13.852454   -0.236797    0.311891
     58          6           0       15.292258   -0.287580   -0.420941
     59          6           0       15.567260   -1.717516   -0.912872
     60          6           0       16.314385    0.236164    0.522702
     61          6           0       17.711990    0.404036   -0.135073
     62          6           0       18.653525    1.063098    0.729602
     63          6           0       20.148262    1.380001    0.224382
     64          6           0       20.113069    2.219689   -1.121935
     65          6           0       21.010340    1.933912    1.281929
     66          1           0       -3.968291    3.590728    1.489419
     67          1           0      -10.335049    3.802918   -0.438566
     68          1           0      -10.290289   -2.562421   -1.159652
     69          1           0       -2.484516   -1.078118    1.913538
     70          1           0       -2.313082    1.779246    1.144198
     71          1           0       -1.754475    0.809889    3.384931
     72          1           0       -3.006714    2.225369    3.584376
     73          1           0       -3.260994    0.520958    3.724459
     74          1           0       -2.207861   -1.611317   -0.273421
     75          1           0       -1.988216    0.089424   -0.663991
     76          1           0       -0.418646    0.774236    0.949141
     77          1           0       -0.205013   -1.029147    1.357499
     78          1           0       -5.948415    6.793320    0.630781
     79          1           0       -5.586450    6.127264    2.357659
     80          1           0       -4.438689    5.713081    1.012764
     81          1           0       -9.243995    5.762132   -0.622486
     82          1           0       -9.081157    8.041222    0.820921
     83          1           0       -7.835159    7.283591    1.844944
     84          1           0      -12.114842    3.101644   -2.281863
     85          1           0      -13.217731    1.855158   -1.618632
     86          1           0      -12.452378    3.042181   -0.627976
     87          1           0      -12.170843   -1.649689   -1.204175
     88          1           0      -13.053432   -0.143792   -1.677678
     89          1           0      -12.854724   -1.814016   -3.703106
     90          1           0      -12.092715   -0.107327   -3.736290
     91          1           0      -10.951853   -1.455030   -3.355165
     92          1           0       -9.332855   -5.209542   -1.433778
     93          1           0       -8.026565   -5.541112   -0.197039
     94          1           0       -9.378127   -4.870659    0.255125
     95          1           0       -3.293191   -3.443716   -0.361535
     96          1           0       -1.615801   -4.465381    3.447029
     97          1           0       -3.082910   -5.410276    3.520659
     98          1           0       -1.667379   -6.096608    2.729454
     99          1           0        2.865738   -1.521548   -1.613345
    100          1           0        2.432843    0.292809   -2.111998
    101          1           0        4.264676   -0.862026    0.163368
    102          1           0        4.057637    1.363506   -2.765158
    103          1           0        5.556513    2.227545   -2.623649
    104          1           0        5.430248    0.723667   -3.202863
    105          1           0        6.558515    1.766632   -0.195530
    106          1           0        6.227747    0.249206    0.703430
    107          1           0        7.330477   -1.353931   -0.951489
    108          1           0        7.687848    0.217864   -2.017396
    109          1           0        9.013824    1.021856    0.237975
    110          1           0        8.575981   -0.797527    0.743847
    111          1           0       10.265389    0.086932   -1.750924
    112          1           0        8.936108   -2.104428   -1.838664
    113          1           0       10.580837   -2.084580   -2.177027
    114          1           0       10.142981   -2.678031   -0.470613
    115          1           0       11.359266    0.850216    0.299012
    116          1           0       11.023346   -0.699517    1.027941
    117          1           0       12.584065   -1.740849   -0.977730
    118          1           0       12.635596    0.073825   -1.463526
    119          1           0       13.749585    0.869738    0.595525
    120          1           0       13.800236   -0.887445    1.208940
    121          1           0       15.177585    0.558581   -1.223739
    122          1           0       15.545422   -2.319224    0.091268
    123          1           0       14.698880   -2.289255   -1.464885
    124          1           0       16.529730   -1.975057   -1.433708
    125          1           0       16.032903    1.131181    1.029741
    126          1           0       16.362660   -0.320659    1.435703
    127          1           0       18.051724   -0.496228   -0.446463
    128          1           0       17.475373    0.926446   -1.162366
    129          1           0       18.291820    1.998583    1.216950
    130          1           0       18.763097    0.357364    1.583511
    131          1           0       20.680570    0.488031   -0.320333
    132          1           0       19.872888    3.239955   -0.809785
    133          1           0       21.227268    2.493159   -1.410908
    134          1           0       19.427675    1.835039   -1.851761
    135          1           0       20.632263    1.418398    2.062020
    136          1           0       22.146988    1.932573    1.041723
    137          1           0       20.885094    3.020260    1.257178
 ---------------------------------------------------------------------

 SCF Done:  E(RCAM-B3LYP) =  -2932.70239168     A.U. after   17 cycles

 Excitation energies and oscillator strengths:

 Excited State   1:      Singlet-A      2.2190 eV  558.75 nm  f=0.2391  <S**2>=0.000
     240 -> 243        0.23787
     241 -> 242        0.65511
 This state for optimization and/or second-order correction.
 Total Energy, E(TD-HF/TD-KS) =  -2932.62084600
 Copying the excited state density for this state as the 1-particle RhoCI density.

 The electronic state is 1-A.
 Alpha  occ. eigenvalues --  -46.83506 -19.26944 -19.25979 -19.21058 -19.20370
 Alpha  occ. eigenvalues --  -19.17912 -14.41380 -14.39031 -14.38892 -14.38850
 Alpha  occ. eigenvalues --  -10.38533 -10.38472 -10.34726 -10.33013 -10.31359
 Alpha  occ. eigenvalues --  -10.30620 -10.30235 -10.29812 -10.29692 -10.29163
 Alpha  occ. eigenvalues --  -10.28975 -10.28500 -10.28493 -10.28381 -10.28232
 Alpha  occ. eigenvalues --  -10.28198 -10.28181 -10.28088 -10.27756 -10.27722
 Alpha  occ. eigenvalues --  -10.27513 -10.27500 -10.27493 -10.27384 -10.27305
 Alpha  occ. eigenvalues --  -10.27095 -10.27033 -10.26488 -10.26475 -10.26425
 Alpha  occ. eigenvalues --  -10.26401 -10.26329 -10.26324 -10.26244 -10.26183
 Alpha  occ. eigenvalues --  -10.26131 -10.26105 -10.25973 -10.25970 -10.25852
 Alpha  occ. eigenvalues --  -10.25744 -10.25654 -10.25363 -10.25302 -10.25277
 Alpha  occ. eigenvalues --  -10.25272 -10.25079 -10.24990 -10.24798 -10.24795
 Alpha  occ. eigenvalues --  -10.24543 -10.24517 -10.24101 -10.23966 -10.23752
 Alpha  occ. eigenvalues --   -3.12660  -1.87358  -1.86883  -1.86867  -1.19040
 Alpha  occ. eigenvalues --   -1.18527  -1.12071  -1.09485  -1.04664  -1.03891
 Alpha  occ. eigenvalues --   -1.03369  -1.03071  -1.01892  -0.91844  -0.91180
 Alpha  occ. eigenvalues --   -0.90843  -0.90603  -0.89915  -0.89397  -0.89316
 Alpha  occ. eigenvalues --   -0.87993  -0.87902  -0.87676  -0.86444  -0.86190
 Alpha  occ. eigenvalues --   -0.85473  -0.84612  -0.84000  -0.83101  -0.82885
 Alpha  occ. eigenvalues --   -0.82201  -0.81601  -0.81114  -0.80443  -0.78613
 Alpha  occ. eigenvalues --   -0.78133  -0.77512  -0.77041  -0.76631  -0.75802
 Alpha  occ. eigenvalues --   -0.75449  -0.75009  -0.74167  -0.73115  -0.72415
 Alpha  occ. eigenvalues --   -0.71412  -0.69977  -0.69237  -0.68712  -0.68143
 Alpha  occ. eigenvalues --   -0.67781  -0.66663  -0.65303  -0.64808  -0.63941
 Alpha  occ. eigenvalues --   -0.63879  -0.62995  -0.62413  -0.62018  -0.61628
 Alpha  occ. eigenvalues --   -0.61250  -0.61072  -0.60698  -0.59564  -0.59323
 Alpha  occ. eigenvalues --   -0.58547  -0.57964  -0.57576  -0.56911  -0.56660
 Alpha  occ. eigenvalues --   -0.56160  -0.55645  -0.55418  -0.54977  -0.54739
 Alpha  occ. eigenvalues --   -0.54378  -0.54192  -0.53927  -0.53809  -0.53248
 Alpha  occ. eigenvalues --   -0.53087  -0.52931  -0.52699  -0.51993  -0.51972
 Alpha  occ. eigenvalues --   -0.51736  -0.51610  -0.51350  -0.50666  -0.50486
 Alpha  occ. eigenvalues --   -0.50310  -0.50174  -0.50004  -0.49793  -0.49448
 Alpha  occ. eigenvalues --   -0.49234  -0.49122  -0.48960  -0.48631  -0.48591
 Alpha  occ. eigenvalues --   -0.48289  -0.48040  -0.47956  -0.47712  -0.47364
 Alpha  occ. eigenvalues --   -0.47169  -0.46845  -0.46659  -0.46291  -0.45942
 Alpha  occ. eigenvalues --   -0.45813  -0.45399  -0.45207  -0.45144  -0.45048
 Alpha  occ. eigenvalues --   -0.44678  -0.44501  -0.44285  -0.44105  -0.44071
 Alpha  occ. eigenvalues --   -0.44001  -0.43823  -0.43588  -0.43312  -0.43299
 Alpha  occ. eigenvalues --   -0.43085  -0.42892  -0.42623  -0.42540  -0.42230
 Alpha  occ. eigenvalues --   -0.42158  -0.42147  -0.41587  -0.41519  -0.41136
 Alpha  occ. eigenvalues --   -0.41039  -0.40947  -0.40766  -0.40495  -0.40431
 Alpha  occ. eigenvalues --   -0.39990  -0.39710  -0.39361  -0.39132  -0.39048
 Alpha  occ. eigenvalues --   -0.38858  -0.38572  -0.38486  -0.38240  -0.37982
 Alpha  occ. eigenvalues --   -0.37673  -0.37309  -0.36990  -0.36953  -0.36589
 Alpha  occ. eigenvalues --   -0.36435  -0.36363  -0.35900  -0.35658  -0.35428
 Alpha  occ. eigenvalues --   -0.34999  -0.34233  -0.34142  -0.33733  -0.33270
 Alpha  occ. eigenvalues --   -0.32386  -0.32061  -0.31264  -0.30956  -0.29425
 Alpha  occ. eigenvalues --   -0.29026  -0.28117  -0.28051  -0.26731  -0.23354
 Alpha  occ. eigenvalues --   -0.22030
 Alpha virt. eigenvalues --   -0.06634  -0.02492   0.01791   0.03767   0.05131
 Alpha virt. eigenvalues --    0.05706   0.05932   0.06445   0.06884   0.07776
 Alpha virt. eigenvalues --    0.08990   0.10613   0.10943   0.11375   0.11757

 Mulliken charges:
               1
     1  Mg   0.814236
     2  C    0.085745
     3  C   -0.224297
     4  C   -0.211434
     5  C   -0.167833
     6  N   -0.639998
     7  C    0.279306
     8  C   -0.163710
     9  C   -0.159744
    10  C    0.370214
    11  C   -0.307927
    12  C   -0.134017
    13  C   -0.277302
    14  C    0.631539
    15  O   -0.464316
    16  O   -0.482721
    17  N   -0.729824
    18  C    0.377808
    19  C    0.011680
    20  C    0.021844
    21  C    0.319102
    22  C   -0.368323
    23  C   -0.076402
    24  C   -0.255371
    25  N   -0.694502
    26  C    0.331483
    27  C    0.019026
    28  C   -0.014100
    29  C    0.294075
    30  C   -0.396207
    31  C   -0.188407
    32  C   -0.300049
    33  N   -0.723311
    34  C    0.220850
    35  C    0.039923
    36  C   -0.000409
    37  C    0.294038
    38  C   -0.379914
    39  C    0.339872
    40  O   -0.442305
    41  C   -0.348407
    42  C    0.617338
    43  O   -0.555760
    44  O   -0.430509
    45  C   -0.073184
    46  C    0.006604
    47  C   -0.138251
    48  C    0.099721
    49  C   -0.373389
    50  C   -0.225463
    51  C   -0.155276
    52  C   -0.149971
    53  C   -0.082747
    54  C   -0.319542
    55  C   -0.171752
    56  C   -0.160230
    57  C   -0.186138
    58  C   -0.051062
    59  C   -0.308273
    60  C   -0.174266
    61  C   -0.165046
    62  C   -0.181857
    63  C   -0.060431
    64  C   -0.316861
    65  C   -0.297652
    66  H    0.073817
    67  H    0.081146
    68  H    0.102924
    69  H    0.123234
    70  H    0.098659
    71  H    0.087279
    72  H    0.116870
    73  H    0.147203
    74  H    0.095207
    75  H    0.116266
    76  H    0.135810
    77  H    0.138673
    78  H    0.137282
    79  H    0.095644
    80  H    0.108200
    81  H    0.093458
    82  H    0.111606
    83  H    0.118588
    84  H    0.106004
    85  H    0.118420
    86  H    0.126108
    87  H    0.113101
    88  H    0.103900
    89  H    0.104896
    90  H    0.078203
    91  H    0.120007
    92  H    0.135439
    93  H    0.153334
    94  H    0.117739
    95  H    0.157369
    96  H    0.137174
    97  H    0.148482
    98  H    0.132563
    99  H    0.138549
   100  H    0.116135
   101  H    0.092374
   102  H    0.107342
   103  H    0.120393
   104  H    0.129840
   105  H    0.095848
   106  H    0.099474
   107  H    0.060239
   108  H    0.090984
   109  H    0.097403
   110  H    0.084807
   111  H    0.074846
   112  H    0.102658
   113  H    0.102176
   114  H    0.111172
   115  H    0.078755
   116  H    0.090943
   117  H    0.090565
   118  H    0.090459
   119  H    0.087335
   120  H    0.092646
   121  H    0.072194
   122  H    0.088544
   123  H    0.095922
   124  H    0.106021
   125  H    0.091407
   126  H    0.086899
   127  H    0.110983
   128  H    0.068979
   129  H    0.090063
   130  H    0.088431
   131  H    0.074003
   132  H    0.089834
   133  H    0.079684
   134  H    0.113159
   135  H    0.113014
   136  H    0.095223
   137  H    0.100177
 Sum of Mulliken charges =   0.00000

 Dipole moment (field-independent basis, Debye):
    X=              1.7875    Y=              4.0039    Z=              0.3474  Tot=              4.3985
 Quadrupole moment (field-independent basis, Debye-Ang):
   XX=           -353.7448   YY=           -385.2400   ZZ=           -398.4770
   XY=            -23.3598   XZ=             12.4004   YZ=             -3.6551

 Normal termination of Gaussian 09 at Sat Jul  6 05:03:12 2019.
