 Gaussian 16, Revision A.03,
 Gaussian 16:  ES64L-G16RevA.03 25-Dec-2016

 ----------------------------------------------------------------------
 # td=(NStates=1) iop(3/107=0140000000,3/108=0140000000) CAM-B3LYP/6-31
 G(d,p)
 ----------------------------------------------------------------------

 --
 TD
 --
 Symbolic Z-matrix:
 Charge =  0 Multiplicity = 1

                         Standard orientation:
 ---------------------------------------------------------------------
 Center     Atomic      Atomic             Coordinates (Angstroms)
 Number     Number       Type             X           Y           Z
 ---------------------------------------------------------------------
      1         12           0       -7.100461    0.590021    0.026050
      2          6           0       -4.896165   -1.922773    0.492524
      3          6           0       -4.761793    2.865098    1.088393
      4          6           0       -9.510715    3.251692   -0.334287
      5          6           0       -9.524726   -1.700016   -0.865118
      6          7           0       -5.091625    0.379197    0.644359
      7          6           0       -4.323250   -0.687941    0.853628
      8          6           0       -2.890279   -0.381483    1.133225
      9          6           0       -3.021735    1.067651    1.544748
     10          6           0       -4.430078    1.451156    1.062386
     11          6           0       -3.045744    1.258781    3.120639
     12          6           0       -1.914687   -0.629700   -0.002468
     13          6           0       -0.443142   -0.551202    0.417682
     14          6           0        0.514558   -0.649158   -0.616116
     15          8           0        0.154259   -1.059931   -1.593208
     16          8           0        1.759610   -0.459312   -0.161093
     17          7           0       -7.116713    2.619068    0.299242
     18          6           0       -6.067631    3.338830    0.725794
     19          6           0       -6.395427    4.784956    0.728781
     20          6           0       -7.716942    4.845958    0.328128
     21          6           0       -8.183871    3.495917    0.041548
     22          6           0       -5.523725    5.755267    1.238875
     23          6           0       -8.554133    6.016991    0.274727
     24          6           0       -8.423891    7.269308    0.790542
     25          7           0       -9.143765    0.725773   -0.614076
     26          6           0       -9.895223    1.949913   -0.633767
     27          6           0      -11.147996    1.575890   -1.203420
     28          6           0      -11.171234    0.175252   -1.293473
     29          6           0       -9.836845   -0.259655   -0.946265
     30          6           0      -12.189881    2.633501   -1.328798
     31          6           0      -12.331914   -0.635896   -1.760205
     32          6           0      -12.218981   -1.109206   -3.226711
     33          7           0       -7.252911   -1.366805   -0.166837
     34          6           0       -8.292192   -2.208961   -0.589032
     35          6           0       -7.886546   -3.603940   -0.530969
     36          6           0       -6.581980   -3.517729   -0.091800
     37          6           0       -6.152086   -2.163959    0.041659
     38          6           0       -8.752708   -4.878936   -0.743231
     39          6           0       -5.355160   -4.330948    0.165819
     40          8           0       -5.155410   -5.617766    0.023935
     41          6           0       -4.229402   -3.295234    0.596968
     42          6           0       -3.641250   -3.663941    1.844725
     43          8           0       -3.843261   -3.187366    2.973217
     44          8           0       -2.862799   -4.778559    1.808848
     45          6           0       -2.361788   -5.231617    3.072477
     46          6           0        2.745432   -0.723823   -1.274813
     47          6           0        4.105054   -0.660751   -0.599452
     48          6           0        5.157594    0.253752   -0.893791
     49          6           0        5.174626    1.116697   -2.102878
     50          6           0        6.509100    0.110753   -0.071866
     51          6           0        7.663923   -0.294292   -0.887374
     52          6           0        8.972209   -0.366690    0.024471
     53          6           0       10.278721   -0.768985   -0.805949
     54          6           0       10.227064   -2.197410   -1.188734
     55          6           0       11.477804   -0.392089    0.006508
     56          6           0       12.748957   -0.444963   -0.731938
     57          6           0       13.993270   -0.139564    0.095790
     58          6           0       15.407947   -0.156877   -0.584627
     59          6           0       15.801068   -1.550588   -1.041573
     60          6           0       16.458005    0.404238    0.486054
     61          6           0       17.783331    0.587039   -0.047819
     62          6           0       18.807476    1.407808    0.735509
     63          6           0       20.250195    1.568233    0.144713
     64          6           0       20.309508    2.426370   -1.116564
     65          6           0       21.130385    2.062874    1.258966
     66          1           0       -4.108035    3.611262    1.492769
     67          1           0      -10.119699    4.195880   -0.610718
     68          1           0      -10.338084   -2.426321   -1.211018
     69          1           0       -2.458810   -0.821747    2.076147
     70          1           0       -2.234318    1.862852    1.179216
     71          1           0       -2.226483    0.734947    3.577700
     72          1           0       -3.098632    2.305416    3.158344
     73          1           0       -3.968478    0.761771    3.564389
     74          1           0       -2.052078   -1.694609   -0.309723
     75          1           0       -2.075622    0.018590   -0.877467
     76          1           0       -0.289796    0.395692    1.037173
     77          1           0       -0.052911   -1.164955    1.399759
     78          1           0       -5.612024    6.737790    0.784183
     79          1           0       -5.633266    5.748733    2.356215
     80          1           0       -4.370595    5.554595    1.140873
     81          1           0       -9.348032    5.718866   -0.350234
     82          1           0       -9.024460    7.947298    0.618758
     83          1           0       -7.538681    7.410714    1.554177
     84          1           0      -11.811412    3.223936   -2.126381
     85          1           0      -13.095583    2.166530   -1.780264
     86          1           0      -12.526147    3.047000   -0.312244
     87          1           0      -12.371296   -1.464695   -1.073072
     88          1           0      -13.286196    0.089325   -1.455341
     89          1           0      -12.744738   -1.756960   -3.634045
     90          1           0      -12.279986   -0.071564   -3.659521
     91          1           0      -11.204990   -1.527209   -3.396632
     92          1           0       -9.198238   -4.813012   -1.685553
     93          1           0       -8.113569   -5.771675   -0.423815
     94          1           0       -9.543570   -4.835695   -0.052421
     95          1           0       -3.436883   -3.346092   -0.306178
     96          1           0       -2.015987   -4.288168    3.784844
     97          1           0       -3.164369   -5.598394    3.679623
     98          1           0       -1.517285   -5.923692    3.008677
     99          1           0        2.580740   -1.599768   -1.867843
    100          1           0        2.500006    0.341585   -1.860812
    101          1           0        4.371221   -1.296002    0.271891
    102          1           0        4.137217    0.950005   -2.611320
    103          1           0        5.292870    2.099376   -1.966057
    104          1           0        5.837680    0.703280   -2.764982
    105          1           0        6.839413    1.059681    0.327593
    106          1           0        6.130458   -0.330429    0.709345
    107          1           0        7.502439   -1.344229   -1.183570
    108          1           0        7.717844    0.333488   -1.811026
    109          1           0        9.190423    0.573751    0.557955
    110          1           0        8.765387   -0.951580    0.734947
    111          1           0       10.171026   -0.088818   -1.770668
    112          1           0        9.096434   -2.417156   -1.637688
    113          1           0       11.038296   -2.492644   -2.005775
    114          1           0       10.223601   -2.977341   -0.398113
    115          1           0       11.384931    0.654741    0.430891
    116          1           0       11.475392   -1.008556    0.976814
    117          1           0       12.753301   -1.405713   -1.331167
    118          1           0       12.970752    0.253924   -1.544097
    119          1           0       13.821515    0.890839    0.507037
    120          1           0       14.106450   -0.943694    0.885535
    121          1           0       15.557385    0.664061   -1.491698
    122          1           0       15.724867   -2.274297   -0.044516
    123          1           0       15.027283   -2.125071   -1.487027
    124          1           0       16.758516   -1.688413   -1.570116
    125          1           0       16.051993    1.453987    0.918438
    126          1           0       16.660506   -0.208632    1.469766
    127          1           0       18.172989   -0.391517   -0.135640
    128          1           0       17.749498    1.152689   -1.184961
    129          1           0       18.377371    2.428942    1.055896
    130          1           0       18.955443    0.980312    1.853467
    131          1           0       20.397047    0.541982   -0.010332
    132          1           0       19.976735    3.466626   -0.981127
    133          1           0       21.295172    2.397695   -1.377517
    134          1           0       19.884599    2.107699   -2.052316
    135          1           0       21.204030    1.330063    2.057056
    136          1           0       22.181952    2.025280    0.817087
    137          1           0       20.940272    3.016460    1.687988
 ---------------------------------------------------------------------

 SCF Done:  E(RCAM-B3LYP) =  -2933.47139878     A.U. after   16 cycles

 Excitation energies and oscillator strengths:

 Excited State   1:      Singlet-A      2.0087 eV  617.24 nm  f=0.2224  <S**2>=0.000
     240 -> 243       -0.24364
     241 -> 242        0.65460
 This state for optimization and/or second-order correction.
 Total Energy, E(TD-HF/TD-DFT) =  -2933.39758099
 Copying the excited state density for this state as the 1-particle RhoCI density.

 The electronic state is 1-A.
 Alpha  occ. eigenvalues --  -46.80153 -19.21381 -19.21307 -19.16504 -19.16412
 Alpha  occ. eigenvalues --  -19.15653 -14.38521 -14.35740 -14.35310 -14.34268
 Alpha  occ. eigenvalues --  -10.34154 -10.32530 -10.31834 -10.29323 -10.27043
 Alpha  occ. eigenvalues --  -10.26875 -10.26645 -10.25603 -10.25303 -10.25149
 Alpha  occ. eigenvalues --  -10.25014 -10.24730 -10.24723 -10.24118 -10.23982
 Alpha  occ. eigenvalues --  -10.23835 -10.23790 -10.23759 -10.23686 -10.23636
 Alpha  occ. eigenvalues --  -10.23533 -10.23109 -10.22972 -10.22927 -10.22791
 Alpha  occ. eigenvalues --  -10.22645 -10.22504 -10.22486 -10.22453 -10.22220
 Alpha  occ. eigenvalues --  -10.22177 -10.22145 -10.22070 -10.21881 -10.21833
 Alpha  occ. eigenvalues --  -10.21651 -10.21560 -10.21472 -10.21439 -10.21378
 Alpha  occ. eigenvalues --  -10.21331 -10.21325 -10.21291 -10.21229 -10.21006
 Alpha  occ. eigenvalues --  -10.20920 -10.20619 -10.20528 -10.20472 -10.20295
 Alpha  occ. eigenvalues --  -10.20276 -10.20098 -10.19921 -10.19568 -10.19117
 Alpha  occ. eigenvalues --   -3.08753  -1.83698  -1.83214  -1.83166  -1.15827
 Alpha  occ. eigenvalues --   -1.12230  -1.06978  -1.02010  -1.01767  -1.01314
 Alpha  occ. eigenvalues --   -0.99164  -0.98126  -0.97651  -0.88309  -0.86278
 Alpha  occ. eigenvalues --   -0.85809  -0.85155  -0.84563  -0.84498  -0.84054
 Alpha  occ. eigenvalues --   -0.83077  -0.82983  -0.82501  -0.82058  -0.81435
 Alpha  occ. eigenvalues --   -0.80608  -0.79852  -0.79542  -0.78722  -0.78020
 Alpha  occ. eigenvalues --   -0.76834  -0.76374  -0.75947  -0.75715  -0.74263
 Alpha  occ. eigenvalues --   -0.73474  -0.72328  -0.72095  -0.72036  -0.71641
 Alpha  occ. eigenvalues --   -0.70818  -0.70299  -0.69469  -0.68943  -0.68433
 Alpha  occ. eigenvalues --   -0.67458  -0.66589  -0.65368  -0.64728  -0.64411
 Alpha  occ. eigenvalues --   -0.63605  -0.62718  -0.61479  -0.60601  -0.60257
 Alpha  occ. eigenvalues --   -0.60168  -0.58754  -0.58200  -0.58128  -0.57457
 Alpha  occ. eigenvalues --   -0.57262  -0.56959  -0.55864  -0.55417  -0.55171
 Alpha  occ. eigenvalues --   -0.54943  -0.54299  -0.53966  -0.53694  -0.52899
 Alpha  occ. eigenvalues --   -0.52648  -0.51887  -0.51211  -0.51036  -0.50746
 Alpha  occ. eigenvalues --   -0.50504  -0.50130  -0.49823  -0.49764  -0.49556
 Alpha  occ. eigenvalues --   -0.49385  -0.49237  -0.48796  -0.48601  -0.48419
 Alpha  occ. eigenvalues --   -0.47904  -0.47717  -0.47605  -0.47482  -0.47342
 Alpha  occ. eigenvalues --   -0.47214  -0.47095  -0.46969  -0.46559  -0.46404
 Alpha  occ. eigenvalues --   -0.46275  -0.45893  -0.45798  -0.45525  -0.45025
 Alpha  occ. eigenvalues --   -0.44683  -0.44337  -0.44076  -0.43945  -0.43890
 Alpha  occ. eigenvalues --   -0.43669  -0.43472  -0.43421  -0.43159  -0.42945
 Alpha  occ. eigenvalues --   -0.42824  -0.42734  -0.42343  -0.42141  -0.42105
 Alpha  occ. eigenvalues --   -0.41638  -0.41518  -0.41299  -0.41162  -0.40998
 Alpha  occ. eigenvalues --   -0.40885  -0.40609  -0.40512  -0.40101  -0.39838
 Alpha  occ. eigenvalues --   -0.39756  -0.39406  -0.39138  -0.39076  -0.38827
 Alpha  occ. eigenvalues --   -0.38818  -0.38466  -0.38087  -0.37941  -0.37923
 Alpha  occ. eigenvalues --   -0.37605  -0.37397  -0.37283  -0.36997  -0.36911
 Alpha  occ. eigenvalues --   -0.36677  -0.36512  -0.36005  -0.35829  -0.35727
 Alpha  occ. eigenvalues --   -0.35524  -0.35443  -0.35310  -0.34929  -0.34646
 Alpha  occ. eigenvalues --   -0.34476  -0.34132  -0.33809  -0.33696  -0.33380
 Alpha  occ. eigenvalues --   -0.33251  -0.32936  -0.32855  -0.32569  -0.32159
 Alpha  occ. eigenvalues --   -0.31999  -0.31655  -0.31542  -0.30718  -0.30577
 Alpha  occ. eigenvalues --   -0.30481  -0.29287  -0.29166  -0.28530  -0.27340
 Alpha  occ. eigenvalues --   -0.26935  -0.26448  -0.25048  -0.24392  -0.22035
 Alpha  occ. eigenvalues --   -0.19768
 Alpha virt. eigenvalues --   -0.07031  -0.04474  -0.01639   0.01941   0.03051
 Alpha virt. eigenvalues --    0.03178   0.04363   0.04943   0.05265   0.05485
 Alpha virt. eigenvalues --    0.06111   0.08953   0.09432   0.09602   0.09746

 Mulliken charges:
               1
     1  Mg   0.808440
     2  C    0.053084
     3  C   -0.176104
     4  C   -0.166726
     5  C   -0.186896
     6  N   -0.630236
     7  C    0.326529
     8  C   -0.132996
     9  C   -0.185579
    10  C    0.366251
    11  C   -0.303842
    12  C   -0.148425
    13  C   -0.305280
    14  C    0.640809
    15  O   -0.414402
    16  O   -0.495776
    17  N   -0.731247
    18  C    0.319906
    19  C    0.065538
    20  C   -0.013494
    21  C    0.314768
    22  C   -0.423462
    23  C   -0.040370
    24  C   -0.225956
    25  N   -0.690391
    26  C    0.267914
    27  C    0.001377
    28  C   -0.015602
    29  C    0.368576
    30  C   -0.371405
    31  C   -0.252788
    32  C   -0.285096
    33  N   -0.750415
    34  C    0.300027
    35  C    0.007743
    36  C    0.031288
    37  C    0.298814
    38  C   -0.369664
    39  C    0.348454
    40  O   -0.492044
    41  C   -0.336061
    42  C    0.641951
    43  O   -0.499786
    44  O   -0.440689
    45  C   -0.079606
    46  C   -0.004230
    47  C   -0.126936
    48  C    0.069152
    49  C   -0.357987
    50  C   -0.195717
    51  C   -0.183939
    52  C   -0.178940
    53  C   -0.037405
    54  C   -0.299302
    55  C   -0.153113
    56  C   -0.177996
    57  C   -0.169765
    58  C   -0.044434
    59  C   -0.308467
    60  C   -0.146856
    61  C   -0.147567
    62  C   -0.170547
    63  C   -0.041384
    64  C   -0.314788
    65  C   -0.314458
    66  H    0.077523
    67  H    0.114912
    68  H    0.086828
    69  H    0.119248
    70  H    0.094987
    71  H    0.112114
    72  H    0.114273
    73  H    0.121430
    74  H    0.112272
    75  H    0.120651
    76  H    0.111231
    77  H    0.123122
    78  H    0.127222
    79  H    0.131665
    80  H    0.097395
    81  H    0.058882
    82  H    0.087105
    83  H    0.088090
    84  H    0.131522
    85  H    0.098497
    86  H    0.125338
    87  H    0.100992
    88  H    0.074427
    89  H    0.111076
    90  H    0.105877
    91  H    0.098592
    92  H    0.134576
    93  H    0.151918
    94  H    0.139501
    95  H    0.163296
    96  H    0.100808
    97  H    0.136223
    98  H    0.123284
    99  H    0.153898
   100  H    0.111708
   101  H    0.089105
   102  H    0.082865
   103  H    0.128389
   104  H    0.135594
   105  H    0.096018
   106  H    0.098142
   107  H    0.098710
   108  H    0.095384
   109  H    0.081130
   110  H    0.105849
   111  H    0.074422
   112  H    0.072781
   113  H    0.093151
   114  H    0.108083
   115  H    0.080471
   116  H    0.083011
   117  H    0.078658
   118  H    0.095864
   119  H    0.090385
   120  H    0.083220
   121  H    0.061045
   122  H    0.065196
   123  H    0.114825
   124  H    0.114567
   125  H    0.061438
   126  H    0.076712
   127  H    0.101658
   128  H    0.047351
   129  H    0.068558
   130  H    0.050090
   131  H    0.095202
   132  H    0.102542
   133  H    0.108775
   134  H    0.104496
   135  H    0.106154
   136  H    0.083703
   137  H    0.113520
 Sum of Mulliken charges =  -0.00000

 Dipole moment (field-independent basis, Debye):
    X=              2.7478    Y=              3.9280    Z=             -0.1059  Tot=              4.7949
 Quadrupole moment (field-independent basis, Debye-Ang):
   XX=           -354.4843   YY=           -400.8136   ZZ=           -397.5326
   XY=            -19.8425   XZ=              7.0435   YZ=             -0.9117

 Normal termination of Gaussian 16 at Thu Sep  5 11:55:47 2019.
