 Gaussian 16, Revision A.03,
 Gaussian 16:  ES64L-G16RevA.03 25-Dec-2016

 ----------------------------------------------------------------------
 # td=(NStates=1) iop(3/107=0140000000,3/108=0140000000) CAM-B3LYP/6-31
 G(d,p)
 ----------------------------------------------------------------------

 --
 TD
 --
 Symbolic Z-matrix:
 Charge =  0 Multiplicity = 1

                         Standard orientation:
 ---------------------------------------------------------------------
 Center     Atomic      Atomic             Coordinates (Angstroms)
 Number     Number       Type             X           Y           Z
 ---------------------------------------------------------------------
      1         12           0       -7.145240    0.622968   -0.064008
      2          6           0       -4.901497   -1.892985    0.426506
      3          6           0       -4.830789    2.852275    1.096710
      4          6           0       -9.519322    3.120718   -0.342946
      5          6           0       -9.540836   -1.785800   -0.993128
      6          7           0       -5.193662    0.430130    0.650564
      7          6           0       -4.368169   -0.685840    0.834019
      8          6           0       -2.973240   -0.347017    1.333903
      9          6           0       -3.174266    1.081836    1.781881
     10          6           0       -4.487617    1.478027    1.232441
     11          6           0       -3.226100    1.277369    3.390280
     12          6           0       -1.964437   -0.561946    0.290824
     13          6           0       -0.428811   -0.386286    0.756723
     14          6           0        0.515976   -0.791538   -0.336923
     15          8           0        0.324164   -1.456026   -1.366828
     16          8           0        1.755316   -0.349178    0.073363
     17          7           0       -7.091149    2.678789    0.293128
     18          6           0       -6.059747    3.332700    0.648651
     19          6           0       -6.451645    4.741893    0.720719
     20          6           0       -7.662004    4.889134    0.195530
     21          6           0       -8.158457    3.474332   -0.031973
     22          6           0       -5.500804    5.842932    1.171702
     23          6           0       -8.477227    6.120694    0.051115
     24          6           0       -8.117143    7.361048    0.619003
     25          7           0       -9.191736    0.714360   -0.618994
     26          6           0       -9.907387    1.875038   -0.709490
     27          6           0      -11.306765    1.396973   -1.116420
     28          6           0      -11.273628    0.038166   -1.310002
     29          6           0       -9.959906   -0.359011   -0.930922
     30          6           0      -12.406831    2.459014   -1.319722
     31          6           0      -12.475258   -0.836489   -1.660839
     32          6           0      -12.580404   -1.074419   -3.190343
     33          7           0       -7.231448   -1.337301   -0.244470
     34          6           0       -8.253435   -2.254471   -0.587936
     35          6           0       -7.761301   -3.578350   -0.595751
     36          6           0       -6.465803   -3.535611   -0.254789
     37          6           0       -6.163900   -2.128793    0.050434
     38          6           0       -8.535739   -4.860587   -1.039838
     39          6           0       -5.338487   -4.390245    0.240031
     40          8           0       -5.129878   -5.595242    0.199249
     41          6           0       -4.122692   -3.209231    0.532082
     42          6           0       -3.538505   -3.599287    1.881648
     43          8           0       -3.671538   -3.122097    2.971694
     44          8           0       -2.780390   -4.787710    1.750189
     45          6           0       -2.248012   -5.235416    2.987997
     46          6           0        2.758575   -0.768158   -0.991765
     47          6           0        4.105363   -0.421199   -0.357504
     48          6           0        5.101597    0.313980   -0.874501
     49          6           0        5.233562    1.010419   -2.210575
     50          6           0        6.547845    0.373061   -0.158355
     51          6           0        7.666338   -0.172193   -1.100244
     52          6           0        8.973339   -0.122375   -0.213483
     53          6           0       10.291017   -0.569333   -0.879415
     54          6           0       10.062310   -2.014557   -1.356310
     55          6           0       11.474708   -0.293359    0.001627
     56          6           0       12.763311   -0.365709   -0.721127
     57          6           0       13.940920   -0.067379    0.100435
     58          6           0       15.404827   -0.167740   -0.538164
     59          6           0       15.815355   -1.612682   -0.915531
     60          6           0       16.418053    0.533414    0.387389
     61          6           0       17.860271    0.569663   -0.143093
     62          6           0       18.929229    1.292915    0.772147
     63          6           0       20.280045    1.332641    0.105301
     64          6           0       20.436549    2.051477   -1.196150
     65          6           0       21.275275    1.980079    1.168778
     66          1           0       -4.089569    3.575361    1.430655
     67          1           0      -10.334228    3.820051   -0.540341
     68          1           0      -10.422464   -2.463034   -1.355849
     69          1           0       -2.846323   -0.891291    2.192568
     70          1           0       -2.399133    1.766664    1.478520
     71          1           0       -2.288451    0.723509    3.970324
     72          1           0       -3.099483    2.435708    3.520666
     73          1           0       -4.228978    0.979515    3.770099
     74          1           0       -2.201664   -1.691511   -0.188365
     75          1           0       -2.085530   -0.156858   -0.580187
     76          1           0       -0.429135    0.868036    0.988480
     77          1           0       -0.094668   -0.945398    1.589396
     78          1           0       -5.572841    6.771942    0.522298
     79          1           0       -5.578704    6.259401    2.118255
     80          1           0       -4.381482    5.539175    0.795905
     81          1           0       -9.383438    6.173760   -0.627204
     82          1           0       -8.828998    8.043500    0.508890
     83          1           0       -7.398329    7.603123    1.402545
     84          1           0      -12.097452    3.105520   -2.105178
     85          1           0      -13.350679    2.016338   -1.640428
     86          1           0      -12.558018    3.142138   -0.439791
     87          1           0      -12.517700   -1.601568   -0.937369
     88          1           0      -13.404946   -0.361231   -1.304485
     89          1           0      -13.318104   -2.077937   -3.254450
     90          1           0      -12.992987   -0.236589   -3.800867
     91          1           0      -11.636815   -1.444180   -3.434627
     92          1           0       -8.746277   -4.702055   -2.235081
     93          1           0       -7.869181   -5.742913   -1.070181
     94          1           0       -9.444529   -5.012179   -0.620565
     95          1           0       -3.251631   -3.472866   -0.254725
     96          1           0       -1.790726   -4.224655    3.538116
     97          1           0       -3.074501   -5.776976    3.665130
     98          1           0       -1.465857   -6.107546    2.895144
     99          1           0        2.637266   -1.766836   -1.283332
    100          1           0        2.450616   -0.297631   -1.936970
    101          1           0        4.061698   -1.227046    0.572578
    102          1           0        4.213826    1.219173   -2.598055
    103          1           0        5.813896    2.009565   -2.269729
    104          1           0        5.715378    0.542567   -2.953664
    105          1           0        6.625719    1.407167    0.302805
    106          1           0        6.653604   -0.377095    0.667586
    107          1           0        7.648808   -1.209740   -1.387262
    108          1           0        8.124275    0.414151   -1.906008
    109          1           0        8.924300    0.856230    0.204979
    110          1           0        8.794918   -0.799416    0.499060
    111          1           0       10.338088    0.162363   -1.798795
    112          1           0        9.259646   -2.103298   -1.873448
    113          1           0       10.996593   -2.559896   -1.673149
    114          1           0        9.958436   -2.654002   -0.383971
    115          1           0       11.260207    0.893890    0.265507
    116          1           0       11.463239   -1.150248    0.748808
    117          1           0       12.871514   -1.397145   -1.129521
    118          1           0       12.718465    0.282214   -1.622884
    119          1           0       13.893721    1.043872    0.453112
    120          1           0       13.929806   -0.616304    1.095945
    121          1           0       15.177180    0.249505   -1.516810
    122          1           0       15.780377   -1.974661    0.187330
    123          1           0       15.012085   -2.091932   -1.444155
    124          1           0       16.831396   -1.677461   -1.273223
    125          1           0       16.186896    1.598251    0.894895
    126          1           0       16.204824   -0.327107    1.355158
    127          1           0       18.432325   -0.458860   -0.398892
    128          1           0       17.875632    0.993864   -1.092578
    129          1           0       18.471511    2.270084    0.855212
    130          1           0       18.885451    0.836320    1.839878
    131          1           0       20.483753    0.259518   -0.133601
    132          1           0       20.096804    2.906511   -1.051792
    133          1           0       21.542166    2.239331   -1.318209
    134          1           0       20.110261    1.823307   -2.224330
    135          1           0       21.160149    1.375345    2.106531
    136          1           0       22.408360    1.794150    1.074922
    137          1           0       20.841293    2.930176    1.130100
 ---------------------------------------------------------------------

 SCF Done:  E(RCAM-B3LYP) =  -2933.44606130     A.U. after   16 cycles

 Excitation energies and oscillator strengths:

 Excited State   1:      Singlet-A      2.0030 eV  618.99 nm  f=0.2529  <S**2>=0.000
     240 -> 243        0.23215
     241 -> 242        0.66609
 This state for optimization and/or second-order correction.
 Total Energy, E(TD-HF/TD-DFT) =  -2933.37245216
 Copying the excited state density for this state as the 1-particle RhoCI density.

 The electronic state is 1-A.
 Alpha  occ. eigenvalues --  -46.80282 -19.21980 -19.20421 -19.17498 -19.17495
 Alpha  occ. eigenvalues --  -19.16873 -14.38255 -14.35829 -14.35688 -14.34975
 Alpha  occ. eigenvalues --  -10.34925 -10.34243 -10.31961 -10.27942 -10.26760
 Alpha  occ. eigenvalues --  -10.26557 -10.26529 -10.26060 -10.25571 -10.25462
 Alpha  occ. eigenvalues --  -10.25365 -10.25039 -10.24818 -10.24723 -10.24722
 Alpha  occ. eigenvalues --  -10.24281 -10.24239 -10.24203 -10.24138 -10.24129
 Alpha  occ. eigenvalues --  -10.23825 -10.23474 -10.23246 -10.23230 -10.23184
 Alpha  occ. eigenvalues --  -10.22749 -10.22565 -10.22447 -10.22417 -10.22414
 Alpha  occ. eigenvalues --  -10.22313 -10.22295 -10.22230 -10.22157 -10.22124
 Alpha  occ. eigenvalues --  -10.21984 -10.21899 -10.21835 -10.21777 -10.21730
 Alpha  occ. eigenvalues --  -10.21705 -10.21675 -10.21522 -10.21386 -10.21325
 Alpha  occ. eigenvalues --  -10.21223 -10.21180 -10.21171 -10.21088 -10.20805
 Alpha  occ. eigenvalues --  -10.20571 -10.20425 -10.20235 -10.18920 -10.18645
 Alpha  occ. eigenvalues --   -3.08883  -1.83826  -1.83342  -1.83300  -1.11807
 Alpha  occ. eigenvalues --   -1.11304  -1.06180  -1.03542  -1.02980  -1.00762
 Alpha  occ. eigenvalues --   -0.99156  -0.98067  -0.97312  -0.87018  -0.86400
 Alpha  occ. eigenvalues --   -0.85735  -0.84959  -0.84375  -0.83881  -0.83524
 Alpha  occ. eigenvalues --   -0.83302  -0.82958  -0.82450  -0.81662  -0.80986
 Alpha  occ. eigenvalues --   -0.80121  -0.78624  -0.77887  -0.77755  -0.77406
 Alpha  occ. eigenvalues --   -0.76684  -0.76027  -0.75404  -0.75022  -0.73581
 Alpha  occ. eigenvalues --   -0.72776  -0.72200  -0.72066  -0.71369  -0.70908
 Alpha  occ. eigenvalues --   -0.70441  -0.69499  -0.69011  -0.68619  -0.68275
 Alpha  occ. eigenvalues --   -0.66949  -0.66624  -0.65667  -0.64703  -0.63945
 Alpha  occ. eigenvalues --   -0.63426  -0.62223  -0.61914  -0.60771  -0.59735
 Alpha  occ. eigenvalues --   -0.59659  -0.59236  -0.59083  -0.58305  -0.57245
 Alpha  occ. eigenvalues --   -0.57024  -0.56658  -0.55765  -0.55400  -0.55161
 Alpha  occ. eigenvalues --   -0.54843  -0.53997  -0.53602  -0.52507  -0.52088
 Alpha  occ. eigenvalues --   -0.51874  -0.51425  -0.51216  -0.50990  -0.50962
 Alpha  occ. eigenvalues --   -0.50728  -0.50013  -0.49689  -0.49489  -0.49293
 Alpha  occ. eigenvalues --   -0.49145  -0.48891  -0.48307  -0.48261  -0.48158
 Alpha  occ. eigenvalues --   -0.47398  -0.47317  -0.47165  -0.46972  -0.46820
 Alpha  occ. eigenvalues --   -0.46474  -0.46340  -0.46045  -0.45803  -0.45571
 Alpha  occ. eigenvalues --   -0.45456  -0.45335  -0.45296  -0.45053  -0.44673
 Alpha  occ. eigenvalues --   -0.44576  -0.44311  -0.43882  -0.43787  -0.43650
 Alpha  occ. eigenvalues --   -0.43427  -0.43367  -0.43305  -0.43014  -0.42937
 Alpha  occ. eigenvalues --   -0.42715  -0.42681  -0.42114  -0.41946  -0.41646
 Alpha  occ. eigenvalues --   -0.41505  -0.41262  -0.41164  -0.41115  -0.40926
 Alpha  occ. eigenvalues --   -0.40815  -0.40548  -0.40359  -0.39971  -0.39754
 Alpha  occ. eigenvalues --   -0.39669  -0.39351  -0.39330  -0.39175  -0.38978
 Alpha  occ. eigenvalues --   -0.38854  -0.38577  -0.38217  -0.38101  -0.37904
 Alpha  occ. eigenvalues --   -0.37767  -0.37365  -0.37268  -0.36929  -0.36715
 Alpha  occ. eigenvalues --   -0.36481  -0.36366  -0.36270  -0.35912  -0.35584
 Alpha  occ. eigenvalues --   -0.35490  -0.35181  -0.35016  -0.34944  -0.34553
 Alpha  occ. eigenvalues --   -0.34521  -0.34086  -0.33993  -0.33649  -0.33457
 Alpha  occ. eigenvalues --   -0.32972  -0.32757  -0.32687  -0.32556  -0.32112
 Alpha  occ. eigenvalues --   -0.31871  -0.31439  -0.31129  -0.31048  -0.30795
 Alpha  occ. eigenvalues --   -0.30690  -0.30065  -0.29613  -0.28805  -0.27849
 Alpha  occ. eigenvalues --   -0.27623  -0.26826  -0.25658  -0.25209  -0.22120
 Alpha  occ. eigenvalues --   -0.19760
 Alpha virt. eigenvalues --   -0.06982  -0.03986  -0.00826   0.01324   0.02645
 Alpha virt. eigenvalues --    0.03601   0.03739   0.03984   0.04779   0.05505
 Alpha virt. eigenvalues --    0.06063   0.08684   0.09150   0.09336   0.09739

 Mulliken charges:
               1
     1  Mg   0.816918
     2  C    0.054314
     3  C   -0.189982
     4  C   -0.139712
     5  C   -0.189829
     6  N   -0.625767
     7  C    0.257263
     8  C   -0.083335
     9  C   -0.177134
    10  C    0.355576
    11  C   -0.303491
    12  C   -0.159179
    13  C   -0.252613
    14  C    0.620800
    15  O   -0.487474
    16  O   -0.480501
    17  N   -0.697418
    18  C    0.367843
    19  C    0.007451
    20  C    0.032237
    21  C    0.256405
    22  C   -0.393193
    23  C   -0.112305
    24  C   -0.226539
    25  N   -0.693640
    26  C    0.298465
    27  C   -0.001518
    28  C    0.021108
    29  C    0.295849
    30  C   -0.390447
    31  C   -0.252010
    32  C   -0.294893
    33  N   -0.739063
    34  C    0.285279
    35  C    0.015330
    36  C   -0.004159
    37  C    0.320754
    38  C   -0.365549
    39  C    0.381245
    40  O   -0.431200
    41  C   -0.346873
    42  C    0.618044
    43  O   -0.460343
    44  O   -0.453795
    45  C   -0.061845
    46  C   -0.019268
    47  C   -0.114298
    48  C    0.096450
    49  C   -0.363125
    50  C   -0.222792
    51  C   -0.196936
    52  C   -0.184924
    53  C   -0.060469
    54  C   -0.311889
    55  C   -0.142501
    56  C   -0.167042
    57  C   -0.163009
    58  C   -0.077862
    59  C   -0.297427
    60  C   -0.133812
    61  C   -0.184528
    62  C   -0.166777
    63  C   -0.078643
    64  C   -0.311111
    65  C   -0.305294
    66  H    0.080025
    67  H    0.087389
    68  H    0.097474
    69  H    0.134857
    70  H    0.106703
    71  H    0.094167
    72  H    0.099883
    73  H    0.133222
    74  H    0.081179
    75  H    0.127429
    76  H    0.110490
    77  H    0.154489
    78  H    0.118637
    79  H    0.134563
    80  H    0.087090
    81  H    0.095357
    82  H    0.096089
    83  H    0.103020
    84  H    0.130725
    85  H    0.111078
    86  H    0.116992
    87  H    0.117378
    88  H    0.101597
    89  H    0.069517
    90  H    0.122719
    91  H    0.128129
    92  H    0.098531
    93  H    0.147167
    94  H    0.135196
    95  H    0.159926
    96  H    0.101015
    97  H    0.103592
    98  H    0.108911
    99  H    0.148668
   100  H    0.119193
   101  H    0.091173
   102  H    0.104875
   103  H    0.103179
   104  H    0.147867
   105  H    0.110769
   106  H    0.102621
   107  H    0.108333
   108  H    0.096465
   109  H    0.087738
   110  H    0.096324
   111  H    0.055852
   112  H    0.118207
   113  H    0.101132
   114  H    0.080512
   115  H    0.073662
   116  H    0.086950
   117  H    0.084112
   118  H    0.090038
   119  H    0.073524
   120  H    0.073484
   121  H    0.080205
   122  H    0.080573
   123  H    0.107222
   124  H    0.114705
   125  H    0.083634
   126  H    0.040662
   127  H    0.069562
   128  H    0.112264
   129  H    0.084039
   130  H    0.090374
   131  H    0.079909
   132  H    0.114233
   133  H    0.096522
   134  H    0.102455
   135  H    0.099174
   136  H    0.093979
   137  H    0.115458
 Sum of Mulliken charges =  -0.00000

 Dipole moment (field-independent basis, Debye):
    X=              0.9511    Y=              4.7641    Z=             -0.9967  Tot=              4.9593
 Quadrupole moment (field-independent basis, Debye-Ang):
   XX=           -337.9515   YY=           -400.2625   ZZ=           -398.1787
   XY=            -14.5123   XZ=              4.6626   YZ=              0.7794

 Normal termination of Gaussian 16 at Wed Sep 11 11:54:37 2019.
