 Gaussian 16, Revision A.03,
 Gaussian 16:  ES64L-G16RevA.03 25-Dec-2016

 ----------------------------------------------------------------------
 # td=(NStates=1) iop(3/107=0140000000,3/108=0140000000) CAM-B3LYP/6-31
 G(d,p)
 ----------------------------------------------------------------------

 --
 TD
 --
 Symbolic Z-matrix:
 Charge =  0 Multiplicity = 1

                         Standard orientation:
 ---------------------------------------------------------------------
 Center     Atomic      Atomic             Coordinates (Angstroms)
 Number     Number       Type             X           Y           Z
 ---------------------------------------------------------------------
      1         12           0       -7.225034    0.629069    0.133885
      2          6           0       -4.905745   -1.968036    0.485300
      3          6           0       -4.801795    2.834493    1.113346
      4          6           0       -9.428689    3.172163   -0.436732
      5          6           0       -9.640714   -1.661413   -0.861248
      6          7           0       -5.207086    0.367333    0.694817
      7          6           0       -4.451943   -0.681172    0.906711
      8          6           0       -2.909699   -0.341694    1.213054
      9          6           0       -3.078785    1.080233    1.615778
     10          6           0       -4.391631    1.456550    1.182859
     11          6           0       -2.888842    1.216245    3.223393
     12          6           0       -2.013096   -0.604931    0.023838
     13          6           0       -0.496720   -0.566809    0.460343
     14          6           0        0.492865   -0.695973   -0.709455
     15          8           0        0.219026   -0.948134   -1.848856
     16          8           0        1.808748   -0.445469   -0.304653
     17          7           0       -7.181660    2.583202    0.335690
     18          6           0       -6.081267    3.326777    0.779254
     19          6           0       -6.497164    4.734077    0.843570
     20          6           0       -7.706106    4.776741    0.379826
     21          6           0       -8.214590    3.549350    0.081147
     22          6           0       -5.584626    5.933816    1.191124
     23          6           0       -8.507669    5.977263    0.206759
     24          6           0       -8.357091    7.166859    0.834370
     25          7           0       -9.104804    0.718014   -0.545131
     26          6           0       -9.779596    1.860529   -0.744320
     27          6           0      -11.164785    1.551269   -1.088803
     28          6           0      -11.293462    0.143814   -1.207075
     29          6           0       -9.940121   -0.291618   -0.856858
     30          6           0      -12.429630    2.455676   -1.274149
     31          6           0      -12.420108   -0.733931   -1.571110
     32          6           0      -12.365743   -1.184801   -3.134767
     33          7           0       -7.243215   -1.349177   -0.230130
     34          6           0       -8.358364   -2.211602   -0.550608
     35          6           0       -7.795746   -3.593069   -0.639274
     36          6           0       -6.588723   -3.485788   -0.209269
     37          6           0       -6.234996   -2.154498   -0.029385
     38          6           0       -8.633508   -4.770267   -0.873561
     39          6           0       -5.442832   -4.374193    0.087612
     40          8           0       -5.258307   -5.576006    0.100977
     41          6           0       -4.207654   -3.299592    0.533128
     42          6           0       -3.682160   -3.767044    1.936076
     43          8           0       -3.790233   -3.153049    2.959537
     44          8           0       -2.845710   -4.837483    1.864412
     45          6           0       -2.491448   -5.398343    3.077127
     46          6           0        2.859068   -0.639814   -1.416469
     47          6           0        4.148540   -0.450517   -0.705083
     48          6           0        5.122951    0.331589   -0.957942
     49          6           0        5.218503    1.093411   -2.337602
     50          6           0        6.365816    0.446352   -0.271653
     51          6           0        7.625207   -0.137979   -1.023954
     52          6           0        8.995853   -0.050651   -0.215726
     53          6           0       10.274025   -0.367341   -0.854011
     54          6           0       10.229351   -1.892888   -1.460204
     55          6           0       11.467598   -0.323867   -0.008348
     56          6           0       12.890454   -0.472175   -0.575480
     57          6           0       14.117052   -0.183097    0.327271
     58          6           0       15.423504   -0.263702   -0.334349
     59          6           0       15.837894   -1.644221   -0.843477
     60          6           0       16.516043    0.396937    0.544851
     61          6           0       17.937941    0.575247   -0.083011
     62          6           0       18.870649    1.215365    0.838846
     63          6           0       20.340299    1.304169    0.181705
     64          6           0       20.367810    2.241449   -1.068168
     65          6           0       21.396852    1.744916    1.310060
     66          1           0       -3.949934    3.577627    1.241878
     67          1           0      -10.235640    3.924513   -0.492742
     68          1           0      -10.392505   -2.308427   -1.307438
     69          1           0       -2.365028   -0.853066    1.953844
     70          1           0       -2.328911    1.860238    1.192896
     71          1           0       -1.782398    1.034481    3.299259
     72          1           0       -3.404180    2.148960    3.561419
     73          1           0       -3.498905    0.359585    3.801719
     74          1           0       -2.029208   -1.595586   -0.563460
     75          1           0       -2.180849    0.347012   -0.546654
     76          1           0       -0.092592    0.317741    1.035276
     77          1           0        0.005599   -1.294899    1.238362
     78          1           0       -5.901932    6.792832    0.542368
     79          1           0       -5.669768    5.958273    2.285748
     80          1           0       -4.434161    5.674367    1.239978
     81          1           0       -9.401943    5.895513   -0.558585
     82          1           0       -9.027266    7.859688    0.505440
     83          1           0       -7.616525    7.384934    1.583772
     84          1           0      -12.238189    3.077801   -2.141604
     85          1           0      -13.396362    1.764246   -1.288139
     86          1           0      -12.542948    3.196281   -0.308191
     87          1           0      -12.727593   -1.507392   -0.908171
     88          1           0      -13.222190   -0.117767   -1.593024
     89          1           0      -13.196916   -1.732022   -3.368862
     90          1           0      -12.257916   -0.335836   -3.687100
     91          1           0      -11.273720   -1.607903   -3.134165
     92          1           0       -8.872072   -4.772014   -1.958728
     93          1           0       -7.946631   -5.650809   -0.628915
     94          1           0       -9.472789   -4.914061   -0.261636
     95          1           0       -3.286202   -3.483113   -0.206635
     96          1           0       -1.900580   -4.731636    3.701414
     97          1           0       -3.469668   -5.654053    3.629917
     98          1           0       -1.837046   -6.519919    3.124460
     99          1           0        2.736201   -1.779451   -1.615589
    100          1           0        2.644955    0.157658   -2.312151
    101          1           0        4.050220   -0.822048    0.453605
    102          1           0        4.157398    1.290994   -2.786632
    103          1           0        5.881372    2.185570   -2.121293
    104          1           0        6.103736    0.569873   -3.045698
    105          1           0        6.467179    1.552553   -0.399805
    106          1           0        6.345727    0.009747    0.669660
    107          1           0        7.565827   -1.219535   -1.473761
    108          1           0        7.671078    0.698490   -1.757522
    109          1           0        8.917544    1.041793    0.218183
    110          1           0        8.788877   -0.663198    0.608782
    111          1           0       10.537523    0.331082   -1.734138
    112          1           0        9.367755   -2.076013   -2.118401
    113          1           0       11.237358   -2.010431   -1.963714
    114          1           0       10.088002   -2.551809   -0.556595
    115          1           0       11.448997    0.549263    0.460689
    116          1           0       11.290112   -1.103328    0.858478
    117          1           0       13.050132   -1.471865   -1.074202
    118          1           0       13.283623    0.284011   -1.330140
    119          1           0       13.945644    0.799432    0.809859
    120          1           0       14.056057   -0.697401    1.140002
    121          1           0       15.418273    0.421403   -1.199350
    122          1           0       16.042523   -2.406506   -0.047114
    123          1           0       15.103537   -2.007535   -1.451207
    124          1           0       16.690402   -1.562751   -1.355870
    125          1           0       15.915024    1.277300    0.934791
    126          1           0       16.712347   -0.294812    1.415635
    127          1           0       18.298027   -0.295867   -0.321638
    128          1           0       17.809516    1.133180   -1.126102
    129          1           0       18.595400    2.231164    1.098622
    130          1           0       19.232183    0.736614    1.771714
    131          1           0       20.550101    0.284916   -0.019791
    132          1           0       20.290546    3.219819   -0.828121
    133          1           0       21.466458    2.391706   -1.389345
    134          1           0       19.803861    1.805032   -1.933349
    135          1           0       21.193575    1.073530    2.137158
    136          1           0       22.502454    1.675967    1.145195
    137          1           0       21.197621    2.796974    1.479235
 ---------------------------------------------------------------------

 SCF Done:  E(RCAM-B3LYP) =  -2933.47342333     A.U. after   16 cycles

 Excitation energies and oscillator strengths:

 Excited State   1:      Singlet-A      2.0643 eV  600.62 nm  f=0.1917  <S**2>=0.000
     240 -> 243       -0.27155
     241 -> 242        0.64952
 This state for optimization and/or second-order correction.
 Total Energy, E(TD-HF/TD-DFT) =  -2933.39756294
 Copying the excited state density for this state as the 1-particle RhoCI density.

 The electronic state is 1-A.
 Alpha  occ. eigenvalues --  -46.78698 -19.21514 -19.20612 -19.17432 -19.16482
 Alpha  occ. eigenvalues --  -19.16351 -14.38351 -14.35181 -14.35103 -14.34873
 Alpha  occ. eigenvalues --  -10.34380 -10.34066 -10.31496 -10.29510 -10.27944
 Alpha  occ. eigenvalues --  -10.26906 -10.26815 -10.25654 -10.25433 -10.25308
 Alpha  occ. eigenvalues --  -10.25136 -10.24736 -10.24348 -10.24143 -10.24077
 Alpha  occ. eigenvalues --  -10.24050 -10.23915 -10.23888 -10.23818 -10.23701
 Alpha  occ. eigenvalues --  -10.23241 -10.23200 -10.23172 -10.23075 -10.23050
 Alpha  occ. eigenvalues --  -10.22886 -10.22800 -10.22682 -10.22515 -10.22388
 Alpha  occ. eigenvalues --  -10.22245 -10.22182 -10.21905 -10.21833 -10.21710
 Alpha  occ. eigenvalues --  -10.21503 -10.21445 -10.21437 -10.21413 -10.21357
 Alpha  occ. eigenvalues --  -10.21062 -10.21049 -10.20958 -10.20898 -10.20683
 Alpha  occ. eigenvalues --  -10.20658 -10.20564 -10.20490 -10.20479 -10.20462
 Alpha  occ. eigenvalues --  -10.20362 -10.20222 -10.20023 -10.18922 -10.18471
 Alpha  occ. eigenvalues --   -3.07634  -1.82549  -1.82128  -1.82049  -1.13653
 Alpha  occ. eigenvalues --   -1.10766  -1.06734  -1.04624  -1.02658  -1.00028
 Alpha  occ. eigenvalues --   -0.99029  -0.98582  -0.97110  -0.87316  -0.86235
 Alpha  occ. eigenvalues --   -0.86195  -0.85735  -0.84899  -0.84530  -0.84176
 Alpha  occ. eigenvalues --   -0.83641  -0.83256  -0.82899  -0.82036  -0.80572
 Alpha  occ. eigenvalues --   -0.79841  -0.78621  -0.77988  -0.77910  -0.77176
 Alpha  occ. eigenvalues --   -0.76563  -0.76032  -0.75332  -0.74541  -0.73811
 Alpha  occ. eigenvalues --   -0.73016  -0.71781  -0.71603  -0.71068  -0.70639
 Alpha  occ. eigenvalues --   -0.69990  -0.69867  -0.69626  -0.68706  -0.68070
 Alpha  occ. eigenvalues --   -0.67445  -0.66650  -0.65927  -0.65187  -0.63657
 Alpha  occ. eigenvalues --   -0.62942  -0.62410  -0.61091  -0.60952  -0.60237
 Alpha  occ. eigenvalues --   -0.59730  -0.59443  -0.58913  -0.58025  -0.57803
 Alpha  occ. eigenvalues --   -0.57135  -0.56975  -0.56311  -0.55344  -0.54271
 Alpha  occ. eigenvalues --   -0.53954  -0.53544  -0.53453  -0.52545  -0.52267
 Alpha  occ. eigenvalues --   -0.51921  -0.51414  -0.51327  -0.51087  -0.50934
 Alpha  occ. eigenvalues --   -0.50422  -0.50205  -0.49841  -0.49474  -0.49054
 Alpha  occ. eigenvalues --   -0.48741  -0.48406  -0.48399  -0.48193  -0.47999
 Alpha  occ. eigenvalues --   -0.47820  -0.47650  -0.47303  -0.47131  -0.47030
 Alpha  occ. eigenvalues --   -0.46730  -0.46496  -0.46156  -0.45947  -0.45842
 Alpha  occ. eigenvalues --   -0.45692  -0.45451  -0.45236  -0.45181  -0.44927
 Alpha  occ. eigenvalues --   -0.44603  -0.44491  -0.44438  -0.44242  -0.43783
 Alpha  occ. eigenvalues --   -0.43452  -0.43251  -0.43040  -0.43007  -0.42669
 Alpha  occ. eigenvalues --   -0.42378  -0.42079  -0.41969  -0.41876  -0.41421
 Alpha  occ. eigenvalues --   -0.41293  -0.41168  -0.41030  -0.40897  -0.40781
 Alpha  occ. eigenvalues --   -0.40672  -0.40365  -0.40302  -0.40166  -0.40003
 Alpha  occ. eigenvalues --   -0.39801  -0.39578  -0.39454  -0.39327  -0.39231
 Alpha  occ. eigenvalues --   -0.39071  -0.38606  -0.38407  -0.38158  -0.38027
 Alpha  occ. eigenvalues --   -0.37841  -0.37733  -0.37435  -0.37278  -0.36852
 Alpha  occ. eigenvalues --   -0.36844  -0.36135  -0.36012  -0.35843  -0.35794
 Alpha  occ. eigenvalues --   -0.35757  -0.35518  -0.35379  -0.35015  -0.34862
 Alpha  occ. eigenvalues --   -0.34424  -0.34188  -0.34071  -0.33821  -0.33699
 Alpha  occ. eigenvalues --   -0.33527  -0.33099  -0.33003  -0.32825  -0.32464
 Alpha  occ. eigenvalues --   -0.32286  -0.32057  -0.31554  -0.30783  -0.30321
 Alpha  occ. eigenvalues --   -0.30154  -0.29756  -0.29459  -0.28750  -0.27682
 Alpha  occ. eigenvalues --   -0.27576  -0.26713  -0.25681  -0.25125  -0.21556
 Alpha  occ. eigenvalues --   -0.19847
 Alpha virt. eigenvalues --   -0.06588  -0.04082   0.00097   0.02136   0.03859
 Alpha virt. eigenvalues --    0.04101   0.04370   0.04533   0.05058   0.05425
 Alpha virt. eigenvalues --    0.06448   0.08135   0.08807   0.09229   0.09527

 Mulliken charges:
               1
     1  Mg   0.813261
     2  C    0.051700
     3  C   -0.224579
     4  C   -0.171450
     5  C   -0.180236
     6  N   -0.591760
     7  C    0.314154
     8  C   -0.117155
     9  C   -0.177391
    10  C    0.344178
    11  C   -0.306476
    12  C   -0.153271
    13  C   -0.298001
    14  C    0.602597
    15  O   -0.458225
    16  O   -0.517087
    17  N   -0.744385
    18  C    0.318137
    19  C   -0.006500
    20  C    0.082343
    21  C    0.303178
    22  C   -0.377713
    23  C   -0.103666
    24  C   -0.236216
    25  N   -0.697659
    26  C    0.321749
    27  C   -0.022379
    28  C    0.047700
    29  C    0.296921
    30  C   -0.368663
    31  C   -0.263951
    32  C   -0.312868
    33  N   -0.722240
    34  C    0.220511
    35  C    0.005074
    36  C    0.068059
    37  C    0.336206
    38  C   -0.388442
    39  C    0.365069
    40  O   -0.443775
    41  C   -0.356322
    42  C    0.608430
    43  O   -0.452110
    44  O   -0.423328
    45  C   -0.071409
    46  C    0.019389
    47  C   -0.131734
    48  C    0.180040
    49  C   -0.350761
    50  C   -0.227972
    51  C   -0.174249
    52  C   -0.162689
    53  C   -0.056317
    54  C   -0.319854
    55  C   -0.141180
    56  C   -0.191422
    57  C   -0.173703
    58  C   -0.065623
    59  C   -0.309119
    60  C   -0.174542
    61  C   -0.161004
    62  C   -0.162122
    63  C   -0.076994
    64  C   -0.309103
    65  C   -0.328448
    66  H    0.083359
    67  H    0.092431
    68  H    0.093298
    69  H    0.120670
    70  H    0.104691
    71  H    0.114382
    72  H    0.115756
    73  H    0.119737
    74  H    0.133388
    75  H    0.118315
    76  H    0.131416
    77  H    0.129703
    78  H    0.134586
    79  H    0.134278
    80  H    0.095627
    81  H    0.077970
    82  H    0.096120
    83  H    0.108909
    84  H    0.131878
    85  H    0.110828
    86  H    0.095038
    87  H    0.115276
    88  H    0.102471
    89  H    0.116229
    90  H    0.125435
    91  H    0.096346
    92  H    0.126475
    93  H    0.134208
    94  H    0.139087
    95  H    0.138597
    96  H    0.124270
    97  H    0.113059
    98  H    0.085129
    99  H    0.132813
   100  H    0.118412
   101  H    0.080057
   102  H    0.103681
   103  H    0.067443
   104  H    0.119093
   105  H    0.100281
   106  H    0.094289
   107  H    0.089945
   108  H    0.092612
   109  H    0.068613
   110  H    0.097390
   111  H    0.073928
   112  H    0.100061
   113  H    0.104830
   114  H    0.095426
   115  H    0.096664
   116  H    0.066076
   117  H    0.089160
   118  H    0.083928
   119  H    0.076166
   120  H    0.099814
   121  H    0.076536
   122  H    0.091227
   123  H    0.106785
   124  H    0.110600
   125  H    0.079309
   126  H    0.078565
   127  H    0.107207
   128  H    0.074330
   129  H    0.091760
   130  H    0.086634
   131  H    0.089767
   132  H    0.114798
   133  H    0.079144
   134  H    0.104661
   135  H    0.100473
   136  H    0.098393
   137  H    0.105569
 Sum of Mulliken charges =  -0.00000

 Dipole moment (field-independent basis, Debye):
    X=              1.0190    Y=              3.8675    Z=              0.9011  Tot=              4.0998
 Quadrupole moment (field-independent basis, Debye-Ang):
   XX=           -327.1595   YY=           -396.4945   ZZ=           -400.4249
   XY=            -14.7013   XZ=             10.0783   YZ=             -1.1578

 Normal termination of Gaussian 16 at Wed Sep  4 04:54:34 2019.
