 Gaussian 09, Revision D.01,
 Gaussian 09:  ES64L-G09RevD.01 24-Apr-2013

 -------------------------------------
 # td=(NStates=1) CAM-B3LYP/6-31G(d,p)
 -------------------------------------

 --
 TD
 --
 Symbolic Z-matrix:
 Charge =  0 Multiplicity = 1

                         Standard orientation:
 ---------------------------------------------------------------------
 Center     Atomic      Atomic             Coordinates (Angstroms)
 Number     Number       Type             X           Y           Z
 ---------------------------------------------------------------------
      1         12           0       -7.082300    0.565585    0.099028
      2          6           0       -4.827251   -1.930873    0.456418
      3          6           0       -4.764794    2.887673    0.973009
      4          6           0       -9.406455    3.097877   -0.342511
      5          6           0       -9.493355   -1.604262   -0.897759
      6          7           0       -5.133083    0.489386    0.735319
      7          6           0       -4.262707   -0.702101    0.673333
      8          6           0       -2.834136   -0.323179    1.064496
      9          6           0       -2.962551    1.139660    1.484791
     10          6           0       -4.329655    1.551696    0.987562
     11          6           0       -3.025999    1.233082    3.136236
     12          6           0       -1.833245   -0.532626    0.009399
     13          6           0       -0.370558   -0.457840    0.529947
     14          6           0        0.517024   -0.822529   -0.593854
     15          8           0        0.202580   -1.138579   -1.710946
     16          8           0        1.735698   -0.395372   -0.348864
     17          7           0       -7.069201    2.550865    0.268597
     18          6           0       -6.134361    3.345567    0.653739
     19          6           0       -6.379674    4.752430    0.758205
     20          6           0       -7.766905    4.912243    0.305656
     21          6           0       -8.123128    3.549549    0.015902
     22          6           0       -5.544483    5.919083    1.168377
     23          6           0       -8.610391    6.055840    0.123463
     24          6           0       -8.614424    7.262559    0.820216
     25          7           0       -9.176156    0.579572   -0.520154
     26          6           0       -9.886621    1.790102   -0.585945
     27          6           0      -11.218390    1.502838   -1.060278
     28          6           0      -11.220731    0.156731   -1.188575
     29          6           0       -9.934975   -0.349238   -0.968299
     30          6           0      -12.386284    2.466985   -1.245014
     31          6           0      -12.330623   -0.696452   -1.706912
     32          6           0      -12.370509   -1.086621   -3.099786
     33          7           0       -7.215629   -1.410954   -0.083249
     34          6           0       -8.323509   -2.227337   -0.475793
     35          6           0       -7.804737   -3.626837   -0.532989
     36          6           0       -6.487323   -3.555868   -0.099006
     37          6           0       -6.171925   -2.210913    0.206572
     38          6           0       -8.601706   -4.883655   -0.908930
     39          6           0       -5.299939   -4.383124    0.181281
     40          8           0       -5.168565   -5.590351    0.251948
     41          6           0       -4.146364   -3.322257    0.543986
     42          6           0       -3.506372   -3.648864    1.852627
     43          8           0       -3.878508   -3.132759    2.949655
     44          8           0       -2.768677   -4.758922    1.701845
     45          6           0       -2.156494   -5.297075    3.009754
     46          6           0        2.925083   -0.869282   -1.267817
     47          6           0        4.122312   -0.574691   -0.537547
     48          6           0        5.106522    0.297968   -0.864467
     49          6           0        5.040063    1.304999   -2.095744
     50          6           0        6.384876    0.356799   -0.068347
     51          6           0        7.632694   -0.269815   -0.817115
     52          6           0        8.947342   -0.176102   -0.072600
     53          6           0       10.142340   -0.584800   -0.769058
     54          6           0       10.211780   -2.179446   -1.086172
     55          6           0       11.439422   -0.299588    0.044126
     56          6           0       12.805108   -0.582184   -0.684721
     57          6           0       13.978319   -0.111091    0.090658
     58          6           0       15.363363   -0.151987   -0.508810
     59          6           0       15.822718   -1.624932   -0.959721
     60          6           0       16.287188    0.478134    0.410406
     61          6           0       17.811874    0.534067   -0.095102
     62          6           0       18.821112    1.451031    0.676542
     63          6           0       20.217136    1.539004    0.244149
     64          6           0       20.349112    2.202697   -1.112349
     65          6           0       21.149845    2.106382    1.198825
     66          1           0       -4.113252    3.659319    1.228083
     67          1           0      -10.155516    3.900843   -0.592729
     68          1           0      -10.271643   -2.447304   -1.218082
     69          1           0       -2.474544   -0.962547    1.817830
     70          1           0       -2.197451    1.582086    1.048456
     71          1           0       -2.121642    1.151838    3.433591
     72          1           0       -3.623062    2.231110    3.448330
     73          1           0       -3.845474    0.542735    3.415514
     74          1           0       -1.871979   -1.584264   -0.476689
     75          1           0       -1.975950    0.219085   -0.827876
     76          1           0       -0.137228    0.465457    0.925393
     77          1           0       -0.257675   -1.095630    1.421928
     78          1           0       -6.048633    6.680981    0.659559
     79          1           0       -5.693795    6.130014    2.236143
     80          1           0       -4.497042    5.775905    0.755091
     81          1           0       -9.471506    5.995342   -0.664300
     82          1           0       -9.302649    7.912487    0.537495
     83          1           0       -7.889947    7.460342    1.646636
     84          1           0      -12.267600    3.343263   -1.967048
     85          1           0      -13.294515    1.791790   -1.436695
     86          1           0      -12.838025    2.830615   -0.277802
     87          1           0      -12.335019   -1.410555   -0.985751
     88          1           0      -13.309568   -0.226041   -1.588904
     89          1           0      -13.083624   -1.829416   -3.416545
     90          1           0      -12.676940   -0.257926   -3.777400
     91          1           0      -11.497258   -1.642313   -3.516549
     92          1           0       -8.774349   -4.987891   -1.996981
     93          1           0       -7.831561   -5.837831   -0.607255
     94          1           0       -9.613111   -4.822499   -0.314495
     95          1           0       -3.399621   -3.535211   -0.256700
     96          1           0       -1.650365   -4.572766    3.776134
     97          1           0       -3.136903   -5.722078    3.431347
     98          1           0       -1.304560   -6.077950    2.809928
     99          1           0        2.678963   -1.820220   -1.435977
    100          1           0        3.113216   -0.131928   -2.363639
    101          1           0        4.295855   -1.190768    0.365609
    102          1           0        4.004834    1.371215   -2.406087
    103          1           0        5.262792    2.317007   -1.774791
    104          1           0        5.616552    1.126428   -3.022912
    105          1           0        6.620098    1.317010    0.252372
    106          1           0        6.184001   -0.216006    0.984211
    107          1           0        7.489182   -1.300860   -1.067974
    108          1           0        7.856391    0.274358   -1.805430
    109          1           0        8.962841    0.706829    0.271892
    110          1           0        8.812655   -0.829920    0.829723
    111          1           0       10.337770   -0.183109   -1.748640
    112          1           0        9.331134   -2.274292   -1.783437
    113          1           0       11.177288   -2.408186   -1.673518
    114          1           0       10.464138   -2.715686   -0.204083
    115          1           0       11.444537    0.871074    0.334519
    116          1           0       11.461620   -0.735514    1.027369
    117          1           0       13.119468   -1.525738   -0.851585
    118          1           0       12.955809   -0.159053   -1.653185
    119          1           0       13.901112    0.924165    0.592760
    120          1           0       14.231111   -0.576572    1.122343
    121          1           0       15.247692    0.381967   -1.439613
    122          1           0       15.751538   -2.269434   -0.001586
    123          1           0       15.192244   -2.150693   -1.676711
    124          1           0       16.822017   -1.604651   -1.439141
    125          1           0       16.059361    1.497699    0.701472
    126          1           0       16.476377    0.110596    1.515442
    127          1           0       18.110973   -0.637176   -0.091799
    128          1           0       17.687298    0.711570   -1.369508
    129          1           0       18.356966    2.433218    0.726079
    130          1           0       18.901188    0.941473    1.659726
    131          1           0       20.655421    0.582668    0.229205
    132          1           0       20.070538    3.309130   -1.099745
    133          1           0       21.239671    1.879491   -1.565043
    134          1           0       19.565164    1.369412   -1.630490
    135          1           0       20.968520    1.706237    2.294138
    136          1           0       22.159144    1.992879    0.788650
    137          1           0       20.874412    3.266595    1.151973
 ---------------------------------------------------------------------

 SCF Done:  E(RCAM-B3LYP) =  -2932.63223665     A.U. after   19 cycles

 Excitation energies and oscillator strengths:

 Excited State   1:      Singlet-A      2.0629 eV  601.02 nm  f=0.2436  <S**2>=0.000
     240 -> 242       -0.11084
     240 -> 243        0.23583
     241 -> 242        0.64458
 This state for optimization and/or second-order correction.
 Total Energy, E(TD-HF/TD-KS) =  -2932.55642715
 Copying the excited state density for this state as the 1-particle RhoCI density.

 The electronic state is 1-A.
 Alpha  occ. eigenvalues --  -46.83507 -19.27105 -19.24700 -19.20792 -19.19853
 Alpha  occ. eigenvalues --  -19.19456 -14.40696 -14.39639 -14.38907 -14.38323
 Alpha  occ. eigenvalues --  -10.38978 -10.37739 -10.35563 -10.34006 -10.33367
 Alpha  occ. eigenvalues --  -10.30653 -10.29971 -10.29559 -10.29497 -10.29437
 Alpha  occ. eigenvalues --  -10.29408 -10.29212 -10.28953 -10.28511 -10.28371
 Alpha  occ. eigenvalues --  -10.28258 -10.28211 -10.28085 -10.27925 -10.27791
 Alpha  occ. eigenvalues --  -10.27665 -10.27541 -10.27197 -10.27187 -10.26864
 Alpha  occ. eigenvalues --  -10.26630 -10.26616 -10.26591 -10.26590 -10.26576
 Alpha  occ. eigenvalues --  -10.26477 -10.26404 -10.26400 -10.26235 -10.26075
 Alpha  occ. eigenvalues --  -10.26012 -10.26006 -10.25989 -10.25900 -10.25633
 Alpha  occ. eigenvalues --  -10.25622 -10.25598 -10.25488 -10.25417 -10.25410
 Alpha  occ. eigenvalues --  -10.25273 -10.25216 -10.25083 -10.24559 -10.24468
 Alpha  occ. eigenvalues --  -10.24391 -10.24215 -10.24053 -10.24018 -10.23739
 Alpha  occ. eigenvalues --   -3.12646  -1.87343  -1.86896  -1.86830  -1.17234
 Alpha  occ. eigenvalues --   -1.16096  -1.11084  -1.07340  -1.05964  -1.04758
 Alpha  occ. eigenvalues --   -1.03591  -1.02527  -1.00971  -0.91943  -0.91675
 Alpha  occ. eigenvalues --   -0.91480  -0.90908  -0.90555  -0.89924  -0.89434
 Alpha  occ. eigenvalues --   -0.89001  -0.88233  -0.86559  -0.86099  -0.85868
 Alpha  occ. eigenvalues --   -0.85033  -0.83949  -0.83428  -0.83094  -0.82822
 Alpha  occ. eigenvalues --   -0.81340  -0.80720  -0.79875  -0.79710  -0.78051
 Alpha  occ. eigenvalues --   -0.77959  -0.77237  -0.76999  -0.75607  -0.75563
 Alpha  occ. eigenvalues --   -0.75051  -0.74719  -0.74590  -0.73437  -0.71913
 Alpha  occ. eigenvalues --   -0.71857  -0.70970  -0.70408  -0.69768  -0.68568
 Alpha  occ. eigenvalues --   -0.67648  -0.67348  -0.64798  -0.64523  -0.64391
 Alpha  occ. eigenvalues --   -0.64312  -0.63000  -0.62794  -0.62471  -0.61893
 Alpha  occ. eigenvalues --   -0.61541  -0.60497  -0.60041  -0.59747  -0.59038
 Alpha  occ. eigenvalues --   -0.57819  -0.57616  -0.57232  -0.57135  -0.56241
 Alpha  occ. eigenvalues --   -0.56014  -0.55490  -0.55034  -0.54833  -0.54659
 Alpha  occ. eigenvalues --   -0.54433  -0.54278  -0.53880  -0.52983  -0.52822
 Alpha  occ. eigenvalues --   -0.52669  -0.52531  -0.52462  -0.52299  -0.51963
 Alpha  occ. eigenvalues --   -0.51788  -0.51394  -0.51107  -0.50604  -0.50422
 Alpha  occ. eigenvalues --   -0.50139  -0.49962  -0.49707  -0.49618  -0.49296
 Alpha  occ. eigenvalues --   -0.49210  -0.48949  -0.48905  -0.48796  -0.48132
 Alpha  occ. eigenvalues --   -0.47870  -0.47802  -0.47573  -0.47285  -0.47095
 Alpha  occ. eigenvalues --   -0.47035  -0.46758  -0.46457  -0.46244  -0.45916
 Alpha  occ. eigenvalues --   -0.45710  -0.45502  -0.45304  -0.45117  -0.44889
 Alpha  occ. eigenvalues --   -0.44807  -0.44635  -0.44592  -0.44131  -0.43957
 Alpha  occ. eigenvalues --   -0.43844  -0.43635  -0.43446  -0.43316  -0.42928
 Alpha  occ. eigenvalues --   -0.42760  -0.42671  -0.42380  -0.42265  -0.42120
 Alpha  occ. eigenvalues --   -0.41970  -0.41762  -0.41621  -0.41442  -0.41380
 Alpha  occ. eigenvalues --   -0.41110  -0.40824  -0.40553  -0.40367  -0.39907
 Alpha  occ. eigenvalues --   -0.39744  -0.39656  -0.39488  -0.39352  -0.39117
 Alpha  occ. eigenvalues --   -0.38900  -0.38786  -0.38740  -0.38099  -0.37515
 Alpha  occ. eigenvalues --   -0.37366  -0.37151  -0.36875  -0.36763  -0.36627
 Alpha  occ. eigenvalues --   -0.35770  -0.35623  -0.35454  -0.35408  -0.35138
 Alpha  occ. eigenvalues --   -0.34770  -0.34410  -0.34049  -0.33770  -0.33304
 Alpha  occ. eigenvalues --   -0.33087  -0.32529  -0.31736  -0.30839  -0.30481
 Alpha  occ. eigenvalues --   -0.30041  -0.29138  -0.28163  -0.27169  -0.22437
 Alpha  occ. eigenvalues --   -0.21178
 Alpha virt. eigenvalues --   -0.06361  -0.02587   0.01703   0.03580   0.03728
 Alpha virt. eigenvalues --    0.05339   0.06611   0.06958   0.07148   0.07511
 Alpha virt. eigenvalues --    0.08458   0.10947   0.11314   0.11994   0.12088

 Mulliken charges:
               1
     1  Mg   0.812949
     2  C    0.044131
     3  C   -0.215629
     4  C   -0.186682
     5  C   -0.207059
     6  N   -0.650719
     7  C    0.279536
     8  C   -0.132862
     9  C   -0.131911
    10  C    0.343350
    11  C   -0.297165
    12  C   -0.190332
    13  C   -0.284303
    14  C    0.599534
    15  O   -0.470251
    16  O   -0.491368
    17  N   -0.686489
    18  C    0.370653
    19  C   -0.018949
    20  C    0.075562
    21  C    0.223227
    22  C   -0.367230
    23  C   -0.126497
    24  C   -0.218424
    25  N   -0.671847
    26  C    0.253962
    27  C    0.045099
    28  C   -0.015702
    29  C    0.378606
    30  C   -0.382150
    31  C   -0.213352
    32  C   -0.311344
    33  N   -0.721073
    34  C    0.257078
    35  C    0.017218
    36  C    0.002110
    37  C    0.327721
    38  C   -0.372375
    39  C    0.377826
    40  O   -0.451394
    41  C   -0.317724
    42  C    0.629770
    43  O   -0.509987
    44  O   -0.451285
    45  C   -0.094857
    46  C    0.032784
    47  C   -0.103545
    48  C    0.118515
    49  C   -0.378244
    50  C   -0.228905
    51  C   -0.190016
    52  C   -0.135066
    53  C   -0.071620
    54  C   -0.324672
    55  C   -0.177612
    56  C   -0.175135
    57  C   -0.187753
    58  C   -0.050106
    59  C   -0.324368
    60  C   -0.176243
    61  C   -0.179971
    62  C   -0.151583
    63  C   -0.067813
    64  C   -0.291991
    65  C   -0.276430
    66  H    0.059312
    67  H    0.085865
    68  H    0.077771
    69  H    0.116757
    70  H    0.096546
    71  H    0.114615
    72  H    0.094354
    73  H    0.143758
    74  H    0.119083
    75  H    0.109427
    76  H    0.146436
    77  H    0.127338
    78  H    0.131558
    79  H    0.130456
    80  H    0.117312
    81  H    0.097678
    82  H    0.105821
    83  H    0.106973
    84  H    0.119947
    85  H    0.105601
    86  H    0.120739
    87  H    0.111047
    88  H    0.093222
    89  H    0.104845
    90  H    0.105518
    91  H    0.098221
    92  H    0.135123
    93  H    0.130346
    94  H    0.120484
    95  H    0.156307
    96  H    0.135575
    97  H    0.155300
    98  H    0.127042
    99  H    0.139736
   100  H    0.081851
   101  H    0.090413
   102  H    0.122522
   103  H    0.123407
   104  H    0.129637
   105  H    0.113315
   106  H    0.079116
   107  H    0.108546
   108  H    0.082203
   109  H    0.098595
   110  H    0.083495
   111  H    0.090678
   112  H    0.104291
   113  H    0.092289
   114  H    0.115079
   115  H    0.063992
   116  H    0.101718
   117  H    0.111937
   118  H    0.095167
   119  H    0.073500
   120  H    0.068224
   121  H    0.094777
   122  H    0.092383
   123  H    0.100955
   124  H    0.110231
   125  H    0.101060
   126  H    0.080479
   127  H    0.077909
   128  H    0.050480
   129  H    0.093196
   130  H    0.088890
   131  H    0.093136
   132  H    0.101378
   133  H    0.108924
   134  H    0.078095
   135  H    0.081924
   136  H    0.103371
   137  H    0.063127
 Sum of Mulliken charges =   0.00000

 Dipole moment (field-independent basis, Debye):
    X=              3.3528    Y=              3.7970    Z=              0.3720  Tot=              5.0791
 Quadrupole moment (field-independent basis, Debye-Ang):
   XX=           -342.5485   YY=           -388.1226   ZZ=           -397.9951
   XY=            -31.7596   XZ=             12.6521   YZ=             -2.0110

 Normal termination of Gaussian 09 at Wed Jul  3 20:33:17 2019.
