 Gaussian 09, Revision D.01,
 Gaussian 09:  ES64L-G09RevD.01 24-Apr-2013

 -------------------------------------
 # td=(NStates=1) CAM-B3LYP/6-31G(d,p)
 -------------------------------------

 --
 TD
 --
 Symbolic Z-matrix:
 Charge =  0 Multiplicity = 1

                         Standard orientation:
 ---------------------------------------------------------------------
 Center     Atomic      Atomic             Coordinates (Angstroms)
 Number     Number       Type             X           Y           Z
 ---------------------------------------------------------------------
      1         12           0       -7.039803    0.556213    0.059072
      2          6           0       -4.860999   -1.938065    0.509596
      3          6           0       -4.750480    2.813870    0.967130
      4          6           0       -9.410945    3.114380   -0.389614
      5          6           0       -9.507953   -1.716194   -0.813845
      6          7           0       -5.106370    0.476627    0.657844
      7          6           0       -4.377948   -0.716732    0.744575
      8          6           0       -2.967060   -0.394874    1.237802
      9          6           0       -3.013790    0.968803    1.639731
     10          6           0       -4.350035    1.508919    1.048736
     11          6           0       -3.035394    1.169147    3.152730
     12          6           0       -1.965400   -0.672420    0.049998
     13          6           0       -0.473529   -0.460390    0.315207
     14          6           0        0.516854   -0.697046   -0.725051
     15          8           0        0.282523   -1.203919   -1.759330
     16          8           0        1.818913   -0.445822   -0.351610
     17          7           0       -7.086732    2.705440    0.236948
     18          6           0       -6.028958    3.420052    0.724917
     19          6           0       -6.358999    4.873363    0.754732
     20          6           0       -7.632536    4.903724    0.347045
     21          6           0       -8.177486    3.538004    0.018943
     22          6           0       -5.383231    5.920847    1.150000
     23          6           0       -8.498523    6.035747    0.206980
     24          6           0       -8.379563    7.226877    0.861086
     25          7           0       -9.096116    0.707986   -0.613824
     26          6           0       -9.822464    1.824620   -0.658757
     27          6           0      -11.150880    1.444556   -0.999511
     28          6           0      -11.229621    0.160995   -1.203125
     29          6           0       -9.890078   -0.367169   -0.850322
     30          6           0      -12.246832    2.417468   -1.201904
     31          6           0      -12.316667   -0.705985   -1.729980
     32          6           0      -12.398556   -0.746737   -3.341272
     33          7           0       -7.267583   -1.438155   -0.003191
     34          6           0       -8.287197   -2.230855   -0.479905
     35          6           0       -7.867723   -3.698199   -0.442902
     36          6           0       -6.594610   -3.593218   -0.003926
     37          6           0       -6.180425   -2.204370    0.172182
     38          6           0       -8.567063   -4.883496   -0.805349
     39          6           0       -5.389571   -4.436817    0.228182
     40          8           0       -5.075396   -5.589747    0.197870
     41          6           0       -4.237354   -3.355664    0.597538
     42          6           0       -3.514070   -3.669222    2.001934
     43          8           0       -3.773210   -3.131852    3.057615
     44          8           0       -2.672242   -4.623012    1.758930
     45          6           0       -2.114524   -5.190407    3.076390
     46          6           0        2.743266   -0.671532   -1.349652
     47          6           0        4.150356   -0.575647   -0.722250
     48          6           0        5.245759    0.230292   -1.008845
     49          6           0        5.150478    1.136789   -2.245797
     50          6           0        6.418060    0.328648   -0.187818
     51          6           0        7.601381   -0.252126   -0.980356
     52          6           0        8.896274    0.024275   -0.240084
     53          6           0       10.213388   -0.598275   -1.013761
     54          6           0       10.039887   -2.008017   -1.366999
     55          6           0       11.417771   -0.390471   -0.073095
     56          6           0       12.774007   -0.605552   -0.775106
     57          6           0       13.980675   -0.295591    0.099736
     58          6           0       15.356887   -0.349492   -0.540427
     59          6           0       15.708694   -1.696893   -0.997301
     60          6           0       16.369178    0.355627    0.455141
     61          6           0       17.770315    0.610858   -0.065264
     62          6           0       18.749234    1.371791    0.917412
     63          6           0       20.139685    1.517851    0.435192
     64          6           0       20.167274    2.215369   -0.951753
     65          6           0       20.982394    2.280892    1.400133
     66          1           0       -3.918890    3.623347    1.209267
     67          1           0      -10.248479    3.931528   -0.314927
     68          1           0      -10.378554   -2.379580   -1.013927
     69          1           0       -2.628138   -0.986451    2.120164
     70          1           0       -2.146821    1.503570    1.426957
     71          1           0       -2.042848    1.019703    3.500196
     72          1           0       -3.157200    2.139666    3.320338
     73          1           0       -3.859170    0.663846    3.659497
     74          1           0       -2.021412   -1.702111   -0.179577
     75          1           0       -2.215103   -0.082598   -0.798626
     76          1           0       -0.064431    0.528751    0.843591
     77          1           0       -0.415037   -1.223581    1.193857
     78          1           0       -5.240333    6.831818    0.326168
     79          1           0       -5.492401    6.156210    2.261735
     80          1           0       -4.318190    5.644240    1.048947
     81          1           0       -9.385001    6.046555   -0.305086
     82          1           0       -9.259488    8.086205    0.729782
     83          1           0       -7.857671    7.297130    1.754569
     84          1           0      -12.194278    3.055587   -2.092148
     85          1           0      -13.262131    1.787905   -1.406234
     86          1           0      -12.243700    3.104075   -0.340008
     87          1           0      -12.313457   -1.708286   -1.382787
     88          1           0      -13.274802   -0.451900   -1.231260
     89          1           0      -12.969050   -1.588065   -3.610438
     90          1           0      -12.963310    0.358548   -3.685777
     91          1           0      -11.303713   -1.069858   -3.703129
     92          1           0       -9.209331   -4.798722   -1.597886
     93          1           0       -7.941651   -5.837248   -0.740325
     94          1           0       -9.323720   -5.201661    0.021648
     95          1           0       -3.552393   -3.426735   -0.133863
     96          1           0       -1.542502   -4.374670    3.510619
     97          1           0       -2.816904   -5.749110    3.574890
     98          1           0       -1.365492   -5.812406    2.673021
     99          1           0        2.656927   -1.595060   -1.851231
    100          1           0        2.545113    0.146250   -2.122727
    101          1           0        4.225897   -1.210712    0.199020
    102          1           0        4.104516    1.124541   -2.627217
    103          1           0        5.323602    2.216367   -1.925436
    104          1           0        5.735344    1.052168   -2.948758
    105          1           0        6.683564    1.387238    0.130182
    106          1           0        6.105697   -0.345325    0.646609
    107          1           0        7.293515   -1.210049   -1.264933
    108          1           0        7.716557    0.353131   -1.915232
    109          1           0        8.967583    0.980303   -0.013719
    110          1           0        8.874634   -0.546644    0.690062
    111          1           0       10.328069   -0.131463   -1.913188
    112          1           0        8.974294   -2.067846   -1.812419
    113          1           0       10.965255   -2.355121   -1.828271
    114          1           0       10.185194   -2.603794   -0.335501
    115          1           0       11.401146    0.746010    0.180143
    116          1           0       11.577949   -1.035762    0.950402
    117          1           0       12.780658   -1.713366   -1.073883
    118          1           0       12.806693    0.027959   -1.607882
    119          1           0       13.899059    0.786230    0.459761
    120          1           0       13.829343   -1.097074    1.032807
    121          1           0       15.104843    0.342570   -1.263652
    122          1           0       15.730051   -2.249635    0.048484
    123          1           0       15.030878   -2.377297   -1.570878
    124          1           0       16.653811   -1.667612   -1.409688
    125          1           0       16.022928    1.404878    0.624852
    126          1           0       16.318456   -0.339157    1.359459
    127          1           0       18.147172   -0.465579   -0.144556
    128          1           0       17.925200    0.978137   -1.049717
    129          1           0       18.482231    2.327699    1.057670
    130          1           0       18.683604    0.864679    1.957766
    131          1           0       20.522369    0.554940    0.323675
    132          1           0       19.785788    3.316562   -1.188936
    133          1           0       21.256068    2.350792   -1.326923
    134          1           0       19.674587    1.809538   -1.793195
    135          1           0       21.039493    1.602101    2.292189
    136          1           0       22.129223    2.465731    1.111642
    137          1           0       20.700715    3.151122    1.708418
 ---------------------------------------------------------------------

 SCF Done:  E(RCAM-B3LYP) =  -2932.68415644     A.U. after   17 cycles

 Excitation energies and oscillator strengths:

 Excited State   1:      Singlet-A      2.0817 eV  595.60 nm  f=0.3009  <S**2>=0.000
     240 -> 243        0.24105
     241 -> 242        0.65890
 This state for optimization and/or second-order correction.
 Total Energy, E(TD-HF/TD-KS) =  -2932.60765694
 Copying the excited state density for this state as the 1-particle RhoCI density.

 The electronic state is 1-A.
 Alpha  occ. eigenvalues --  -46.84802 -19.27297 -19.25605 -19.21144 -19.21144
 Alpha  occ. eigenvalues --  -19.20509 -14.41461 -14.39868 -14.39312 -14.38824
 Alpha  occ. eigenvalues --  -10.39028 -10.38990 -10.35605 -10.31566 -10.31342
 Alpha  occ. eigenvalues --  -10.30719 -10.30508 -10.30442 -10.29430 -10.29221
 Alpha  occ. eigenvalues --  -10.29110 -10.28924 -10.28641 -10.28081 -10.27968
 Alpha  occ. eigenvalues --  -10.27923 -10.27720 -10.27446 -10.27323 -10.27203
 Alpha  occ. eigenvalues --  -10.27078 -10.27041 -10.26965 -10.26950 -10.26548
 Alpha  occ. eigenvalues --  -10.26537 -10.26438 -10.26433 -10.26269 -10.26219
 Alpha  occ. eigenvalues --  -10.26161 -10.26128 -10.26109 -10.26032 -10.26013
 Alpha  occ. eigenvalues --  -10.25974 -10.25912 -10.25850 -10.25660 -10.25542
 Alpha  occ. eigenvalues --  -10.25244 -10.25129 -10.25094 -10.25088 -10.25080
 Alpha  occ. eigenvalues --  -10.24858 -10.24693 -10.24603 -10.24586 -10.24379
 Alpha  occ. eigenvalues --  -10.24163 -10.24069 -10.24039 -10.23898 -10.23796
 Alpha  occ. eigenvalues --   -3.13725  -1.88446  -1.87948  -1.87904  -1.19675
 Alpha  occ. eigenvalues --   -1.18830  -1.12582  -1.10967  -1.09007  -1.04794
 Alpha  occ. eigenvalues --   -1.03968  -1.03493  -1.02143  -0.92050  -0.91643
 Alpha  occ. eigenvalues --   -0.91237  -0.91057  -0.90100  -0.89120  -0.88992
 Alpha  occ. eigenvalues --   -0.88930  -0.88439  -0.88092  -0.87514  -0.86631
 Alpha  occ. eigenvalues --   -0.85003  -0.84348  -0.83388  -0.83213  -0.82247
 Alpha  occ. eigenvalues --   -0.82027  -0.81632  -0.80738  -0.80495  -0.78946
 Alpha  occ. eigenvalues --   -0.77495  -0.77155  -0.76929  -0.76226  -0.76084
 Alpha  occ. eigenvalues --   -0.75406  -0.74959  -0.74293  -0.73795  -0.72675
 Alpha  occ. eigenvalues --   -0.71548  -0.70885  -0.69637  -0.69096  -0.68126
 Alpha  occ. eigenvalues --   -0.66838  -0.66754  -0.65760  -0.64974  -0.64884
 Alpha  occ. eigenvalues --   -0.64100  -0.63757  -0.63234  -0.62524  -0.62071
 Alpha  occ. eigenvalues --   -0.61928  -0.61586  -0.60309  -0.59769  -0.59538
 Alpha  occ. eigenvalues --   -0.58723  -0.58192  -0.58066  -0.57734  -0.57284
 Alpha  occ. eigenvalues --   -0.56789  -0.56357  -0.56216  -0.55784  -0.55638
 Alpha  occ. eigenvalues --   -0.55171  -0.54797  -0.54114  -0.54058  -0.53704
 Alpha  occ. eigenvalues --   -0.53416  -0.52990  -0.52844  -0.52250  -0.51957
 Alpha  occ. eigenvalues --   -0.51503  -0.51174  -0.50938  -0.50861  -0.50783
 Alpha  occ. eigenvalues --   -0.50724  -0.50543  -0.50488  -0.50170  -0.49493
 Alpha  occ. eigenvalues --   -0.49167  -0.49026  -0.48862  -0.48620  -0.48323
 Alpha  occ. eigenvalues --   -0.48255  -0.48107  -0.48003  -0.47739  -0.47525
 Alpha  occ. eigenvalues --   -0.47316  -0.46881  -0.46812  -0.46332  -0.46128
 Alpha  occ. eigenvalues --   -0.45930  -0.45722  -0.45310  -0.45220  -0.45114
 Alpha  occ. eigenvalues --   -0.44762  -0.44690  -0.44527  -0.44358  -0.44114
 Alpha  occ. eigenvalues --   -0.43887  -0.43856  -0.43804  -0.43512  -0.43087
 Alpha  occ. eigenvalues --   -0.42680  -0.42617  -0.42449  -0.42300  -0.42036
 Alpha  occ. eigenvalues --   -0.41779  -0.41660  -0.41561  -0.41393  -0.41238
 Alpha  occ. eigenvalues --   -0.41204  -0.40896  -0.40505  -0.40428  -0.40197
 Alpha  occ. eigenvalues --   -0.40087  -0.39846  -0.39550  -0.39345  -0.39204
 Alpha  occ. eigenvalues --   -0.39014  -0.38591  -0.38550  -0.38128  -0.38118
 Alpha  occ. eigenvalues --   -0.37878  -0.37485  -0.37299  -0.37204  -0.36757
 Alpha  occ. eigenvalues --   -0.36617  -0.36494  -0.36238  -0.35827  -0.35625
 Alpha  occ. eigenvalues --   -0.35427  -0.35279  -0.34534  -0.34157  -0.33608
 Alpha  occ. eigenvalues --   -0.33536  -0.32695  -0.32214  -0.31216  -0.29990
 Alpha  occ. eigenvalues --   -0.29937  -0.28481  -0.28437  -0.27172  -0.23377
 Alpha  occ. eigenvalues --   -0.20757
 Alpha virt. eigenvalues --   -0.05924  -0.02589   0.01713   0.04067   0.05493
 Alpha virt. eigenvalues --    0.05939   0.06253   0.06766   0.07423   0.07949
 Alpha virt. eigenvalues --    0.08700   0.10443   0.11381   0.11871   0.11877

 Mulliken charges:
               1
     1  Mg   0.825305
     2  C    0.103732
     3  C   -0.239125
     4  C   -0.182748
     5  C   -0.174503
     6  N   -0.685684
     7  C    0.285653
     8  C   -0.147356
     9  C   -0.134149
    10  C    0.371029
    11  C   -0.312946
    12  C   -0.177682
    13  C   -0.283518
    14  C    0.620616
    15  O   -0.443688
    16  O   -0.478004
    17  N   -0.698324
    18  C    0.296793
    19  C    0.063920
    20  C    0.007494
    21  C    0.317729
    22  C   -0.381828
    23  C   -0.090263
    24  C   -0.246203
    25  N   -0.695682
    26  C    0.338696
    27  C    0.018183
    28  C    0.062931
    29  C    0.259977
    30  C   -0.372105
    31  C   -0.269518
    32  C   -0.285829
    33  N   -0.734556
    34  C    0.252065
    35  C    0.096751
    36  C   -0.027201
    37  C    0.287927
    38  C   -0.414325
    39  C    0.375174
    40  O   -0.442605
    41  C   -0.313009
    42  C    0.605672
    43  O   -0.487762
    44  O   -0.437772
    45  C   -0.101541
    46  C    0.031790
    47  C   -0.168506
    48  C    0.128346
    49  C   -0.346464
    50  C   -0.228032
    51  C   -0.196689
    52  C   -0.164740
    53  C   -0.060326
    54  C   -0.295755
    55  C   -0.162739
    56  C   -0.177393
    57  C   -0.160149
    58  C   -0.055867
    59  C   -0.299110
    60  C   -0.169253
    61  C   -0.193448
    62  C   -0.157216
    63  C   -0.045838
    64  C   -0.330161
    65  C   -0.299254
    66  H    0.067069
    67  H    0.094317
    68  H    0.089174
    69  H    0.123018
    70  H    0.101295
    71  H    0.104773
    72  H    0.116959
    73  H    0.127436
    74  H    0.128143
    75  H    0.121641
    76  H    0.112408
    77  H    0.131144
    78  H    0.112863
    79  H    0.127406
    80  H    0.119133
    81  H    0.093673
    82  H    0.076602
    83  H    0.107300
    84  H    0.122092
    85  H    0.087537
    86  H    0.112143
    87  H    0.104133
    88  H    0.101254
    89  H    0.117366
    90  H    0.088160
    91  H    0.104490
    92  H    0.135836
    93  H    0.150774
    94  H    0.120018
    95  H    0.153445
    96  H    0.146258
    97  H    0.159408
    98  H    0.136646
    99  H    0.134882
   100  H    0.098470
   101  H    0.079579
   102  H    0.097821
   103  H    0.090435
   104  H    0.127171
   105  H    0.099771
   106  H    0.098673
   107  H    0.113220
   108  H    0.089931
   109  H    0.097873
   110  H    0.094502
   111  H    0.094380
   112  H    0.099035
   113  H    0.109277
   114  H    0.072561
   115  H    0.071389
   116  H    0.074216
   117  H    0.080448
   118  H    0.093210
   119  H    0.078281
   120  H    0.041603
   121  H    0.088688
   122  H    0.076182
   123  H    0.110235
   124  H    0.111714
   125  H    0.089108
   126  H    0.091526
   127  H    0.078761
   128  H    0.101786
   129  H    0.100704
   130  H    0.073202
   131  H    0.102546
   132  H    0.079876
   133  H    0.086929
   134  H    0.109861
   135  H    0.090270
   136  H    0.078493
   137  H    0.118558
 Sum of Mulliken charges =   0.00000

 Dipole moment (field-independent basis, Debye):
    X=              1.3523    Y=              2.2331    Z=              0.9377  Tot=              2.7739
 Quadrupole moment (field-independent basis, Debye-Ang):
   XX=           -355.0079   YY=           -388.6429   ZZ=           -397.4698
   XY=              4.2845   XZ=              1.2779   YZ=             -3.6954

 Normal termination of Gaussian 09 at Sat Jul  6 04:51:53 2019.
