 Gaussian 09, Revision D.01,
 Gaussian 09:  ES64L-G09RevD.01 24-Apr-2013

 -------------------------------------
 # td=(NStates=1) CAM-B3LYP/6-31G(d,p)
 -------------------------------------

 --
 TD
 --
 Symbolic Z-matrix:
 Charge =  0 Multiplicity = 1

                         Standard orientation:
 ---------------------------------------------------------------------
 Center     Atomic      Atomic             Coordinates (Angstroms)
 Number     Number       Type             X           Y           Z
 ---------------------------------------------------------------------
      1         12           0       -7.156967    0.625418    0.173003
      2          6           0       -4.750023   -1.954882    0.419914
      3          6           0       -4.877645    2.908917    1.270538
      4          6           0       -9.406072    3.051796   -0.450185
      5          6           0       -9.490064   -1.740393   -0.929739
      6          7           0       -5.074614    0.453378    0.630598
      7          6           0       -4.354919   -0.644168    0.657636
      8          6           0       -2.933043   -0.281777    1.170474
      9          6           0       -2.988662    1.094852    1.735081
     10          6           0       -4.428130    1.565435    1.187360
     11          6           0       -3.154630    1.284514    3.275440
     12          6           0       -1.915315   -0.568296    0.192683
     13          6           0       -0.511829   -0.276740    0.601206
     14          6           0        0.478232   -0.629314   -0.539383
     15          8           0        0.261761   -1.168541   -1.563877
     16          8           0        1.737871   -0.312718   -0.056793
     17          7           0       -7.107729    2.619470    0.266463
     18          6           0       -6.111178    3.328186    0.782462
     19          6           0       -6.488228    4.761905    0.678879
     20          6           0       -7.845104    4.871621    0.261783
     21          6           0       -8.201360    3.507801    0.020947
     22          6           0       -5.586944    5.996055    1.050282
     23          6           0       -8.681604    6.023028    0.016676
     24          6           0       -8.644062    7.152800    0.663316
     25          7           0       -9.137688    0.613243   -0.589862
     26          6           0       -9.839119    1.662052   -0.579588
     27          6           0      -11.243843    1.296154   -1.127374
     28          6           0      -11.256546    0.007838   -1.218136
     29          6           0       -9.990824   -0.470569   -0.887599
     30          6           0      -12.395237    2.353264   -1.396321
     31          6           0      -12.444840   -0.866871   -1.594841
     32          6           0      -12.312246   -1.119603   -3.135354
     33          7           0       -7.164823   -1.444178   -0.197693
     34          6           0       -8.231476   -2.227318   -0.546509
     35          6           0       -7.751487   -3.585051   -0.532086
     36          6           0       -6.390949   -3.534025   -0.232301
     37          6           0       -6.145806   -2.264446    0.004389
     38          6           0       -8.665403   -4.795884   -0.758812
     39          6           0       -5.240641   -4.293515    0.133452
     40          8           0       -4.993795   -5.510757    0.108346
     41          6           0       -4.150350   -3.336936    0.506728
     42          6           0       -3.579308   -3.623093    1.921412
     43          8           0       -3.743090   -2.992175    2.949521
     44          8           0       -2.763669   -4.700980    1.815790
     45          6           0       -2.224633   -5.204588    3.085867
     46          6           0        2.870154   -0.505606   -1.090897
     47          6           0        4.252007   -0.386688   -0.538919
     48          6           0        5.243585    0.388147   -0.961618
     49          6           0        5.228182    1.225706   -2.276682
     50          6           0        6.603749    0.422803   -0.217675
     51          6           0        7.630587   -0.225363   -0.993810
     52          6           0        8.935289   -0.322124   -0.188699
     53          6           0       10.173238   -0.793194   -0.867352
     54          6           0       10.037917   -2.217992   -1.403761
     55          6           0       11.439273   -0.521443   -0.044961
     56          6           0       12.836837   -0.562343   -0.624194
     57          6           0       13.948925   -0.066532    0.230517
     58          6           0       15.387160   -0.180495   -0.561755
     59          6           0       15.731947   -1.523661   -0.971860
     60          6           0       16.386642    0.486313    0.497580
     61          6           0       17.786665    0.559349   -0.118614
     62          6           0       18.800805    1.348362    0.770662
     63          6           0       20.309471    1.454530    0.339161
     64          6           0       20.464227    2.165225   -1.099040
     65          6           0       21.311593    2.034027    1.264837
     66          1           0       -4.208810    3.638110    1.688569
     67          1           0      -10.244510    3.639692   -0.871487
     68          1           0      -10.247062   -2.563674   -1.316386
     69          1           0       -2.543184   -0.861855    1.981217
     70          1           0       -2.184629    1.815747    1.473963
     71          1           0       -2.018102    0.877734    3.627838
     72          1           0       -3.268772    2.290747    3.606575
     73          1           0       -3.716083    0.454250    3.636395
     74          1           0       -1.997455   -1.582689   -0.417416
     75          1           0       -2.134403    0.153493   -0.870102
     76          1           0       -0.416302    0.774902    0.972442
     77          1           0       -0.216306   -0.959008    1.388022
     78          1           0       -5.979774    6.995136    0.569050
     79          1           0       -5.608426    6.367633    2.108540
     80          1           0       -4.582069    5.668588    0.500989
     81          1           0       -9.320580    6.161390   -0.809397
     82          1           0       -9.300098    7.771754    0.626977
     83          1           0       -8.079787    7.211764    1.540764
     84          1           0      -12.186257    2.952195   -2.379829
     85          1           0      -13.307443    1.763951   -1.810162
     86          1           0      -12.616294    3.061303   -0.458857
     87          1           0      -12.361460   -1.794462   -0.891703
     88          1           0      -13.370858   -0.101010   -1.440881
     89          1           0      -13.240062   -1.684727   -3.261992
     90          1           0      -12.278940   -0.111015   -3.725950
     91          1           0      -11.427348   -1.687286   -3.503876
     92          1           0       -9.027724   -5.082681   -1.825562
     93          1           0       -8.036232   -5.716031   -0.630778
     94          1           0       -9.547489   -5.050714    0.006491
     95          1           0       -3.223171   -3.267604   -0.209263
     96          1           0       -1.720419   -4.203588    3.465535
     97          1           0       -3.153328   -5.650623    3.722821
     98          1           0       -1.504892   -6.024463    2.935339
     99          1           0        2.519397   -1.567580   -1.564933
    100          1           0        2.665238    0.212710   -1.868096
    101          1           0        4.253703   -0.928583    0.463992
    102          1           0        4.126914    1.664823   -2.678044
    103          1           0        5.922218    2.134886   -2.167259
    104          1           0        5.890757    0.502369   -2.861131
    105          1           0        6.793970    1.403992   -0.035086
    106          1           0        6.111494   -0.072802    0.727229
    107          1           0        7.386690   -1.221869   -1.289095
    108          1           0        8.011318    0.359790   -1.716427
    109          1           0        9.088457    0.578780    0.495632
    110          1           0        8.699729   -1.224679    0.466030
    111          1           0       10.223995   -0.128590   -1.758774
    112          1           0        9.017234   -2.384126   -1.846390
    113          1           0       10.834621   -2.590547   -2.102144
    114          1           0       10.063069   -2.880562   -0.553380
    115          1           0       11.394415    0.557151    0.257458
    116          1           0       11.311500   -1.217692    0.868729
    117          1           0       13.005240   -1.722797   -0.854187
    118          1           0       12.832850    0.026297   -1.507524
    119          1           0       13.581791    0.874911    0.488994
    120          1           0       14.193826   -0.641878    1.140483
    121          1           0       15.377139    0.329622   -1.430758
    122          1           0       15.603722   -2.370588   -0.089560
    123          1           0       15.198583   -1.901845   -1.948025
    124          1           0       16.816862   -1.612513   -1.142092
    125          1           0       16.163987    1.582779    0.624355
    126          1           0       16.291275   -0.056807    1.444233
    127          1           0       17.960938   -0.484119   -0.340124
    128          1           0       17.510947    1.164749   -1.146154
    129          1           0       18.426981    2.360685    0.847374
    130          1           0       18.956976    0.879837    1.875289
    131          1           0       20.389309    0.308082    0.110263
    132          1           0       20.067848    3.226510   -1.122489
    133          1           0       21.360168    2.080817   -1.607504
    134          1           0       19.765502    1.689560   -1.702028
    135          1           0       21.230445    1.570017    2.128900
    136          1           0       22.334669    2.007524    0.692457
    137          1           0       21.219657    3.151069    1.298090
 ---------------------------------------------------------------------

 SCF Done:  E(RCAM-B3LYP) =  -2932.61799252     A.U. after   17 cycles

 Excitation energies and oscillator strengths:

 Excited State   1:      Singlet-A      2.2267 eV  556.80 nm  f=0.2862  <S**2>=0.000
     240 -> 242       -0.19269
     240 -> 243        0.18712
     241 -> 242        0.63541
     241 -> 243        0.13053
 This state for optimization and/or second-order correction.
 Total Energy, E(TD-HF/TD-KS) =  -2932.53616136
 Copying the excited state density for this state as the 1-particle RhoCI density.

 The electronic state is 1-A.
 Alpha  occ. eigenvalues --  -46.85208 -19.25238 -19.24550 -19.21444 -19.20706
 Alpha  occ. eigenvalues --  -19.18431 -14.41575 -14.40257 -14.40090 -14.38019
 Alpha  occ. eigenvalues --  -10.38950 -10.38748 -10.33531 -10.32673 -10.32303
 Alpha  occ. eigenvalues --  -10.32106 -10.31194 -10.30630 -10.29940 -10.29906
 Alpha  occ. eigenvalues --  -10.29301 -10.28911 -10.28755 -10.28716 -10.28687
 Alpha  occ. eigenvalues --  -10.28401 -10.28218 -10.28118 -10.28090 -10.28051
 Alpha  occ. eigenvalues --  -10.27982 -10.27631 -10.27563 -10.27530 -10.27304
 Alpha  occ. eigenvalues --  -10.27200 -10.27175 -10.26745 -10.26740 -10.26609
 Alpha  occ. eigenvalues --  -10.26583 -10.26547 -10.26497 -10.26463 -10.26363
 Alpha  occ. eigenvalues --  -10.26295 -10.26288 -10.26243 -10.26149 -10.25968
 Alpha  occ. eigenvalues --  -10.25911 -10.25790 -10.25555 -10.25553 -10.25439
 Alpha  occ. eigenvalues --  -10.25411 -10.25097 -10.25051 -10.25018 -10.24723
 Alpha  occ. eigenvalues --  -10.24549 -10.24238 -10.23900 -10.23118 -10.23085
 Alpha  occ. eigenvalues --   -3.14085  -1.88801  -1.88322  -1.88250  -1.16865
 Alpha  occ. eigenvalues --   -1.16744  -1.08343  -1.08196  -1.08080  -1.05719
 Alpha  occ. eigenvalues --   -1.04382  -1.04077  -1.03097  -0.92600  -0.92368
 Alpha  occ. eigenvalues --   -0.91035  -0.90777  -0.90690  -0.90106  -0.89618
 Alpha  occ. eigenvalues --   -0.88263  -0.87957  -0.87059  -0.86251  -0.85739
 Alpha  occ. eigenvalues --   -0.85004  -0.84334  -0.83997  -0.83229  -0.82215
 Alpha  occ. eigenvalues --   -0.81549  -0.81161  -0.80286  -0.79581  -0.78022
 Alpha  occ. eigenvalues --   -0.77542  -0.76943  -0.76177  -0.75693  -0.75497
 Alpha  occ. eigenvalues --   -0.75372  -0.74528  -0.73928  -0.72752  -0.71779
 Alpha  occ. eigenvalues --   -0.70515  -0.70030  -0.69513  -0.69457  -0.68461
 Alpha  occ. eigenvalues --   -0.68017  -0.66867  -0.64423  -0.63935  -0.63852
 Alpha  occ. eigenvalues --   -0.63595  -0.63419  -0.62212  -0.61882  -0.61569
 Alpha  occ. eigenvalues --   -0.61309  -0.60878  -0.60020  -0.59577  -0.59395
 Alpha  occ. eigenvalues --   -0.58751  -0.58697  -0.57700  -0.56709  -0.56497
 Alpha  occ. eigenvalues --   -0.56175  -0.55619  -0.55411  -0.55199  -0.54657
 Alpha  occ. eigenvalues --   -0.54425  -0.54139  -0.53501  -0.53417  -0.53113
 Alpha  occ. eigenvalues --   -0.52899  -0.52546  -0.52253  -0.52162  -0.52003
 Alpha  occ. eigenvalues --   -0.51581  -0.51385  -0.51226  -0.51188  -0.50821
 Alpha  occ. eigenvalues --   -0.50548  -0.49983  -0.49814  -0.49633  -0.49465
 Alpha  occ. eigenvalues --   -0.49252  -0.48822  -0.48559  -0.48358  -0.48057
 Alpha  occ. eigenvalues --   -0.47969  -0.47732  -0.47669  -0.47556  -0.47361
 Alpha  occ. eigenvalues --   -0.46933  -0.46850  -0.46405  -0.46113  -0.45935
 Alpha  occ. eigenvalues --   -0.45655  -0.45363  -0.45284  -0.44846  -0.44751
 Alpha  occ. eigenvalues --   -0.44495  -0.44363  -0.44175  -0.43858  -0.43799
 Alpha  occ. eigenvalues --   -0.43709  -0.43404  -0.43205  -0.43167  -0.43035
 Alpha  occ. eigenvalues --   -0.42883  -0.42671  -0.42386  -0.42214  -0.42018
 Alpha  occ. eigenvalues --   -0.41961  -0.41766  -0.41590  -0.41456  -0.40985
 Alpha  occ. eigenvalues --   -0.40849  -0.40727  -0.40583  -0.40475  -0.40361
 Alpha  occ. eigenvalues --   -0.40220  -0.39978  -0.39726  -0.39505  -0.39462
 Alpha  occ. eigenvalues --   -0.39320  -0.38428  -0.38062  -0.37880  -0.37764
 Alpha  occ. eigenvalues --   -0.37409  -0.37343  -0.36308  -0.36298  -0.36037
 Alpha  occ. eigenvalues --   -0.35732  -0.35656  -0.35258  -0.35187  -0.35136
 Alpha  occ. eigenvalues --   -0.34594  -0.34311  -0.34209  -0.33911  -0.33239
 Alpha  occ. eigenvalues --   -0.32807  -0.32676  -0.32511  -0.31035  -0.29858
 Alpha  occ. eigenvalues --   -0.29384  -0.29092  -0.28573  -0.28342  -0.23294
 Alpha  occ. eigenvalues --   -0.21340
 Alpha virt. eigenvalues --   -0.06399  -0.02448   0.01912   0.03861   0.04818
 Alpha virt. eigenvalues --    0.06120   0.06201   0.07189   0.07448   0.07737
 Alpha virt. eigenvalues --    0.09157   0.10158   0.11044   0.11594   0.11788

 Mulliken charges:
               1
     1  Mg   0.829912
     2  C    0.091042
     3  C   -0.205922
     4  C   -0.189162
     5  C   -0.188544
     6  N   -0.663491
     7  C    0.319147
     8  C   -0.132175
     9  C   -0.151782
    10  C    0.311032
    11  C   -0.299682
    12  C   -0.166778
    13  C   -0.260195
    14  C    0.615066
    15  O   -0.442585
    16  O   -0.527272
    17  N   -0.742682
    18  C    0.391993
    19  C   -0.045437
    20  C    0.064341
    21  C    0.286388
    22  C   -0.368107
    23  C   -0.092912
    24  C   -0.192760
    25  N   -0.635703
    26  C    0.295119
    27  C   -0.035669
    28  C    0.094178
    29  C    0.258057
    30  C   -0.371470
    31  C   -0.233817
    32  C   -0.301563
    33  N   -0.725439
    34  C    0.275809
    35  C   -0.018531
    36  C    0.071783
    37  C    0.267389
    38  C   -0.402063
    39  C    0.362048
    40  O   -0.487484
    41  C   -0.318402
    42  C    0.620150
    43  O   -0.474074
    44  O   -0.451020
    45  C   -0.072208
    46  C    0.009407
    47  C   -0.127457
    48  C    0.071512
    49  C   -0.349120
    50  C   -0.202572
    51  C   -0.163721
    52  C   -0.191766
    53  C   -0.049478
    54  C   -0.322914
    55  C   -0.162133
    56  C   -0.176730
    57  C   -0.155373
    58  C   -0.062142
    59  C   -0.304735
    60  C   -0.173821
    61  C   -0.178809
    62  C   -0.164267
    63  C   -0.054164
    64  C   -0.331079
    65  C   -0.285938
    66  H    0.092917
    67  H    0.100898
    68  H    0.101304
    69  H    0.116232
    70  H    0.105596
    71  H    0.059836
    72  H    0.127133
    73  H    0.150369
    74  H    0.119253
    75  H    0.051096
    76  H    0.132958
    77  H    0.140074
    78  H    0.114091
    79  H    0.129399
    80  H    0.111141
    81  H    0.104008
    82  H    0.086867
    83  H    0.092654
    84  H    0.114232
    85  H    0.103583
    86  H    0.120605
    87  H    0.109810
    88  H    0.094194
    89  H    0.111652
    90  H    0.102356
    91  H    0.120366
    92  H    0.110657
    93  H    0.138465
    94  H    0.107279
    95  H    0.165272
    96  H    0.123356
    97  H    0.121562
    98  H    0.133316
    99  H    0.123647
   100  H    0.116082
   101  H    0.093495
   102  H    0.107584
   103  H    0.105502
   104  H    0.135732
   105  H    0.111721
   106  H    0.098175
   107  H    0.113185
   108  H    0.108331
   109  H    0.087138
   110  H    0.077371
   111  H    0.065330
   112  H    0.096858
   113  H    0.107268
   114  H    0.104314
   115  H    0.071879
   116  H    0.076529
   117  H    0.071076
   118  H    0.094795
   119  H    0.092320
   120  H    0.089008
   121  H    0.093773
   122  H    0.070559
   123  H    0.101630
   124  H    0.107443
   125  H    0.090694
   126  H    0.093216
   127  H    0.097592
   128  H    0.074167
   129  H    0.091406
   130  H    0.066818
   131  H    0.070565
   132  H    0.084780
   133  H    0.107532
   134  H    0.106842
   135  H    0.105658
   136  H    0.095312
   137  H    0.100916
 Sum of Mulliken charges =   0.00000

 Dipole moment (field-independent basis, Debye):
    X=              0.5251    Y=              7.0261    Z=              0.5734  Tot=              7.0690
 Quadrupole moment (field-independent basis, Debye-Ang):
   XX=           -324.0385   YY=           -391.8100   ZZ=           -397.0969
   XY=            -36.0832   XZ=              1.4056   YZ=             -3.3758

 Normal termination of Gaussian 09 at Tue Jul  2 23:54:07 2019.
