 Gaussian 16, Revision A.03,
 Gaussian 16:  ES64L-G16RevA.03 25-Dec-2016

 ----------------------------------------------------------------------
 # td=(NStates=1) iop(3/107=0140000000,3/108=0140000000) CAM-B3LYP/6-31
 G(d,p)
 ----------------------------------------------------------------------

 --
 TD
 --
 Symbolic Z-matrix:
 Charge =  0 Multiplicity = 1

                         Standard orientation:
 ---------------------------------------------------------------------
 Center     Atomic      Atomic             Coordinates (Angstroms)
 Number     Number       Type             X           Y           Z
 ---------------------------------------------------------------------
      1         12           0       -7.202098    0.614704    0.180291
      2          6           0       -4.968803   -1.935386    0.492808
      3          6           0       -4.796053    2.824424    1.210888
      4          6           0       -9.509328    3.160065   -0.289228
      5          6           0       -9.604869   -1.697862   -0.887517
      6          7           0       -5.195469    0.502726    0.830920
      7          6           0       -4.428674   -0.692642    0.827802
      8          6           0       -2.973091   -0.467554    1.133227
      9          6           0       -3.067767    1.007621    1.750303
     10          6           0       -4.397756    1.478535    1.184547
     11          6           0       -2.974195    1.198132    3.253179
     12          6           0       -1.925592   -0.701238    0.020986
     13          6           0       -0.491331   -0.362270    0.497787
     14          6           0        0.547924   -0.723939   -0.600243
     15          8           0        0.177795   -0.889207   -1.777283
     16          8           0        1.794000   -0.620384   -0.133985
     17          7           0       -7.209319    2.604713    0.337543
     18          6           0       -6.036611    3.333069    0.781281
     19          6           0       -6.328737    4.779959    0.756909
     20          6           0       -7.714264    4.885998    0.299382
     21          6           0       -8.201633    3.458805    0.127831
     22          6           0       -5.398418    5.904547    0.992754
     23          6           0       -8.604439    6.065601   -0.047818
     24          6           0       -8.411332    7.216017    0.592643
     25          7           0       -9.145602    0.742897   -0.486825
     26          6           0       -9.959386    1.888276   -0.519658
     27          6           0      -11.323693    1.499774   -1.119460
     28          6           0      -11.244575    0.139641   -1.252706
     29          6           0       -9.938123   -0.340313   -0.911616
     30          6           0      -12.339096    2.401987   -1.531767
     31          6           0      -12.398460   -0.666571   -1.759928
     32          6           0      -12.243272   -1.256332   -3.140527
     33          7           0       -7.279966   -1.396971   -0.105208
     34          6           0       -8.319247   -2.168762   -0.525669
     35          6           0       -7.849248   -3.580392   -0.399096
     36          6           0       -6.592207   -3.630607   -0.068134
     37          6           0       -6.271710   -2.182410    0.133766
     38          6           0       -8.631115   -4.742234   -0.800302
     39          6           0       -5.375381   -4.373703    0.122692
     40          8           0       -5.245413   -5.599333    0.049794
     41          6           0       -4.269634   -3.324502    0.573292
     42          6           0       -3.641828   -3.694031    1.863663
     43          8           0       -3.875909   -3.064197    2.809328
     44          8           0       -2.682607   -4.689219    1.736874
     45          6           0       -2.111846   -5.035763    2.932079
     46          6           0        2.813374   -0.851822   -1.200475
     47          6           0        4.114018   -0.534866   -0.538563
     48          6           0        5.208078    0.253150   -0.980319
     49          6           0        5.099209    1.157010   -2.189880
     50          6           0        6.495996    0.239902   -0.182705
     51          6           0        7.696564   -0.229941   -0.947288
     52          6           0        8.941640   -0.162668   -0.001653
     53          6           0       10.284640   -0.595054   -0.787593
     54          6           0       10.234394   -1.954843   -1.396605
     55          6           0       11.528183   -0.250769    0.159478
     56          6           0       12.859079   -0.539231   -0.579672
     57          6           0       14.039273   -0.148161    0.210289
     58          6           0       15.392107   -0.183698   -0.514283
     59          6           0       15.582125   -1.599494   -0.934843
     60          6           0       16.512036    0.322142    0.336193
     61          6           0       17.848368    0.429290   -0.222107
     62          6           0       18.822806    1.310688    0.720622
     63          6           0       20.308005    1.478474    0.227605
     64          6           0       20.403997    2.221031   -1.112704
     65          6           0       21.325026    2.131670    1.248426
     66          1           0       -4.128000    3.449893    1.610122
     67          1           0      -10.283891    3.986191   -0.435838
     68          1           0      -10.157953   -2.536694   -1.134515
     69          1           0       -3.034227   -1.212555    2.083330
     70          1           0       -2.146125    1.578031    1.264903
     71          1           0       -1.922500    1.189011    3.674035
     72          1           0       -3.386351    2.220966    3.591153
     73          1           0       -3.599825    0.474010    3.591499
     74          1           0       -1.993027   -1.625429   -0.103756
     75          1           0       -2.208301   -0.085729   -0.793605
     76          1           0       -0.249563    0.611797    0.751375
     77          1           0       -0.214918   -1.130619    1.414129
     78          1           0       -5.576352    6.853523    0.557970
     79          1           0       -5.605412    6.266950    2.150271
     80          1           0       -4.311233    5.764157    0.863929
     81          1           0       -9.452683    5.930989   -0.639516
     82          1           0       -9.100283    8.125772    0.444644
     83          1           0       -7.591004    7.265205    1.340190
     84          1           0      -11.640671    3.016948   -2.308055
     85          1           0      -13.288435    2.100361   -1.995030
     86          1           0      -12.628454    3.065013   -0.631235
     87          1           0      -12.535992   -1.663612   -1.154874
     88          1           0      -13.281855   -0.066345   -1.600700
     89          1           0      -13.013530   -2.137419   -3.403983
     90          1           0      -12.589670   -0.294815   -3.917518
     91          1           0      -11.043969   -1.518226   -3.566777
     92          1           0       -9.257127   -4.325473   -1.834427
     93          1           0       -8.006979   -5.486540   -0.998866
     94          1           0       -9.271485   -5.139614    0.117136
     95          1           0       -3.456994   -3.481286   -0.140692
     96          1           0       -1.229255   -4.144347    3.167789
     97          1           0       -2.767116   -5.125879    3.807982
     98          1           0       -1.627588   -6.127930    2.880860
     99          1           0        2.758054   -1.923498   -1.577366
    100          1           0        2.463337   -0.127381   -2.079984
    101          1           0        4.338223   -1.148931    0.312757
    102          1           0        4.056730    1.173308   -2.392085
    103          1           0        5.777608    2.136970   -1.919079
    104          1           0        5.697565    0.646674   -3.009083
    105          1           0        6.683071    1.159559    0.358684
    106          1           0        6.257325   -0.413949    0.674675
    107          1           0        7.569074   -1.236517   -1.327130
    108          1           0        7.982603    0.377990   -1.730204
    109          1           0        9.041796    0.791310    0.351810
    110          1           0        8.602304   -0.832597    0.770958
    111          1           0       10.589684    0.126115   -1.514636
    112          1           0        9.587332   -2.209703   -2.218014
    113          1           0       11.332612   -2.241821   -1.967471
    114          1           0        9.888303   -2.632198   -0.608538
    115          1           0       11.584221    0.789686    0.325049
    116          1           0       11.270109   -0.967507    1.038634
    117          1           0       12.947241   -1.717294   -0.815423
    118          1           0       12.998515    0.148088   -1.633194
    119          1           0       13.909666    0.912753    0.679559
    120          1           0       13.985311   -0.715290    1.145508
    121          1           0       15.314128    0.479260   -1.373962
    122          1           0       15.806861   -2.254054   -0.106038
    123          1           0       14.986536   -1.916480   -1.618840
    124          1           0       16.457130   -1.661967   -1.399453
    125          1           0       16.154477    1.302798    0.651459
    126          1           0       16.545261   -0.427440    1.339080
    127          1           0       18.461422   -0.558017   -0.481515
    128          1           0       17.821068    0.927679   -1.259208
    129          1           0       18.513074    2.330433    1.106564
    130          1           0       18.865756    0.848857    1.685996
    131          1           0       20.766978    0.484764    0.073878
    132          1           0       20.176142    3.289141   -0.955289
    133          1           0       21.530825    2.323362   -1.322938
    134          1           0       19.928986    1.856122   -2.059234
    135          1           0       21.328568    1.316057    2.091294
    136          1           0       22.345210    2.148499    0.768141
    137          1           0       20.881646    3.015169    1.617944
 ---------------------------------------------------------------------

 SCF Done:  E(RCAM-B3LYP) =  -2933.48824352     A.U. after   16 cycles

 Excitation energies and oscillator strengths:

 Excited State   1:      Singlet-A      1.9296 eV  642.55 nm  f=0.2796  <S**2>=0.000
     240 -> 243        0.20840
     241 -> 242        0.67462
 This state for optimization and/or second-order correction.
 Total Energy, E(TD-HF/TD-DFT) =  -2933.41733365
 Copying the excited state density for this state as the 1-particle RhoCI density.

 The electronic state is 1-A.
 Alpha  occ. eigenvalues --  -46.79389 -19.23078 -19.22819 -19.18079 -19.16454
 Alpha  occ. eigenvalues --  -19.16315 -14.37870 -14.35303 -14.35179 -14.35053
 Alpha  occ. eigenvalues --  -10.34911 -10.34561 -10.30971 -10.29471 -10.28900
 Alpha  occ. eigenvalues --  -10.26291 -10.25910 -10.25665 -10.24867 -10.24756
 Alpha  occ. eigenvalues --  -10.24709 -10.24549 -10.24514 -10.24294 -10.24145
 Alpha  occ. eigenvalues --  -10.23996 -10.23902 -10.23901 -10.23688 -10.23372
 Alpha  occ. eigenvalues --  -10.23255 -10.23225 -10.23021 -10.22942 -10.22792
 Alpha  occ. eigenvalues --  -10.22695 -10.22685 -10.22642 -10.22405 -10.22286
 Alpha  occ. eigenvalues --  -10.22187 -10.22173 -10.22098 -10.22091 -10.21962
 Alpha  occ. eigenvalues --  -10.21954 -10.21872 -10.21861 -10.21711 -10.21703
 Alpha  occ. eigenvalues --  -10.21688 -10.21526 -10.21473 -10.21333 -10.21303
 Alpha  occ. eigenvalues --  -10.21238 -10.20889 -10.20761 -10.20713 -10.20683
 Alpha  occ. eigenvalues --  -10.20486 -10.20384 -10.20356 -10.20277 -10.16794
 Alpha  occ. eigenvalues --   -3.08097  -1.83036  -1.82550  -1.82527  -1.15390
 Alpha  occ. eigenvalues --   -1.12729  -1.08180  -1.05288  -1.03229  -1.00323
 Alpha  occ. eigenvalues --   -0.99089  -0.96667  -0.95274  -0.87453  -0.86445
 Alpha  occ. eigenvalues --   -0.85956  -0.84852  -0.84248  -0.83837  -0.83650
 Alpha  occ. eigenvalues --   -0.83069  -0.82580  -0.82510  -0.82086  -0.81143
 Alpha  occ. eigenvalues --   -0.80398  -0.79445  -0.78875  -0.78533  -0.77575
 Alpha  occ. eigenvalues --   -0.77140  -0.76450  -0.76110  -0.75590  -0.73460
 Alpha  occ. eigenvalues --   -0.72355  -0.71749  -0.71608  -0.71380  -0.71138
 Alpha  occ. eigenvalues --   -0.70300  -0.70157  -0.69975  -0.69015  -0.67511
 Alpha  occ. eigenvalues --   -0.66821  -0.66407  -0.65005  -0.64403  -0.62927
 Alpha  occ. eigenvalues --   -0.62834  -0.61436  -0.60670  -0.60299  -0.59950
 Alpha  occ. eigenvalues --   -0.59840  -0.58788  -0.58586  -0.58468  -0.57980
 Alpha  occ. eigenvalues --   -0.57669  -0.56269  -0.55960  -0.55545  -0.55121
 Alpha  occ. eigenvalues --   -0.54604  -0.54149  -0.53583  -0.53258  -0.52948
 Alpha  occ. eigenvalues --   -0.52094  -0.52049  -0.51638  -0.51520  -0.51170
 Alpha  occ. eigenvalues --   -0.50972  -0.50746  -0.50270  -0.50011  -0.49457
 Alpha  occ. eigenvalues --   -0.49273  -0.49085  -0.48749  -0.48590  -0.48336
 Alpha  occ. eigenvalues --   -0.47762  -0.47628  -0.47535  -0.47180  -0.46799
 Alpha  occ. eigenvalues --   -0.46190  -0.46163  -0.46013  -0.45946  -0.45684
 Alpha  occ. eigenvalues --   -0.45465  -0.45296  -0.45001  -0.44957  -0.44897
 Alpha  occ. eigenvalues --   -0.44721  -0.44544  -0.44263  -0.43881  -0.43658
 Alpha  occ. eigenvalues --   -0.43218  -0.43086  -0.42892  -0.42805  -0.42664
 Alpha  occ. eigenvalues --   -0.42398  -0.42263  -0.42055  -0.42020  -0.41915
 Alpha  occ. eigenvalues --   -0.41727  -0.41495  -0.41393  -0.41010  -0.40912
 Alpha  occ. eigenvalues --   -0.40761  -0.40523  -0.40272  -0.40203  -0.40072
 Alpha  occ. eigenvalues --   -0.39945  -0.39623  -0.39329  -0.39042  -0.38824
 Alpha  occ. eigenvalues --   -0.38782  -0.38611  -0.38349  -0.38240  -0.37954
 Alpha  occ. eigenvalues --   -0.37928  -0.37870  -0.37240  -0.37171  -0.37029
 Alpha  occ. eigenvalues --   -0.36883  -0.36558  -0.36309  -0.36266  -0.35668
 Alpha  occ. eigenvalues --   -0.35509  -0.35126  -0.34837  -0.34601  -0.34283
 Alpha  occ. eigenvalues --   -0.34127  -0.33882  -0.33672  -0.33650  -0.33465
 Alpha  occ. eigenvalues --   -0.33326  -0.33290  -0.32988  -0.32676  -0.32665
 Alpha  occ. eigenvalues --   -0.32364  -0.32333  -0.32145  -0.31390  -0.29976
 Alpha  occ. eigenvalues --   -0.29803  -0.29532  -0.29429  -0.28635  -0.27866
 Alpha  occ. eigenvalues --   -0.27185  -0.26351  -0.24951  -0.24107  -0.21697
 Alpha  occ. eigenvalues --   -0.18852
 Alpha virt. eigenvalues --   -0.06541  -0.03411  -0.00562   0.02466   0.02624
 Alpha virt. eigenvalues --    0.03611   0.04143   0.05037   0.05333   0.05637
 Alpha virt. eigenvalues --    0.06240   0.08629   0.09043   0.09468   0.09740

 Mulliken charges:
               1
     1  Mg   0.807523
     2  C    0.097289
     3  C   -0.169733
     4  C   -0.180239
     5  C   -0.130646
     6  N   -0.612663
     7  C    0.254128
     8  C   -0.196339
     9  C   -0.151937
    10  C    0.352866
    11  C   -0.297157
    12  C   -0.101881
    13  C   -0.266673
    14  C    0.598969
    15  O   -0.489013
    16  O   -0.453336
    17  N   -0.717370
    18  C    0.284041
    19  C    0.045951
    20  C   -0.038508
    21  C    0.334541
    22  C   -0.392599
    23  C   -0.040880
    24  C   -0.242665
    25  N   -0.693686
    26  C    0.287900
    27  C    0.053488
    28  C    0.038139
    29  C    0.302720
    30  C   -0.387024
    31  C   -0.231324
    32  C   -0.269487
    33  N   -0.723406
    34  C    0.278514
    35  C   -0.082886
    36  C    0.167068
    37  C    0.253897
    38  C   -0.360529
    39  C    0.337579
    40  O   -0.467737
    41  C   -0.347669
    42  C    0.638196
    43  O   -0.417326
    44  O   -0.431342
    45  C   -0.078821
    46  C   -0.015005
    47  C   -0.130703
    48  C    0.109892
    49  C   -0.342903
    50  C   -0.238170
    51  C   -0.178018
    52  C   -0.187108
    53  C   -0.058103
    54  C   -0.306726
    55  C   -0.174540
    56  C   -0.163016
    57  C   -0.151785
    58  C   -0.066778
    59  C   -0.295100
    60  C   -0.137439
    61  C   -0.170522
    62  C   -0.174774
    63  C   -0.065005
    64  C   -0.301504
    65  C   -0.314350
    66  H    0.064425
    67  H    0.086522
    68  H    0.077542
    69  H    0.123141
    70  H    0.075953
    71  H    0.108310
    72  H    0.102449
    73  H    0.135280
    74  H    0.112512
    75  H    0.131761
    76  H    0.142720
    77  H    0.104070
    78  H    0.138320
    79  H    0.092542
    80  H    0.117475
    81  H    0.090648
    82  H    0.094125
    83  H    0.097059
    84  H    0.116773
    85  H    0.124435
    86  H    0.115930
    87  H    0.091226
    88  H    0.104620
    89  H    0.096144
    90  H    0.056475
    91  H    0.090013
    92  H    0.084974
    93  H    0.149593
    94  H    0.114089
    95  H    0.160919
    96  H    0.074271
    97  H    0.135711
    98  H    0.110965
    99  H    0.138711
   100  H    0.124862
   101  H    0.088368
   102  H    0.118269
   103  H    0.098784
   104  H    0.124455
   105  H    0.105847
   106  H    0.094579
   107  H    0.101565
   108  H    0.104808
   109  H    0.098421
   110  H    0.093317
   111  H    0.085079
   112  H    0.114880
   113  H    0.072831
   114  H    0.100208
   115  H    0.104655
   116  H    0.086531
   117  H    0.090463
   118  H    0.048390
   119  H    0.054125
   120  H    0.089999
   121  H    0.077867
   122  H    0.097477
   123  H    0.107133
   124  H    0.097704
   125  H    0.095736
   126  H    0.053392
   127  H    0.085936
   128  H    0.085776
   129  H    0.078543
   130  H    0.093452
   131  H    0.082767
   132  H    0.095898
   133  H    0.078653
   134  H    0.100254
   135  H    0.088875
   136  H    0.108253
   137  H    0.113868
 Sum of Mulliken charges =  -0.00000

 Dipole moment (field-independent basis, Debye):
    X=              3.3128    Y=              3.6587    Z=              0.9485  Tot=              5.0260
 Quadrupole moment (field-independent basis, Debye-Ang):
   XX=           -351.4017   YY=           -397.4369   ZZ=           -400.3549
   XY=            -21.2020   XZ=              1.4157   YZ=             -2.7393

 Normal termination of Gaussian 16 at Tue Sep  3 13:39:35 2019.
