 Gaussian 16, Revision A.03,
 Gaussian 16:  ES64L-G16RevA.03 25-Dec-2016

 ----------------------------------------------------------------------
 # td=(NStates=1) iop(3/107=0140000000,3/108=0140000000) CAM-B3LYP/6-31
 G(d,p)
 ----------------------------------------------------------------------

 --
 TD
 --
 Symbolic Z-matrix:
 Charge =  0 Multiplicity = 1

                         Standard orientation:
 ---------------------------------------------------------------------
 Center     Atomic      Atomic             Coordinates (Angstroms)
 Number     Number       Type             X           Y           Z
 ---------------------------------------------------------------------
      1         12           0       -7.058268    0.601305    0.055679
      2          6           0       -4.860211   -2.020762    0.545636
      3          6           0       -4.820978    2.811525    1.326222
      4          6           0       -9.284130    3.197884   -0.507767
      5          6           0       -9.487974   -1.554371   -0.982477
      6          7           0       -5.060691    0.408530    0.763112
      7          6           0       -4.267834   -0.706847    0.920733
      8          6           0       -2.926787   -0.439242    1.323353
      9          6           0       -2.988024    1.144674    1.799171
     10          6           0       -4.355673    1.538487    1.136347
     11          6           0       -2.875865    1.166034    3.321081
     12          6           0       -1.916333   -0.654509    0.144509
     13          6           0       -0.451370   -0.643929    0.611764
     14          6           0        0.551932   -0.888051   -0.547231
     15          8           0        0.240148   -1.201363   -1.718603
     16          8           0        1.757190   -0.591683   -0.115811
     17          7           0       -7.022217    2.629160    0.390680
     18          6           0       -6.054157    3.374144    0.905333
     19          6           0       -6.263576    4.793434    0.881635
     20          6           0       -7.558464    4.801675    0.272044
     21          6           0       -8.021389    3.540220   -0.003214
     22          6           0       -5.306883    5.870358    1.376710
     23          6           0       -8.382674    6.031432    0.175398
     24          6           0       -8.210312    7.285887    0.689322
     25          7           0       -9.056151    0.782159   -0.623499
     26          6           0       -9.718406    1.879350   -0.676367
     27          6           0      -11.049727    1.629542   -1.303535
     28          6           0      -11.158428    0.245948   -1.341574
     29          6           0       -9.838139   -0.261092   -0.963824
     30          6           0      -12.159413    2.800536   -1.527495
     31          6           0      -12.285682   -0.616313   -1.868589
     32          6           0      -12.090379   -0.960383   -3.336419
     33          7           0       -7.246260   -1.345748   -0.225370
     34          6           0       -8.256279   -2.170740   -0.556632
     35          6           0       -7.820845   -3.561369   -0.484506
     36          6           0       -6.564650   -3.487608   -0.101562
     37          6           0       -6.181388   -2.171589    0.079340
     38          6           0       -8.599714   -4.813176   -0.871068
     39          6           0       -5.474100   -4.300277    0.271861
     40          8           0       -5.298993   -5.558584    0.221649
     41          6           0       -4.263207   -3.386190    0.636322
     42          6           0       -3.647238   -3.767601    1.957758
     43          8           0       -3.944364   -3.258644    2.971509
     44          8           0       -2.836562   -4.856474    1.725481
     45          6           0       -2.380400   -5.308548    3.014469
     46          6           0        2.756189   -0.768833   -1.154196
     47          6           0        4.173546   -0.543584   -0.464155
     48          6           0        5.128036    0.221843   -0.918833
     49          6           0        4.868074    0.943451   -2.229766
     50          6           0        6.403820    0.335598   -0.248713
     51          6           0        7.583520   -0.305034   -1.065563
     52          6           0        8.949285   -0.225459   -0.199990
     53          6           0       10.140418   -0.725482   -0.904773
     54          6           0       10.061451   -2.259330   -1.252544
     55          6           0       11.473938   -0.423747   -0.114722
     56          6           0       12.767593   -0.560348   -0.844246
     57          6           0       13.875422   -0.180770    0.128346
     58          6           0       15.227583   -0.134865   -0.559610
     59          6           0       15.676836   -1.465442   -1.060431
     60          6           0       16.358873    0.521703    0.387984
     61          6           0       17.703096    0.611471   -0.195571
     62          6           0       18.711681    1.380228    0.774767
     63          6           0       20.120932    1.511225    0.262613
     64          6           0       20.144529    2.392661   -0.998107
     65          6           0       20.997349    2.128511    1.412579
     66          1           0       -4.252113    3.587899    2.015302
     67          1           0       -9.920658    4.129359   -0.614760
     68          1           0      -10.573221   -2.041574   -1.199725
     69          1           0       -2.784402   -1.113503    2.259533
     70          1           0       -2.335055    1.881588    1.439344
     71          1           0       -1.814304    0.691699    3.635004
     72          1           0       -2.774876    2.012445    3.524550
     73          1           0       -3.634266    0.806502    4.039909
     74          1           0       -2.161112   -1.692642   -0.309952
     75          1           0       -2.085628    0.274198   -0.651862
     76          1           0        0.008338    0.032149    1.338402
     77          1           0       -0.248460   -1.423306    1.255751
     78          1           0       -5.369984    6.646624    0.618170
     79          1           0       -5.217778    6.122241    2.410214
     80          1           0       -4.327807    5.645511    1.063435
     81          1           0       -9.376786    5.990012   -0.588962
     82          1           0       -8.896044    8.080174    0.493685
     83          1           0       -7.524380    7.560199    1.432711
     84          1           0      -11.868705    3.440017   -2.259271
     85          1           0      -13.146596    2.383654   -1.785409
     86          1           0      -12.612164    3.253289   -0.463715
     87          1           0      -12.397725   -1.498442   -1.349699
     88          1           0      -13.246119   -0.135157   -1.598082
     89          1           0      -12.818992   -1.559566   -3.858424
     90          1           0      -12.013155   -0.076469   -3.910379
     91          1           0      -11.166739   -1.477742   -3.464284
     92          1           0       -8.946280   -4.713882   -2.001677
     93          1           0       -7.853761   -5.510988   -0.703030
     94          1           0       -9.549833   -4.975081   -0.330154
     95          1           0       -3.541782   -3.404640   -0.043165
     96          1           0       -1.635828   -4.728899    3.464268
     97          1           0       -3.330544   -5.470614    3.695789
     98          1           0       -1.788032   -6.201793    2.762202
     99          1           0        2.831765   -1.875090   -1.298551
    100          1           0        2.663278   -0.264421   -2.098207
    101          1           0        4.215185   -1.014894    0.466348
    102          1           0        3.829941    1.028596   -2.433636
    103          1           0        5.032405    2.046250   -2.157552
    104          1           0        5.413545    0.370995   -2.979866
    105          1           0        6.793759    1.436380   -0.177441
    106          1           0        6.469576   -0.087025    0.774802
    107          1           0        7.370956   -1.382984   -1.359445
    108          1           0        7.587685    0.209287   -2.223101
    109          1           0        9.112977    0.861365   -0.041845
    110          1           0        8.864193   -0.894112    0.535305
    111          1           0       10.094228   -0.164729   -1.792495
    112          1           0        9.411337   -2.743871   -2.185175
    113          1           0       10.944576   -2.673695   -1.552264
    114          1           0        9.900852   -2.724320   -0.222107
    115          1           0       11.334163    0.538568    0.212958
    116          1           0       11.413788   -1.040368    0.729528
    117          1           0       12.762027   -1.535801   -1.160726
    118          1           0       12.708875   -0.033894   -1.699734
    119          1           0       13.682067    1.010131    0.434949
    120          1           0       13.874880   -0.943696    1.088832
    121          1           0       15.289237    0.681062   -1.433995
    122          1           0       15.857371   -2.277169   -0.440193
    123          1           0       14.656996   -1.985461   -1.549854
    124          1           0       16.452392   -1.482004   -1.815382
    125          1           0       15.777613    1.513833    0.715553
    126          1           0       16.517580   -0.349090    1.225064
    127          1           0       18.134453   -0.313218   -0.421349
    128          1           0       17.894221    1.451113   -1.139050
    129          1           0       18.184553    2.488529    0.939758
    130          1           0       18.694802    0.896472    1.689617
    131          1           0       20.534439    0.489133   -0.149719
    132          1           0       19.749753    3.317493   -0.737467
    133          1           0       21.212533    2.338907   -1.352554
    134          1           0       19.575406    2.005345   -1.637681
    135          1           0       21.004472    1.406694    2.148865
    136          1           0       22.013284    2.203110    1.130412
    137          1           0       20.479900    3.064965    1.744352
 ---------------------------------------------------------------------

 SCF Done:  E(RCAM-B3LYP) =  -2933.41283901     A.U. after   16 cycles

 Excitation energies and oscillator strengths:

 Excited State   1:      Singlet-A      1.9587 eV  632.98 nm  f=0.3171  <S**2>=0.000
     240 -> 243        0.21533
     241 -> 242        0.67127
 This state for optimization and/or second-order correction.
 Total Energy, E(TD-HF/TD-DFT) =  -2933.34085635
 Copying the excited state density for this state as the 1-particle RhoCI density.

 The electronic state is 1-A.
 Alpha  occ. eigenvalues --  -46.80036 -19.23503 -19.22397 -19.17820 -19.16153
 Alpha  occ. eigenvalues --  -19.15532 -14.38001 -14.35278 -14.34659 -14.34552
 Alpha  occ. eigenvalues --  -10.34599 -10.34338 -10.30036 -10.27753 -10.26799
 Alpha  occ. eigenvalues --  -10.26665 -10.25828 -10.25284 -10.25192 -10.24253
 Alpha  occ. eigenvalues --  -10.24178 -10.24060 -10.24057 -10.23978 -10.23866
 Alpha  occ. eigenvalues --  -10.23738 -10.23676 -10.23539 -10.23475 -10.23269
 Alpha  occ. eigenvalues --  -10.23109 -10.23036 -10.22938 -10.22838 -10.22824
 Alpha  occ. eigenvalues --  -10.22733 -10.22601 -10.22560 -10.22539 -10.22400
 Alpha  occ. eigenvalues --  -10.22254 -10.22198 -10.21980 -10.21955 -10.21852
 Alpha  occ. eigenvalues --  -10.21833 -10.21788 -10.21650 -10.21611 -10.21560
 Alpha  occ. eigenvalues --  -10.21342 -10.21184 -10.20921 -10.20823 -10.20756
 Alpha  occ. eigenvalues --  -10.20696 -10.20516 -10.20400 -10.20187 -10.20037
 Alpha  occ. eigenvalues --  -10.19609 -10.19326 -10.19234 -10.19033 -10.17735
 Alpha  occ. eigenvalues --   -3.08611  -1.83559  -1.83074  -1.83024  -1.14269
 Alpha  occ. eigenvalues --   -1.13961  -1.06577  -1.02949  -1.02704  -1.00367
 Alpha  occ. eigenvalues --   -0.99461  -0.98659  -0.97602  -0.88407  -0.86660
 Alpha  occ. eigenvalues --   -0.85991  -0.84695  -0.84386  -0.84246  -0.83490
 Alpha  occ. eigenvalues --   -0.83417  -0.83001  -0.82499  -0.81755  -0.81143
 Alpha  occ. eigenvalues --   -0.80438  -0.79623  -0.78360  -0.77848  -0.77350
 Alpha  occ. eigenvalues --   -0.76990  -0.76575  -0.75742  -0.74834  -0.73909
 Alpha  occ. eigenvalues --   -0.73567  -0.72574  -0.72365  -0.71972  -0.71562
 Alpha  occ. eigenvalues --   -0.70801  -0.70358  -0.69858  -0.69174  -0.68187
 Alpha  occ. eigenvalues --   -0.67310  -0.66628  -0.66074  -0.65269  -0.65004
 Alpha  occ. eigenvalues --   -0.62722  -0.61855  -0.61272  -0.60846  -0.60619
 Alpha  occ. eigenvalues --   -0.59991  -0.59560  -0.59228  -0.58254  -0.57431
 Alpha  occ. eigenvalues --   -0.56878  -0.56657  -0.56112  -0.55503  -0.55292
 Alpha  occ. eigenvalues --   -0.54741  -0.54255  -0.53339  -0.53185  -0.53172
 Alpha  occ. eigenvalues --   -0.52439  -0.52378  -0.52175  -0.51206  -0.50861
 Alpha  occ. eigenvalues --   -0.50698  -0.50389  -0.50293  -0.49896  -0.49525
 Alpha  occ. eigenvalues --   -0.49272  -0.49017  -0.48703  -0.48314  -0.47883
 Alpha  occ. eigenvalues --   -0.47859  -0.47668  -0.47551  -0.47195  -0.47048
 Alpha  occ. eigenvalues --   -0.46938  -0.46779  -0.46598  -0.46072  -0.45585
 Alpha  occ. eigenvalues --   -0.45526  -0.45502  -0.45108  -0.44937  -0.44793
 Alpha  occ. eigenvalues --   -0.44638  -0.44313  -0.43914  -0.43723  -0.43490
 Alpha  occ. eigenvalues --   -0.43324  -0.43003  -0.42935  -0.42752  -0.42541
 Alpha  occ. eigenvalues --   -0.42518  -0.42240  -0.42161  -0.41840  -0.41633
 Alpha  occ. eigenvalues --   -0.41480  -0.41100  -0.40829  -0.40765  -0.40607
 Alpha  occ. eigenvalues --   -0.40440  -0.40230  -0.40139  -0.39952  -0.39837
 Alpha  occ. eigenvalues --   -0.39556  -0.39424  -0.39363  -0.39118  -0.39100
 Alpha  occ. eigenvalues --   -0.38834  -0.38438  -0.38354  -0.38148  -0.37715
 Alpha  occ. eigenvalues --   -0.37677  -0.37673  -0.37571  -0.37357  -0.36956
 Alpha  occ. eigenvalues --   -0.36883  -0.36592  -0.36458  -0.36323  -0.36190
 Alpha  occ. eigenvalues --   -0.36077  -0.35325  -0.35161  -0.34925  -0.34865
 Alpha  occ. eigenvalues --   -0.34348  -0.34327  -0.34022  -0.33866  -0.33751
 Alpha  occ. eigenvalues --   -0.33600  -0.33557  -0.33336  -0.33113  -0.32583
 Alpha  occ. eigenvalues --   -0.32431  -0.31937  -0.31904  -0.31141  -0.30118
 Alpha  occ. eigenvalues --   -0.29771  -0.29554  -0.28845  -0.28270  -0.27636
 Alpha  occ. eigenvalues --   -0.27084  -0.26538  -0.26211  -0.24426  -0.21681
 Alpha  occ. eigenvalues --   -0.19548
 Alpha virt. eigenvalues --   -0.07271  -0.03308  -0.00746   0.02482   0.04152
 Alpha virt. eigenvalues --    0.04353   0.04687   0.05219   0.05278   0.05381
 Alpha virt. eigenvalues --    0.06213   0.08862   0.09055   0.09561   0.10143

 Mulliken charges:
               1
     1  Mg   0.810955
     2  C    0.032208
     3  C   -0.192355
     4  C   -0.152053
     5  C   -0.178182
     6  N   -0.611772
     7  C    0.339674
     8  C   -0.192321
     9  C   -0.136231
    10  C    0.299452
    11  C   -0.278263
    12  C   -0.147929
    13  C   -0.274273
    14  C    0.610339
    15  O   -0.503309
    16  O   -0.440248
    17  N   -0.716226
    18  C    0.310614
    19  C    0.040773
    20  C   -0.025093
    21  C    0.323473
    22  C   -0.391008
    23  C   -0.081317
    24  C   -0.257476
    25  N   -0.673911
    26  C    0.308346
    27  C   -0.007420
    28  C    0.001714
    29  C    0.330386
    30  C   -0.362922
    31  C   -0.254740
    32  C   -0.313031
    33  N   -0.744117
    34  C    0.251716
    35  C   -0.004246
    36  C    0.115369
    37  C    0.295205
    38  C   -0.365807
    39  C    0.322875
    40  O   -0.497843
    41  C   -0.287340
    42  C    0.619400
    43  O   -0.442043
    44  O   -0.444781
    45  C   -0.095630
    46  C    0.000387
    47  C   -0.149585
    48  C    0.161845
    49  C   -0.369412
    50  C   -0.225038
    51  C   -0.189966
    52  C   -0.146155
    53  C   -0.083815
    54  C   -0.315340
    55  C   -0.178944
    56  C   -0.158224
    57  C   -0.150140
    58  C   -0.041451
    59  C   -0.316377
    60  C   -0.147678
    61  C   -0.158205
    62  C   -0.152317
    63  C   -0.075050
    64  C   -0.286504
    65  C   -0.303376
    66  H    0.073460
    67  H    0.095769
    68  H    0.072559
    69  H    0.122491
    70  H    0.108851
    71  H    0.077315
    72  H    0.110948
    73  H    0.121691
    74  H    0.117776
    75  H    0.105694
    76  H    0.131421
    77  H    0.140095
    78  H    0.130703
    79  H    0.134655
    80  H    0.123595
    81  H    0.057387
    82  H    0.100726
    83  H    0.103413
    84  H    0.136014
    85  H    0.113674
    86  H    0.099234
    87  H    0.117238
    88  H    0.099296
    89  H    0.103240
    90  H    0.117446
    91  H    0.114773
    92  H    0.111663
    93  H    0.152559
    94  H    0.126205
    95  H    0.158822
    96  H    0.126575
    97  H    0.130344
    98  H    0.119127
    99  H    0.125858
   100  H    0.136863
   101  H    0.081521
   102  H    0.113069
   103  H    0.106983
   104  H    0.129514
   105  H    0.087361
   106  H    0.101242
   107  H    0.098359
   108  H    0.055930
   109  H    0.092999
   110  H    0.098075
   111  H    0.083160
   112  H    0.079337
   113  H    0.114694
   114  H    0.086142
   115  H    0.089818
   116  H    0.086515
   117  H    0.107575
   118  H    0.104964
   119  H    0.062988
   120  H    0.077011
   121  H    0.072135
   122  H    0.114121
   123  H    0.057388
   124  H    0.112235
   125  H    0.074947
   126  H    0.063207
   127  H    0.105978
   128  H    0.050551
   129  H    0.054562
   130  H    0.091846
   131  H    0.062733
   132  H    0.099577
   133  H    0.086902
   134  H    0.112708
   135  H    0.109757
   136  H    0.100786
   137  H    0.100569
 Sum of Mulliken charges =  -0.00000

 Dipole moment (field-independent basis, Debye):
    X=              3.0688    Y=              3.7617    Z=              1.4712  Tot=              5.0727
 Quadrupole moment (field-independent basis, Debye-Ang):
   XX=           -346.2482   YY=           -401.8356   ZZ=           -395.4798
   XY=            -29.0797   XZ=              9.1479   YZ=             -2.6120

 Normal termination of Gaussian 16 at Sun Sep  8 05:12:18 2019.
