 Gaussian 16, Revision A.03,
 Gaussian 16:  ES64L-G16RevA.03 25-Dec-2016

 ----------------------------------------------------------------------
 # td=(NStates=1) iop(3/107=0140000000,3/108=0140000000) CAM-B3LYP/6-31
 G(d,p)
 ----------------------------------------------------------------------

 --
 TD
 --
 Symbolic Z-matrix:
 Charge =  0 Multiplicity = 1

                         Standard orientation:
 ---------------------------------------------------------------------
 Center     Atomic      Atomic             Coordinates (Angstroms)
 Number     Number       Type             X           Y           Z
 ---------------------------------------------------------------------
      1         12           0       -7.173431    0.593807    0.165195
      2          6           0       -4.921727   -1.939015    0.528702
      3          6           0       -4.828180    2.771336    1.420784
      4          6           0       -9.345117    3.135363   -0.440355
      5          6           0       -9.611335   -1.731546   -0.893070
      6          7           0       -5.116175    0.381064    0.854884
      7          6           0       -4.435771   -0.724645    0.957913
      8          6           0       -2.987308   -0.477155    1.293284
      9          6           0       -2.977062    0.970474    1.857284
     10          6           0       -4.404623    1.488975    1.355959
     11          6           0       -2.843429    1.203357    3.333530
     12          6           0       -1.964040   -0.623647    0.081016
     13          6           0       -0.567114   -0.385118    0.614031
     14          6           0        0.451727   -0.688118   -0.565755
     15          8           0        0.178340   -0.956666   -1.718570
     16          8           0        1.685952   -0.367131   -0.185343
     17          7           0       -7.163024    2.618808    0.356202
     18          6           0       -6.014707    3.290617    0.894400
     19          6           0       -6.398337    4.749580    0.940826
     20          6           0       -7.613416    4.851692    0.297027
     21          6           0       -8.065918    3.538950   -0.083413
     22          6           0       -5.533990    5.829404    1.331911
     23          6           0       -8.482726    5.971822    0.166819
     24          6           0       -8.370000    7.174013    0.786588
     25          7           0       -9.075254    0.663851   -0.632455
     26          6           0       -9.854881    1.876341   -0.643780
     27          6           0      -11.211035    1.515949   -1.318833
     28          6           0      -11.244240    0.185739   -1.379327
     29          6           0       -9.946999   -0.307211   -0.875400
     30          6           0      -12.237217    2.584540   -1.768979
     31          6           0      -12.335024   -0.649708   -1.907941
     32          6           0      -12.200136   -1.068350   -3.445203
     33          7           0       -7.313277   -1.389464   -0.102827
     34          6           0       -8.357426   -2.220679   -0.514934
     35          6           0       -7.915597   -3.631966   -0.440116
     36          6           0       -6.545989   -3.544025   -0.163977
     37          6           0       -6.292029   -2.165998    0.195267
     38          6           0       -8.835053   -4.764110   -0.715206
     39          6           0       -5.358003   -4.302215    0.057167
     40          8           0       -5.284680   -5.565509    0.077074
     41          6           0       -4.261904   -3.363949    0.533695
     42          6           0       -3.662595   -3.772552    1.840997
     43          8           0       -4.020437   -3.301720    2.917614
     44          8           0       -2.768854   -4.714135    1.694374
     45          6           0       -2.199992   -5.418790    2.943944
     46          6           0        2.756378   -0.476758   -1.246852
     47          6           0        4.047498   -0.324093   -0.564771
     48          6           0        5.155802    0.400827   -0.873026
     49          6           0        5.189800    1.091341   -2.295233
     50          6           0        6.499189    0.408070   -0.101616
     51          6           0        7.724117   -0.245196   -0.822801
     52          6           0        8.996640   -0.149901   -0.002132
     53          6           0       10.252518   -0.442453   -0.802633
     54          6           0       10.183766   -1.961295   -1.535268
     55          6           0       11.488809   -0.248211    0.119172
     56          6           0       12.780357   -0.490530   -0.614194
     57          6           0       14.050914   -0.163442    0.182928
     58          6           0       15.470119   -0.220199   -0.606062
     59          6           0       15.754699   -1.575195   -0.988080
     60          6           0       16.473437    0.443642    0.359648
     61          6           0       17.922101    0.499116   -0.226433
     62          6           0       18.929733    1.216122    0.687566
     63          6           0       20.368879    1.294859    0.167331
     64          6           0       20.374690    2.211234   -1.125689
     65          6           0       21.364751    1.801206    1.258655
     66          1           0       -4.095430    3.521189    2.045493
     67          1           0      -10.059095    3.845212   -0.651892
     68          1           0      -10.454240   -2.432498   -1.233225
     69          1           0       -2.615636   -1.109205    2.212725
     70          1           0       -2.205408    1.465559    1.126401
     71          1           0       -1.817083    0.785120    3.589591
     72          1           0       -3.163307    2.145842    3.668738
     73          1           0       -3.584192    0.513200    4.003816
     74          1           0       -2.200498   -1.653261   -0.423289
     75          1           0       -2.358789    0.097673   -0.477442
     76          1           0       -0.462281    0.562727    1.123135
     77          1           0       -0.434723   -1.207135    1.323685
     78          1           0       -6.043880    6.859250    0.973889
     79          1           0       -5.704075    6.245690    2.409296
     80          1           0       -4.369413    5.644869    1.461800
     81          1           0       -9.174217    6.023485   -0.701518
     82          1           0       -9.047223    7.969487    0.442777
     83          1           0       -7.993153    7.468218    1.539161
     84          1           0      -11.873030    2.989716   -2.783997
     85          1           0      -13.206759    2.180566   -1.888358
     86          1           0      -12.414988    3.606979   -1.005394
     87          1           0      -12.414154   -1.440505   -1.330364
     88          1           0      -13.287727   -0.097280   -1.859570
     89          1           0      -12.840950   -2.132907   -3.682211
     90          1           0      -12.525236   -0.209915   -4.114410
     91          1           0      -11.129718   -1.293140   -3.646825
     92          1           0       -9.287816   -4.779373   -1.810578
     93          1           0       -8.246463   -5.619303   -0.613524
     94          1           0       -9.658854   -4.657801   -0.167252
     95          1           0       -3.527256   -3.435145   -0.451273
     96          1           0       -1.589633   -4.865367    3.559026
     97          1           0       -2.942832   -5.747316    3.538093
     98          1           0       -1.612966   -6.303378    2.526226
     99          1           0        2.655167   -1.482512   -1.598607
    100          1           0        2.465452    0.146061   -2.076736
    101          1           0        4.312090   -0.708140    0.484002
    102          1           0        4.250940    1.294924   -2.830641
    103          1           0        5.520712    2.090929   -2.160635
    104          1           0        5.758224    0.505107   -3.042275
    105          1           0        6.964653    1.389703    0.032703
    106          1           0        6.177834   -0.121742    0.794059
    107          1           0        7.469179   -1.163398   -0.961804
    108          1           0        7.824973    0.232044   -1.851806
    109          1           0        9.092945    0.800156    0.492820
    110          1           0        8.787066   -0.831747    0.821363
    111          1           0       10.343997    0.385192   -1.745048
    112          1           0        9.033710   -1.795629   -2.128663
    113          1           0       11.074711   -2.131332   -2.238299
    114          1           0       10.482980   -2.595378   -0.578072
    115          1           0       11.413873    0.745240    0.486721
    116          1           0       11.381339   -0.887346    1.123196
    117          1           0       12.663636   -1.604068   -0.896349
    118          1           0       12.670558   -0.068205   -1.645023
    119          1           0       14.148243    0.864195    0.529820
    120          1           0       13.950312   -0.814141    1.204353
    121          1           0       15.479988    0.462682   -1.574430
    122          1           0       15.592745   -2.309411   -0.175313
    123          1           0       14.880974   -1.906400   -1.686751
    124          1           0       16.687636   -1.751476   -1.639657
    125          1           0       16.150360    1.429937    0.633769
    126          1           0       16.698679   -0.160483    1.260076
    127          1           0       18.263929   -0.504916   -0.644618
    128          1           0       18.006319    1.243071   -1.054391
    129          1           0       18.499437    2.247094    1.356667
    130          1           0       18.905507    0.411580    1.524003
    131          1           0       20.556926    0.144413   -0.082842
    132          1           0       19.909331    3.323061   -0.910496
    133          1           0       21.443057    2.296956   -1.347137
    134          1           0       19.804305    1.799272   -1.954948
    135          1           0       21.613073    0.946705    1.948941
    136          1           0       22.331736    1.961785    0.679444
    137          1           0       21.029100    2.799761    1.683512
 ---------------------------------------------------------------------

 SCF Done:  E(RCAM-B3LYP) =  -2933.46515645     A.U. after   16 cycles

 Excitation energies and oscillator strengths:

 Excited State   1:      Singlet-A      1.9616 eV  632.07 nm  f=0.2913  <S**2>=0.000
     240 -> 243       -0.21299
     241 -> 242        0.67123
 This state for optimization and/or second-order correction.
 Total Energy, E(TD-HF/TD-DFT) =  -2933.39307073
 Copying the excited state density for this state as the 1-particle RhoCI density.

 The electronic state is 1-A.
 Alpha  occ. eigenvalues --  -46.79990 -19.22612 -19.21686 -19.16378 -19.15551
 Alpha  occ. eigenvalues --  -19.15247 -14.37481 -14.35542 -14.35454 -14.35224
 Alpha  occ. eigenvalues --  -10.34410 -10.34244 -10.29895 -10.28032 -10.27215
 Alpha  occ. eigenvalues --  -10.25895 -10.25704 -10.25626 -10.25292 -10.25281
 Alpha  occ. eigenvalues --  -10.25236 -10.24864 -10.24535 -10.24456 -10.24402
 Alpha  occ. eigenvalues --  -10.24210 -10.24043 -10.24000 -10.23998 -10.23916
 Alpha  occ. eigenvalues --  -10.23710 -10.23665 -10.23246 -10.23216 -10.23198
 Alpha  occ. eigenvalues --  -10.23085 -10.23059 -10.22952 -10.22652 -10.22583
 Alpha  occ. eigenvalues --  -10.22566 -10.22562 -10.22491 -10.22432 -10.22354
 Alpha  occ. eigenvalues --  -10.22315 -10.22302 -10.22132 -10.21642 -10.21588
 Alpha  occ. eigenvalues --  -10.21542 -10.21482 -10.21363 -10.21326 -10.21238
 Alpha  occ. eigenvalues --  -10.21186 -10.21163 -10.21021 -10.21020 -10.21015
 Alpha  occ. eigenvalues --  -10.20967 -10.20794 -10.20626 -10.20596 -10.19359
 Alpha  occ. eigenvalues --   -3.08566  -1.83512  -1.83033  -1.82970  -1.12583
 Alpha  occ. eigenvalues --   -1.12541  -1.03426  -1.03043  -1.02757  -0.99560
 Alpha  occ. eigenvalues --   -0.98514  -0.97262  -0.96207  -0.86950  -0.85952
 Alpha  occ. eigenvalues --   -0.85104  -0.84885  -0.84063  -0.83898  -0.83878
 Alpha  occ. eigenvalues --   -0.83501  -0.82645  -0.82590  -0.81969  -0.81031
 Alpha  occ. eigenvalues --   -0.80044  -0.79029  -0.78405  -0.77791  -0.77187
 Alpha  occ. eigenvalues --   -0.76835  -0.76624  -0.75860  -0.74653  -0.73588
 Alpha  occ. eigenvalues --   -0.73080  -0.72748  -0.71722  -0.71317  -0.70392
 Alpha  occ. eigenvalues --   -0.70273  -0.69934  -0.69051  -0.68744  -0.68020
 Alpha  occ. eigenvalues --   -0.66663  -0.65973  -0.65182  -0.64701  -0.64368
 Alpha  occ. eigenvalues --   -0.63666  -0.62481  -0.61008  -0.60339  -0.60282
 Alpha  occ. eigenvalues --   -0.59706  -0.59276  -0.58278  -0.57834  -0.57326
 Alpha  occ. eigenvalues --   -0.56655  -0.56047  -0.55717  -0.55438  -0.55108
 Alpha  occ. eigenvalues --   -0.54529  -0.54373  -0.53799  -0.52924  -0.52596
 Alpha  occ. eigenvalues --   -0.52328  -0.51855  -0.51413  -0.51277  -0.50775
 Alpha  occ. eigenvalues --   -0.50216  -0.50025  -0.49529  -0.49333  -0.49002
 Alpha  occ. eigenvalues --   -0.48663  -0.48346  -0.48263  -0.47959  -0.47731
 Alpha  occ. eigenvalues --   -0.47600  -0.47362  -0.47099  -0.47002  -0.46820
 Alpha  occ. eigenvalues --   -0.46468  -0.46073  -0.46005  -0.45716  -0.45537
 Alpha  occ. eigenvalues --   -0.45283  -0.45237  -0.44984  -0.44547  -0.44489
 Alpha  occ. eigenvalues --   -0.44247  -0.44174  -0.44089  -0.43832  -0.43518
 Alpha  occ. eigenvalues --   -0.43156  -0.43012  -0.42860  -0.42610  -0.42501
 Alpha  occ. eigenvalues --   -0.42419  -0.41960  -0.41746  -0.41606  -0.41492
 Alpha  occ. eigenvalues --   -0.41129  -0.40976  -0.40795  -0.40712  -0.40482
 Alpha  occ. eigenvalues --   -0.40383  -0.40162  -0.39722  -0.39527  -0.39492
 Alpha  occ. eigenvalues --   -0.39345  -0.39244  -0.39172  -0.39147  -0.38850
 Alpha  occ. eigenvalues --   -0.38586  -0.38392  -0.38139  -0.37981  -0.37890
 Alpha  occ. eigenvalues --   -0.37716  -0.37474  -0.37406  -0.37122  -0.37027
 Alpha  occ. eigenvalues --   -0.36887  -0.36796  -0.36450  -0.36261  -0.35942
 Alpha  occ. eigenvalues --   -0.35894  -0.35688  -0.35091  -0.34931  -0.34804
 Alpha  occ. eigenvalues --   -0.34267  -0.34065  -0.33923  -0.33775  -0.33551
 Alpha  occ. eigenvalues --   -0.33032  -0.32851  -0.32760  -0.32700  -0.32460
 Alpha  occ. eigenvalues --   -0.31867  -0.31544  -0.30756  -0.30451  -0.30012
 Alpha  occ. eigenvalues --   -0.29900  -0.29522  -0.29357  -0.28464  -0.27326
 Alpha  occ. eigenvalues --   -0.27228  -0.26538  -0.26045  -0.24100  -0.21640
 Alpha  occ. eigenvalues --   -0.19457
 Alpha virt. eigenvalues --   -0.07079  -0.03481  -0.00370   0.02099   0.03370
 Alpha virt. eigenvalues --    0.04052   0.04419   0.04859   0.05184   0.05406
 Alpha virt. eigenvalues --    0.06798   0.08028   0.08176   0.08912   0.09351

 Mulliken charges:
               1
     1  Mg   0.812462
     2  C    0.023701
     3  C   -0.191342
     4  C   -0.160787
     5  C   -0.202320
     6  N   -0.628356
     7  C    0.358857
     8  C   -0.184790
     9  C   -0.128800
    10  C    0.303082
    11  C   -0.308244
    12  C   -0.153867
    13  C   -0.268393
    14  C    0.596449
    15  O   -0.472662
    16  O   -0.473178
    17  N   -0.699676
    18  C    0.277843
    19  C    0.084351
    20  C    0.028824
    21  C    0.304032
    22  C   -0.421293
    23  C   -0.095616
    24  C   -0.230100
    25  N   -0.647352
    26  C    0.232052
    27  C    0.038852
    28  C    0.034598
    29  C    0.318350
    30  C   -0.369405
    31  C   -0.237799
    32  C   -0.303758
    33  N   -0.712599
    34  C    0.290506
    35  C    0.009676
    36  C    0.042928
    37  C    0.310577
    38  C   -0.366620
    39  C    0.333784
    40  O   -0.494512
    41  C   -0.293115
    42  C    0.644512
    43  O   -0.497799
    44  O   -0.443315
    45  C   -0.103323
    46  C    0.009407
    47  C   -0.112626
    48  C    0.090722
    49  C   -0.377640
    50  C   -0.227384
    51  C   -0.188207
    52  C   -0.159210
    53  C   -0.058089
    54  C   -0.308797
    55  C   -0.168306
    56  C   -0.170989
    57  C   -0.167026
    58  C   -0.043051
    59  C   -0.298601
    60  C   -0.165370
    61  C   -0.193987
    62  C   -0.145542
    63  C   -0.046423
    64  C   -0.305771
    65  C   -0.302737
    66  H    0.084514
    67  H    0.072068
    68  H    0.090963
    69  H    0.097834
    70  H    0.092458
    71  H    0.103982
    72  H    0.124956
    73  H    0.107660
    74  H    0.111310
    75  H    0.125558
    76  H    0.142390
    77  H    0.136566
    78  H    0.111269
    79  H    0.106632
    80  H    0.112812
    81  H    0.092386
    82  H    0.081477
    83  H    0.085410
    84  H    0.126453
    85  H    0.125105
    86  H    0.090220
    87  H    0.114261
    88  H    0.101111
    89  H    0.073931
    90  H    0.110036
    91  H    0.118329
    92  H    0.108110
    93  H    0.151502
    94  H    0.138808
    95  H    0.144245
    96  H    0.143393
    97  H    0.157114
    98  H    0.131558
    99  H    0.143447
   100  H    0.142578
   101  H    0.076995
   102  H    0.101461
   103  H    0.115618
   104  H    0.119801
   105  H    0.108901
   106  H    0.092641
   107  H    0.120685
   108  H    0.088481
   109  H    0.093764
   110  H    0.096007
   111  H    0.050629
   112  H    0.092361
   113  H    0.108373
   114  H    0.104318
   115  H    0.098769
   116  H    0.066197
   117  H    0.080999
   118  H    0.091618
   119  H    0.092092
   120  H    0.072330
   121  H    0.074559
   122  H    0.104388
   123  H    0.087542
   124  H    0.092241
   125  H    0.097560
   126  H    0.089910
   127  H    0.091236
   128  H    0.082996
   129  H    0.047189
   130  H    0.065013
   131  H    0.073816
   132  H    0.079996
   133  H    0.100920
   134  H    0.115989
   135  H    0.108400
   136  H    0.091020
   137  H    0.107949
 Sum of Mulliken charges =  -0.00000

 Dipole moment (field-independent basis, Debye):
    X=              2.5662    Y=              2.5941    Z=              0.9400  Tot=              3.7681
 Quadrupole moment (field-independent basis, Debye-Ang):
   XX=           -341.7471   YY=           -398.6792   ZZ=           -395.0475
   XY=            -17.5497   XZ=             10.4922   YZ=             -4.0178

 Normal termination of Gaussian 16 at Thu Sep 12 20:02:31 2019.
