 Gaussian 16, Revision A.03,
 Gaussian 16:  ES64L-G16RevA.03 25-Dec-2016

 ----------------------------------------------------------------------
 # td=(NStates=1) iop(3/107=0140000000,3/108=0140000000) CAM-B3LYP/6-31
 G(d,p)
 ----------------------------------------------------------------------

 --
 TD
 --
 Symbolic Z-matrix:
 Charge =  0 Multiplicity = 1

                         Standard orientation:
 ---------------------------------------------------------------------
 Center     Atomic      Atomic             Coordinates (Angstroms)
 Number     Number       Type             X           Y           Z
 ---------------------------------------------------------------------
      1         12           0       -7.189624    0.659177    0.110923
      2          6           0       -4.885903   -1.986388    0.433118
      3          6           0       -4.762473    2.782410    1.221466
      4          6           0       -9.401337    3.092578   -0.391861
      5          6           0       -9.535471   -1.703319   -0.871474
      6          7           0       -5.165698    0.403361    0.814200
      7          6           0       -4.439867   -0.755150    0.867655
      8          6           0       -2.930677   -0.506940    1.279610
      9          6           0       -3.071733    0.954141    1.798420
     10          6           0       -4.399529    1.362460    1.228921
     11          6           0       -2.955593    1.007864    3.341721
     12          6           0       -1.988291   -0.593946    0.164812
     13          6           0       -0.492207   -0.529700    0.501992
     14          6           0        0.454017   -0.616467   -0.646139
     15          8           0        0.142504   -0.973321   -1.771772
     16          8           0        1.729558   -0.372644   -0.231020
     17          7           0       -7.013419    2.647330    0.350209
     18          6           0       -5.995927    3.372964    0.678997
     19          6           0       -6.330917    4.804820    0.780079
     20          6           0       -7.674316    4.912955    0.469490
     21          6           0       -8.073336    3.526611    0.032086
     22          6           0       -5.387949    5.899874    1.222389
     23          6           0       -8.448275    6.097661    0.238598
     24          6           0       -8.224209    7.360260    0.755248
     25          7           0       -9.145211    0.696640   -0.495829
     26          6           0       -9.899227    1.876670   -0.724701
     27          6           0      -11.185925    1.511008   -1.188246
     28          6           0      -11.097330    0.127477   -1.365081
     29          6           0       -9.819343   -0.329647   -1.032715
     30          6           0      -12.207773    2.558789   -1.389025
     31          6           0      -12.257323   -0.770303   -1.688635
     32          6           0      -12.197851   -1.007010   -3.315438
     33          7           0       -7.207363   -1.384390   -0.150856
     34          6           0       -8.253366   -2.173652   -0.540488
     35          6           0       -7.893844   -3.559658   -0.527491
     36          6           0       -6.531953   -3.552358   -0.124883
     37          6           0       -6.221513   -2.183603    0.051005
     38          6           0       -8.801916   -4.742688   -1.021273
     39          6           0       -5.322416   -4.336086    0.188342
     40          8           0       -5.135864   -5.555577    0.226512
     41          6           0       -4.220287   -3.349462    0.552061
     42          6           0       -3.684764   -3.818253    1.899866
     43          8           0       -3.870497   -3.273819    2.918383
     44          8           0       -2.772360   -4.853578    1.785185
     45          6           0       -2.197624   -5.402679    3.025274
     46          6           0        2.793943   -0.535461   -1.221363
     47          6           0        4.051600   -0.375279   -0.602958
     48          6           0        5.109527    0.374203   -1.030298
     49          6           0        5.102568    1.237152   -2.268833
     50          6           0        6.361963    0.417312   -0.196276
     51          6           0        7.567477   -0.273551   -0.889242
     52          6           0        8.938005   -0.183978   -0.055877
     53          6           0       10.165367   -0.535962   -0.824346
     54          6           0       10.084209   -2.012184   -1.487340
     55          6           0       11.497828   -0.324065    0.062003
     56          6           0       12.764538   -0.512410   -0.669941
     57          6           0       14.031007   -0.147331    0.147534
     58          6           0       15.302665   -0.106356   -0.522117
     59          6           0       15.660259   -1.589913   -1.056809
     60          6           0       16.433260    0.430357    0.449122
     61          6           0       17.790764    0.422172   -0.148688
     62          6           0       18.824338    1.215511    0.764100
     63          6           0       20.252743    1.405686    0.238211
     64          6           0       20.391685    2.100823   -0.993006
     65          6           0       21.206506    2.029126    1.349614
     66          1           0       -4.018577    3.301805    1.464411
     67          1           0      -10.067018    4.017319   -0.319064
     68          1           0      -10.268776   -2.469335   -0.955693
     69          1           0       -2.687394   -1.292226    2.046624
     70          1           0       -2.255751    1.399235    1.227560
     71          1           0       -1.725451    0.753372    3.466188
     72          1           0       -3.167753    1.991087    3.712912
     73          1           0       -3.776682    0.272391    3.830727
     74          1           0       -2.171348   -1.455045   -0.456930
     75          1           0       -2.165657    0.270079   -0.520007
     76          1           0       -0.226860    0.330483    1.119086
     77          1           0       -0.266324   -1.220771    1.229880
     78          1           0       -5.528798    6.794038    0.451918
     79          1           0       -5.825438    6.264363    2.355612
     80          1           0       -4.401565    5.546211    1.417883
     81          1           0       -9.336644    5.839156   -0.251559
     82          1           0       -9.130772    8.234891    0.600692
     83          1           0       -7.222379    7.478856    1.292777
     84          1           0      -11.880507    3.256996   -2.079790
     85          1           0      -13.066877    2.109693   -1.788881
     86          1           0      -12.556896    3.087430   -0.314445
     87          1           0      -12.136024   -1.649735   -1.219759
     88          1           0      -13.290630   -0.298779   -1.602891
     89          1           0      -12.939447   -1.692129   -3.797960
     90          1           0      -12.504585    0.145479   -3.695922
     91          1           0      -11.180693   -1.188114   -3.643839
     92          1           0       -9.196741   -4.536530   -2.034653
     93          1           0       -7.952159   -5.538939   -1.197094
     94          1           0       -9.342339   -5.008016   -0.172973
     95          1           0       -3.393838   -3.573535   -0.124270
     96          1           0       -1.674777   -4.542610    3.506405
     97          1           0       -3.040572   -5.718326    3.702393
     98          1           0       -1.564992   -6.239157    2.695271
     99          1           0        2.713980   -1.418513   -1.683795
    100          1           0        2.541728    0.307385   -1.933739
    101          1           0        4.256894   -0.875708    0.313441
    102          1           0        4.112663    1.427344   -2.633318
    103          1           0        5.534948    2.303096   -2.141605
    104          1           0        5.664680    0.762842   -3.203247
    105          1           0        6.789321    1.413898   -0.199719
    106          1           0        6.065909   -0.164176    0.788585
    107          1           0        7.364744   -1.277996   -1.155316
    108          1           0        7.651346    0.194312   -1.791086
    109          1           0        8.941685    0.874557    0.431175
    110          1           0        8.533096   -0.814148    0.727510
    111          1           0       10.177283    0.044443   -1.643641
    112          1           0        9.223975   -2.074397   -2.400503
    113          1           0       11.020964   -2.442252   -2.050224
    114          1           0       10.034536   -2.842629   -0.847307
    115          1           0       11.176511    0.570582    0.626477
    116          1           0       11.666158   -1.140601    0.756472
    117          1           0       12.663588   -1.463504   -1.178268
    118          1           0       12.765120    0.070882   -1.576987
    119          1           0       13.773448    0.870943    0.548221
    120          1           0       13.809503   -0.843449    1.105972
    121          1           0       15.225109    0.423339   -1.413954
    122          1           0       15.692525   -2.269549   -0.330478
    123          1           0       15.196914   -1.985106   -1.817806
    124          1           0       16.566327   -1.482057   -1.464939
    125          1           0       16.139519    1.535592    0.540457
    126          1           0       16.350080   -0.005564    1.419414
    127          1           0       18.306216   -0.522072   -0.466372
    128          1           0       17.798775    0.925529   -1.209977
    129          1           0       18.473299    2.299530    0.868794
    130          1           0       18.719329    0.653505    1.778251
    131          1           0       20.505001    0.505614    0.122253
    132          1           0       20.244852    3.031784   -0.851240
    133          1           0       21.441085    2.004189   -1.122579
    134          1           0       19.951325    1.710469   -1.848539
    135          1           0       20.914125    1.540829    2.353918
    136          1           0       22.146490    1.868134    1.096173
    137          1           0       21.098975    3.191570    1.486330
 ---------------------------------------------------------------------

 SCF Done:  E(RCAM-B3LYP) =  -2933.49196802     A.U. after   15 cycles

 Excitation energies and oscillator strengths:

 Excited State   1:      Singlet-A      2.0549 eV  603.36 nm  f=0.2161  <S**2>=0.000
     240 -> 243        0.23943
     241 -> 242        0.65421
 This state for optimization and/or second-order correction.
 Total Energy, E(TD-HF/TD-DFT) =  -2933.41645237
 Copying the excited state density for this state as the 1-particle RhoCI density.

 The electronic state is 1-A.
 Alpha  occ. eigenvalues --  -46.80343 -19.21563 -19.20342 -19.16601 -19.16568
 Alpha  occ. eigenvalues --  -19.15267 -14.37769 -14.35694 -14.35027 -14.34533
 Alpha  occ. eigenvalues --  -10.34491 -10.33999 -10.29968 -10.27211 -10.26506
 Alpha  occ. eigenvalues --  -10.26235 -10.26183 -10.26076 -10.25683 -10.24451
 Alpha  occ. eigenvalues --  -10.24306 -10.24183 -10.24126 -10.24031 -10.23891
 Alpha  occ. eigenvalues --  -10.23801 -10.23751 -10.23749 -10.23495 -10.23347
 Alpha  occ. eigenvalues --  -10.23089 -10.22947 -10.22889 -10.22796 -10.22730
 Alpha  occ. eigenvalues --  -10.22708 -10.22618 -10.22601 -10.22411 -10.22366
 Alpha  occ. eigenvalues --  -10.22350 -10.22329 -10.22287 -10.22165 -10.21928
 Alpha  occ. eigenvalues --  -10.21852 -10.21757 -10.21594 -10.21568 -10.21395
 Alpha  occ. eigenvalues --  -10.21269 -10.21185 -10.21180 -10.21121 -10.21105
 Alpha  occ. eigenvalues --  -10.21071 -10.20969 -10.20580 -10.20572 -10.20420
 Alpha  occ. eigenvalues --  -10.19964 -10.19644 -10.19143 -10.16958 -10.16407
 Alpha  occ. eigenvalues --   -3.08924  -1.83873  -1.83378  -1.83339  -1.12613
 Alpha  occ. eigenvalues --   -1.12052  -1.04663  -1.03929  -1.03857  -1.01159
 Alpha  occ. eigenvalues --   -1.00230  -0.99058  -0.97789  -0.87809  -0.86584
 Alpha  occ. eigenvalues --   -0.85954  -0.85765  -0.85094  -0.84402  -0.83792
 Alpha  occ. eigenvalues --   -0.83697  -0.82813  -0.82303  -0.81825  -0.81395
 Alpha  occ. eigenvalues --   -0.80290  -0.79206  -0.78598  -0.78416  -0.77250
 Alpha  occ. eigenvalues --   -0.77054  -0.75904  -0.75493  -0.75100  -0.73679
 Alpha  occ. eigenvalues --   -0.72714  -0.72315  -0.72012  -0.71832  -0.71587
 Alpha  occ. eigenvalues --   -0.70972  -0.70602  -0.69640  -0.68961  -0.68130
 Alpha  occ. eigenvalues --   -0.67006  -0.66329  -0.65063  -0.64707  -0.63788
 Alpha  occ. eigenvalues --   -0.63056  -0.62730  -0.61202  -0.60862  -0.60687
 Alpha  occ. eigenvalues --   -0.60378  -0.60070  -0.59661  -0.59524  -0.59101
 Alpha  occ. eigenvalues --   -0.57378  -0.56837  -0.56359  -0.55942  -0.55255
 Alpha  occ. eigenvalues --   -0.54880  -0.54374  -0.53761  -0.53489  -0.53177
 Alpha  occ. eigenvalues --   -0.52232  -0.51677  -0.51504  -0.51141  -0.50770
 Alpha  occ. eigenvalues --   -0.50497  -0.50231  -0.49974  -0.49367  -0.49235
 Alpha  occ. eigenvalues --   -0.48724  -0.48678  -0.48614  -0.48307  -0.48132
 Alpha  occ. eigenvalues --   -0.48015  -0.47670  -0.47470  -0.47168  -0.46873
 Alpha  occ. eigenvalues --   -0.46722  -0.46582  -0.45980  -0.45884  -0.45416
 Alpha  occ. eigenvalues --   -0.45304  -0.45227  -0.45128  -0.44916  -0.44634
 Alpha  occ. eigenvalues --   -0.44579  -0.44343  -0.44268  -0.44210  -0.44123
 Alpha  occ. eigenvalues --   -0.43932  -0.43672  -0.43291  -0.43013  -0.42890
 Alpha  occ. eigenvalues --   -0.42820  -0.42542  -0.42228  -0.41932  -0.41811
 Alpha  occ. eigenvalues --   -0.41762  -0.41438  -0.41209  -0.41035  -0.40870
 Alpha  occ. eigenvalues --   -0.40660  -0.40179  -0.40104  -0.39985  -0.39802
 Alpha  occ. eigenvalues --   -0.39557  -0.39370  -0.39277  -0.39038  -0.38996
 Alpha  occ. eigenvalues --   -0.38675  -0.38630  -0.38496  -0.38391  -0.38129
 Alpha  occ. eigenvalues --   -0.37759  -0.37589  -0.37512  -0.37230  -0.37167
 Alpha  occ. eigenvalues --   -0.37151  -0.36841  -0.36827  -0.36664  -0.36487
 Alpha  occ. eigenvalues --   -0.36293  -0.35741  -0.35607  -0.35595  -0.35178
 Alpha  occ. eigenvalues --   -0.34698  -0.34271  -0.34048  -0.33616  -0.33574
 Alpha  occ. eigenvalues --   -0.33044  -0.33029  -0.32731  -0.32604  -0.32517
 Alpha  occ. eigenvalues --   -0.32327  -0.31945  -0.31557  -0.30624  -0.30502
 Alpha  occ. eigenvalues --   -0.30293  -0.30158  -0.29327  -0.28180  -0.27284
 Alpha  occ. eigenvalues --   -0.26764  -0.26416  -0.25086  -0.24659  -0.21565
 Alpha  occ. eigenvalues --   -0.20072
 Alpha virt. eigenvalues --   -0.07106  -0.03968   0.00016   0.01896   0.03308
 Alpha virt. eigenvalues --    0.03966   0.04493   0.04680   0.05000   0.05321
 Alpha virt. eigenvalues --    0.06456   0.08652   0.08991   0.09594   0.10059

 Mulliken charges:
               1
     1  Mg   0.820224
     2  C    0.067590
     3  C   -0.153330
     4  C   -0.209443
     5  C   -0.161977
     6  N   -0.597341
     7  C    0.267483
     8  C   -0.147003
     9  C   -0.150061
    10  C    0.321419
    11  C   -0.278804
    12  C   -0.172406
    13  C   -0.276119
    14  C    0.618690
    15  O   -0.478567
    16  O   -0.494927
    17  N   -0.666745
    18  C    0.326098
    19  C    0.013420
    20  C    0.030499
    21  C    0.235150
    22  C   -0.373610
    23  C   -0.043365
    24  C   -0.260104
    25  N   -0.679660
    26  C    0.300703
    27  C    0.061467
    28  C   -0.019700
    29  C    0.318038
    30  C   -0.366772
    31  C   -0.233479
    32  C   -0.312469
    33  N   -0.715905
    34  C    0.268739
    35  C   -0.043602
    36  C    0.035688
    37  C    0.312716
    38  C   -0.367106
    39  C    0.341384
    40  O   -0.477253
    41  C   -0.310680
    42  C    0.615847
    43  O   -0.442265
    44  O   -0.476951
    45  C   -0.080929
    46  C    0.031398
    47  C   -0.137773
    48  C    0.155780
    49  C   -0.378237
    50  C   -0.228260
    51  C   -0.207865
    52  C   -0.180063
    53  C   -0.035959
    54  C   -0.331387
    55  C   -0.171304
    56  C   -0.191419
    57  C   -0.145237
    58  C   -0.065877
    59  C   -0.326630
    60  C   -0.161005
    61  C   -0.186150
    62  C   -0.168021
    63  C   -0.051234
    64  C   -0.288287
    65  C   -0.319899
    66  H    0.031853
    67  H    0.084490
    68  H    0.096802
    69  H    0.112908
    70  H    0.107857
    71  H    0.081401
    72  H    0.118551
    73  H    0.121250
    74  H    0.124143
    75  H    0.103607
    76  H    0.124370
    77  H    0.145445
    78  H    0.124028
    79  H    0.099885
    80  H    0.123675
    81  H    0.078623
    82  H    0.096773
    83  H    0.100598
    84  H    0.136745
    85  H    0.113431
    86  H    0.094851
    87  H    0.110135
    88  H    0.105510
    89  H    0.102048
    90  H    0.069556
    91  H    0.119878
    92  H    0.134020
    93  H    0.136218
    94  H    0.147534
    95  H    0.167142
    96  H    0.123773
    97  H    0.132086
    98  H    0.134870
    99  H    0.142403
   100  H    0.114616
   101  H    0.086180
   102  H    0.117240
   103  H    0.107228
   104  H    0.111103
   105  H    0.105478
   106  H    0.081704
   107  H    0.104995
   108  H    0.096702
   109  H    0.073893
   110  H    0.105010
   111  H    0.106299
   112  H    0.072890
   113  H    0.084802
   114  H    0.119139
   115  H    0.085093
   116  H    0.095428
   117  H    0.096452
   118  H    0.076412
   119  H    0.081177
   120  H    0.060838
   121  H    0.093820
   122  H    0.107277
   123  H    0.103164
   124  H    0.098865
   125  H    0.091871
   126  H    0.102041
   127  H    0.092672
   128  H    0.071226
   129  H    0.070509
   130  H    0.071091
   131  H    0.093033
   132  H    0.108496
   133  H    0.095570
   134  H    0.101852
   135  H    0.092635
   136  H    0.115761
   137  H    0.083826
 Sum of Mulliken charges =  -0.00000

 Dipole moment (field-independent basis, Debye):
    X=              2.5925    Y=              3.4923    Z=              0.1052  Tot=              4.3506
 Quadrupole moment (field-independent basis, Debye-Ang):
   XX=           -332.6136   YY=           -398.0054   ZZ=           -397.3606
   XY=            -18.5530   XZ=             -1.2186   YZ=             -3.3720

 Normal termination of Gaussian 16 at Wed Sep 18 06:30:27 2019.
