 Gaussian 16, Revision A.03,
 Gaussian 16:  ES64L-G16RevA.03 25-Dec-2016

 ----------------------------------------------------------------------
 # td=(NStates=1) iop(3/107=0140000000,3/108=0140000000) CAM-B3LYP/6-31
 G(d,p)
 ----------------------------------------------------------------------

 --
 TD
 --
 Symbolic Z-matrix:
 Charge =  0 Multiplicity = 1

                         Standard orientation:
 ---------------------------------------------------------------------
 Center     Atomic      Atomic             Coordinates (Angstroms)
 Number     Number       Type             X           Y           Z
 ---------------------------------------------------------------------
      1         12           0       -7.195238    0.539487    0.103601
      2          6           0       -4.863830   -1.997082    0.382453
      3          6           0       -4.773242    2.737124    1.160625
      4          6           0       -9.367704    3.144086   -0.378197
      5          6           0       -9.532258   -1.715495   -0.781101
      6          7           0       -5.116792    0.377301    0.648415
      7          6           0       -4.286815   -0.748809    0.685849
      8          6           0       -2.924524   -0.455376    1.064162
      9          6           0       -2.948477    0.960208    1.712651
     10          6           0       -4.391069    1.393882    1.117351
     11          6           0       -2.961703    1.045734    3.254865
     12          6           0       -1.837591   -0.681507   -0.018617
     13          6           0       -0.451748   -0.479754    0.495128
     14          6           0        0.529142   -0.704227   -0.687241
     15          8           0        0.282507   -1.045210   -1.820990
     16          8           0        1.797472   -0.471724   -0.238589
     17          7           0       -7.109407    2.563809    0.254943
     18          6           0       -6.008564    3.310652    0.768465
     19          6           0       -6.375053    4.690382    0.815949
     20          6           0       -7.662940    4.843667    0.482372
     21          6           0       -8.061950    3.475972    0.131833
     22          6           0       -5.458238    5.834941    1.145282
     23          6           0       -8.578416    6.020959    0.257793
     24          6           0       -8.281370    7.252108    0.738253
     25          7           0       -9.108843    0.735170   -0.497132
     26          6           0       -9.826369    1.906922   -0.608227
     27          6           0      -11.144372    1.598933   -1.100813
     28          6           0      -11.305228    0.221854   -1.185646
     29          6           0       -9.947441   -0.368076   -0.718198
     30          6           0      -12.300190    2.556847   -1.332037
     31          6           0      -12.394713   -0.588671   -1.814940
     32          6           0      -12.176553   -0.975611   -3.267872
     33          7           0       -7.215318   -1.382278   -0.155243
     34          6           0       -8.246059   -2.242523   -0.517402
     35          6           0       -7.884172   -3.590669   -0.524875
     36          6           0       -6.575015   -3.586697   -0.063906
     37          6           0       -6.183945   -2.224912    0.160959
     38          6           0       -8.738950   -4.811144   -0.830326
     39          6           0       -5.410622   -4.422360    0.205308
     40          8           0       -5.218591   -5.592237    0.163820
     41          6           0       -4.149072   -3.336126    0.439698
     42          6           0       -3.678980   -3.672216    1.830927
     43          8           0       -3.975893   -3.078596    2.818005
     44          8           0       -2.806976   -4.649554    1.834328
     45          6           0       -2.296843   -5.088791    3.044916
     46          6           0        2.822330   -0.750486   -1.205661
     47          6           0        4.203859   -0.480352   -0.637827
     48          6           0        5.118627    0.329654   -1.068424
     49          6           0        5.061150    1.328892   -2.207892
     50          6           0        6.522388    0.387970   -0.274239
     51          6           0        7.629657   -0.240464   -0.960697
     52          6           0        8.886165   -0.068877   -0.143815
     53          6           0       10.182362   -0.662373   -0.804784
     54          6           0       10.073093   -2.108473   -1.095167
     55          6           0       11.473681   -0.332522    0.031211
     56          6           0       12.719372   -0.370483   -0.706866
     57          6           0       13.898853   -0.160522    0.161506
     58          6           0       15.338929   -0.101578   -0.395362
     59          6           0       15.711963   -1.588614   -0.725932
     60          6           0       16.373860    0.586691    0.382006
     61          6           0       17.793462    0.617102   -0.126021
     62          6           0       18.846677    1.304180    0.797892
     63          6           0       20.265963    1.358907    0.309668
     64          6           0       20.304386    1.857481   -1.190048
     65          6           0       21.291150    2.016992    1.164446
     66          1           0       -4.090329    3.511092    1.334250
     67          1           0      -10.235530    3.950112   -0.292533
     68          1           0      -10.126055   -2.489137   -1.409718
     69          1           0       -2.689328   -1.070947    1.981207
     70          1           0       -2.119511    1.478105    1.361587
     71          1           0       -1.911394    1.004457    3.424002
     72          1           0       -3.048134    2.183671    3.466231
     73          1           0       -3.809889    0.448656    3.561249
     74          1           0       -1.865632   -1.637644   -0.469172
     75          1           0       -1.977749    0.038029   -0.863513
     76          1           0        0.005674    0.526756    0.863513
     77          1           0       -0.302245   -1.203735    1.232750
     78          1           0       -5.869172    6.837617    0.580885
     79          1           0       -5.303043    6.271277    2.325874
     80          1           0       -4.449530    5.370245    0.741841
     81          1           0       -9.598262    5.770098   -0.412990
     82          1           0       -9.049921    8.014567    0.736199
     83          1           0       -7.387684    7.618905    1.459184
     84          1           0      -11.993281    3.414690   -2.048948
     85          1           0      -13.187957    1.979206   -1.784989
     86          1           0      -12.437080    2.996730   -0.471744
     87          1           0      -12.405820   -1.561486   -1.112166
     88          1           0      -13.408228   -0.127835   -1.752644
     89          1           0      -13.228691   -1.397573   -3.644985
     90          1           0      -12.184848   -0.050484   -4.006267
     91          1           0      -11.219094   -1.713188   -3.404019
     92          1           0       -9.032935   -4.503634   -1.863729
     93          1           0       -8.200806   -5.706521   -0.737403
     94          1           0       -9.683703   -4.917652   -0.223517
     95          1           0       -3.320926   -3.448364   -0.347353
     96          1           0       -1.365713   -4.372532    3.382673
     97          1           0       -3.159266   -4.877564    3.859568
     98          1           0       -1.851356   -6.115482    2.918339
     99          1           0        2.729460   -1.612654   -1.640542
    100          1           0        2.796942   -0.016863   -2.091891
    101          1           0        4.510892   -1.036278    0.421875
    102          1           0        3.950076    1.367141   -2.720070
    103          1           0        5.327167    2.275086   -1.931594
    104          1           0        5.798527    0.834461   -2.945116
    105          1           0        6.623774    1.577107   -0.127161
    106          1           0        6.213810   -0.154627    0.732701
    107          1           0        7.372433   -1.166090   -1.061452
    108          1           0        7.815686    0.322902   -1.902697
    109          1           0        8.960529    0.989877    0.224228
    110          1           0        8.668245   -0.627503    0.884184
    111          1           0       10.421677    0.046832   -1.652505
    112          1           0        9.238851   -2.277609   -1.808579
    113          1           0       10.930679   -2.512399   -1.481030
    114          1           0        9.904011   -2.584726   -0.155681
    115          1           0       11.407741    0.467077    0.692593
    116          1           0       11.555597   -1.198193    0.758890
    117          1           0       12.935748   -1.427388   -1.034552
    118          1           0       12.764736    0.213713   -1.596393
    119          1           0       13.827187    1.002998    0.747726
    120          1           0       14.002176   -0.790104    1.072435
    121          1           0       15.146483    0.313323   -1.300229
    122          1           0       15.778662   -2.073909    0.241018
    123          1           0       14.947148   -2.148800   -1.465683
    124          1           0       16.664620   -2.089065   -1.195485
    125          1           0       15.820762    1.640759    0.572194
    126          1           0       16.496319    0.060847    1.245003
    127          1           0       18.133508   -0.286356   -0.565967
    128          1           0       17.719992    1.207765   -1.174073
    129          1           0       18.453173    2.433118    0.997372
    130          1           0       18.766524    0.668456    1.823063
    131          1           0       20.485818    0.411507    0.068074
    132          1           0       19.947512    2.895348   -1.186486
    133          1           0       21.384041    1.923664   -1.465673
    134          1           0       19.727527    1.228521   -1.829700
    135          1           0       21.183512    1.692479    2.240862
    136          1           0       22.349459    1.898379    0.737488
    137          1           0       21.175358    3.113380    1.219885
 ---------------------------------------------------------------------

 SCF Done:  E(RCAM-B3LYP) =  -2933.50306778     A.U. after   16 cycles

 Excitation energies and oscillator strengths:

 Excited State   1:      Singlet-A      1.9713 eV  628.95 nm  f=0.2673  <S**2>=0.000
     240 -> 243       -0.23169
     241 -> 242        0.66794
 This state for optimization and/or second-order correction.
 Total Energy, E(TD-HF/TD-DFT) =  -2933.43062411
 Copying the excited state density for this state as the 1-particle RhoCI density.

 The electronic state is 1-A.
 Alpha  occ. eigenvalues --  -46.78938 -19.22215 -19.21870 -19.17456 -19.16643
 Alpha  occ. eigenvalues --  -19.15769 -14.38212 -14.35406 -14.34847 -14.34845
 Alpha  occ. eigenvalues --  -10.34828 -10.33548 -10.30651 -10.28504 -10.26682
 Alpha  occ. eigenvalues --  -10.26378 -10.25899 -10.25637 -10.25442 -10.25279
 Alpha  occ. eigenvalues --  -10.25006 -10.24765 -10.24371 -10.24084 -10.23831
 Alpha  occ. eigenvalues --  -10.23808 -10.23790 -10.23745 -10.23322 -10.23284
 Alpha  occ. eigenvalues --  -10.23262 -10.23258 -10.23166 -10.23057 -10.22957
 Alpha  occ. eigenvalues --  -10.22908 -10.22856 -10.22764 -10.22548 -10.22476
 Alpha  occ. eigenvalues --  -10.22409 -10.22326 -10.22245 -10.22235 -10.22230
 Alpha  occ. eigenvalues --  -10.22122 -10.22110 -10.22045 -10.21987 -10.21956
 Alpha  occ. eigenvalues --  -10.21669 -10.21653 -10.21585 -10.21534 -10.21525
 Alpha  occ. eigenvalues --  -10.21019 -10.21002 -10.20983 -10.20723 -10.20717
 Alpha  occ. eigenvalues --  -10.20313 -10.20006 -10.19979 -10.19736 -10.19642
 Alpha  occ. eigenvalues --   -3.07807  -1.82723  -1.82277  -1.82240  -1.15331
 Alpha  occ. eigenvalues --   -1.13222  -1.07927  -1.05312  -1.04861  -0.99504
 Alpha  occ. eigenvalues --   -0.98620  -0.98156  -0.96054  -0.87133  -0.86982
 Alpha  occ. eigenvalues --   -0.86265  -0.85807  -0.84889  -0.84062  -0.83837
 Alpha  occ. eigenvalues --   -0.83238  -0.82673  -0.82556  -0.82282  -0.81902
 Alpha  occ. eigenvalues --   -0.81241  -0.79450  -0.79000  -0.78655  -0.77366
 Alpha  occ. eigenvalues --   -0.77059  -0.76356  -0.76261  -0.75786  -0.73954
 Alpha  occ. eigenvalues --   -0.72444  -0.71470  -0.71383  -0.70991  -0.70766
 Alpha  occ. eigenvalues --   -0.70532  -0.70245  -0.69816  -0.68946  -0.68001
 Alpha  occ. eigenvalues --   -0.66749  -0.66495  -0.65116  -0.63999  -0.63351
 Alpha  occ. eigenvalues --   -0.62413  -0.61793  -0.61329  -0.60927  -0.60402
 Alpha  occ. eigenvalues --   -0.59969  -0.59780  -0.58930  -0.58719  -0.58156
 Alpha  occ. eigenvalues --   -0.57251  -0.56634  -0.55386  -0.54951  -0.54585
 Alpha  occ. eigenvalues --   -0.54171  -0.53845  -0.53573  -0.53118  -0.52908
 Alpha  occ. eigenvalues --   -0.52250  -0.52160  -0.51713  -0.51313  -0.50931
 Alpha  occ. eigenvalues --   -0.50721  -0.50320  -0.50013  -0.49791  -0.49578
 Alpha  occ. eigenvalues --   -0.49456  -0.49139  -0.48858  -0.48551  -0.48052
 Alpha  occ. eigenvalues --   -0.47828  -0.47564  -0.47354  -0.47177  -0.46830
 Alpha  occ. eigenvalues --   -0.46636  -0.46491  -0.46257  -0.46173  -0.45816
 Alpha  occ. eigenvalues --   -0.45526  -0.45476  -0.45276  -0.45209  -0.44924
 Alpha  occ. eigenvalues --   -0.44653  -0.44334  -0.43934  -0.43851  -0.43799
 Alpha  occ. eigenvalues --   -0.43622  -0.43418  -0.43149  -0.42924  -0.42675
 Alpha  occ. eigenvalues --   -0.42313  -0.42279  -0.42028  -0.41795  -0.41764
 Alpha  occ. eigenvalues --   -0.41630  -0.41522  -0.41395  -0.40860  -0.40722
 Alpha  occ. eigenvalues --   -0.40364  -0.40116  -0.40090  -0.39857  -0.39765
 Alpha  occ. eigenvalues --   -0.39750  -0.39558  -0.39467  -0.39197  -0.39085
 Alpha  occ. eigenvalues --   -0.38824  -0.38608  -0.38525  -0.38303  -0.38196
 Alpha  occ. eigenvalues --   -0.38069  -0.37720  -0.37574  -0.37280  -0.37114
 Alpha  occ. eigenvalues --   -0.36888  -0.36667  -0.36409  -0.36205  -0.35839
 Alpha  occ. eigenvalues --   -0.35775  -0.35026  -0.34808  -0.34785  -0.34686
 Alpha  occ. eigenvalues --   -0.34514  -0.34248  -0.34034  -0.33758  -0.33576
 Alpha  occ. eigenvalues --   -0.33172  -0.32888  -0.32689  -0.32375  -0.32254
 Alpha  occ. eigenvalues --   -0.31872  -0.31779  -0.31335  -0.31133  -0.30855
 Alpha  occ. eigenvalues --   -0.30544  -0.30127  -0.29532  -0.28780  -0.28105
 Alpha  occ. eigenvalues --   -0.27156  -0.26495  -0.25824  -0.25143  -0.21608
 Alpha  occ. eigenvalues --   -0.19665
 Alpha virt. eigenvalues --   -0.07150  -0.03560  -0.00234   0.02146   0.03956
 Alpha virt. eigenvalues --    0.04662   0.05186   0.05393   0.05547   0.05675
 Alpha virt. eigenvalues --    0.06395   0.07693   0.08844   0.09353   0.09776

 Mulliken charges:
               1
     1  Mg   0.816884
     2  C    0.053621
     3  C   -0.181838
     4  C   -0.190301
     5  C   -0.192727
     6  N   -0.603674
     7  C    0.328382
     8  C   -0.176634
     9  C   -0.145359
    10  C    0.317116
    11  C   -0.294251
    12  C   -0.169503
    13  C   -0.262377
    14  C    0.602093
    15  O   -0.467159
    16  O   -0.474092
    17  N   -0.685759
    18  C    0.288884
    19  C    0.021394
    20  C    0.067876
    21  C    0.280934
    22  C   -0.360402
    23  C   -0.062362
    24  C   -0.258115
    25  N   -0.700502
    26  C    0.350051
    27  C    0.012747
    28  C    0.031566
    29  C    0.275193
    30  C   -0.364991
    31  C   -0.238567
    32  C   -0.279610
    33  N   -0.730719
    34  C    0.269118
    35  C    0.030819
    36  C    0.013514
    37  C    0.288179
    38  C   -0.357961
    39  C    0.339407
    40  O   -0.432061
    41  C   -0.354501
    42  C    0.620297
    43  O   -0.473780
    44  O   -0.402001
    45  C   -0.089938
    46  C    0.027976
    47  C   -0.149116
    48  C    0.124057
    49  C   -0.348621
    50  C   -0.225225
    51  C   -0.121538
    52  C   -0.179986
    53  C   -0.052205
    54  C   -0.311959
    55  C   -0.175219
    56  C   -0.163428
    57  C   -0.160542
    58  C   -0.054024
    59  C   -0.325836
    60  C   -0.142004
    61  C   -0.188849
    62  C   -0.143074
    63  C   -0.039744
    64  C   -0.321145
    65  C   -0.313110
    66  H    0.065852
    67  H    0.074241
    68  H    0.081517
    69  H    0.120213
    70  H    0.097441
    71  H    0.120355
    72  H    0.101380
    73  H    0.142900
    74  H    0.130385
    75  H    0.116502
    76  H    0.129132
    77  H    0.146164
    78  H    0.108278
    79  H    0.092804
    80  H    0.097564
    81  H    0.098115
    82  H    0.102764
    83  H    0.105610
    84  H    0.101728
    85  H    0.104291
    86  H    0.140672
    87  H    0.093276
    88  H    0.100776
    89  H    0.089266
    90  H    0.101868
    91  H    0.100070
    92  H    0.121712
    93  H    0.147035
    94  H    0.126899
    95  H    0.144224
    96  H    0.084839
    97  H    0.131018
    98  H    0.129857
    99  H    0.138089
   100  H    0.092562
   101  H    0.056819
   102  H    0.092159
   103  H    0.132912
   104  H    0.119470
   105  H    0.073164
   106  H    0.083765
   107  H    0.111210
   108  H    0.091748
   109  H    0.088954
   110  H    0.062157
   111  H    0.073318
   112  H    0.102098
   113  H    0.113960
   114  H    0.111028
   115  H    0.097843
   116  H    0.076532
   117  H    0.096556
   118  H    0.098672
   119  H    0.020360
   120  H    0.090699
   121  H    0.093804
   122  H    0.102022
   123  H    0.079407
   124  H    0.085758
   125  H    0.075467
   126  H    0.095088
   127  H    0.106283
   128  H    0.065000
   129  H    0.068180
   130  H    0.062982
   131  H    0.103905
   132  H    0.097707
   133  H    0.089111
   134  H    0.109874
   135  H    0.098567
   136  H    0.096267
   137  H    0.102452
 Sum of Mulliken charges =  -0.00000

 Dipole moment (field-independent basis, Debye):
    X=              2.0637    Y=              3.3789    Z=              0.2139  Tot=              3.9651
 Quadrupole moment (field-independent basis, Debye-Ang):
   XX=           -348.2519   YY=           -395.3347   ZZ=           -401.4054
   XY=            -27.2091   XZ=              4.0994   YZ=              1.8390

 Normal termination of Gaussian 16 at Tue Sep 17 14:55:00 2019.
