 Gaussian 09, Revision D.01,
 Gaussian 09:  ES64L-G09RevD.01 24-Apr-2013

 -------------------------------------
 # td=(NStates=1) CAM-B3LYP/6-31G(d,p)
 -------------------------------------

 --
 TD
 --
 Symbolic Z-matrix:
 Charge =  0 Multiplicity = 1

                         Standard orientation:
 ---------------------------------------------------------------------
 Center     Atomic      Atomic             Coordinates (Angstroms)
 Number     Number       Type             X           Y           Z
 ---------------------------------------------------------------------
      1         12           0       -7.095853    0.562814    0.120409
      2          6           0       -4.816217   -1.968738    0.447708
      3          6           0       -4.788220    2.832603    1.030263
      4          6           0       -9.439552    3.111942   -0.292178
      5          6           0       -9.558655   -1.677576   -0.811524
      6          7           0       -5.069314    0.364468    0.724627
      7          6           0       -4.340594   -0.728203    0.854447
      8          6           0       -2.964297   -0.429210    1.303731
      9          6           0       -2.965150    1.103170    1.732194
     10          6           0       -4.324558    1.526330    1.143243
     11          6           0       -2.845363    1.280059    3.253035
     12          6           0       -1.983650   -0.648726    0.071532
     13          6           0       -0.541186   -0.328462    0.583035
     14          6           0        0.503610   -0.640677   -0.514056
     15          8           0        0.242276   -1.017311   -1.564677
     16          8           0        1.703474   -0.312232   -0.143927
     17          7           0       -7.137667    2.570716    0.234008
     18          6           0       -6.039244    3.343339    0.735550
     19          6           0       -6.440182    4.833474    0.710390
     20          6           0       -7.730025    4.785440    0.319445
     21          6           0       -8.164899    3.468481   -0.004949
     22          6           0       -5.434418    5.856534    1.031059
     23          6           0       -8.511157    6.013782    0.103812
     24          6           0       -8.357041    7.141217    0.699258
     25          7           0       -9.173526    0.720708   -0.512395
     26          6           0       -9.848825    1.826535   -0.575536
     27          6           0      -11.266020    1.492206   -1.101265
     28          6           0      -11.282948    0.164544   -1.214471
     29          6           0       -9.886953   -0.346654   -0.923181
     30          6           0      -12.332789    2.527741   -1.319778
     31          6           0      -12.308257   -0.791943   -1.748465
     32          6           0      -12.282052   -1.144263   -3.151503
     33          7           0       -7.232777   -1.409054   -0.118338
     34          6           0       -8.307032   -2.264905   -0.524717
     35          6           0       -7.926726   -3.609132   -0.506767
     36          6           0       -6.512971   -3.584573   -0.155393
     37          6           0       -6.187968   -2.177742    0.060010
     38          6           0       -8.716995   -4.778767   -0.902520
     39          6           0       -5.324297   -4.364488    0.211187
     40          8           0       -5.090899   -5.588477    0.070099
     41          6           0       -4.138690   -3.360139    0.548842
     42          6           0       -3.476026   -3.686789    1.754389
     43          8           0       -3.748947   -3.134113    2.913612
     44          8           0       -2.623491   -4.682515    1.574274
     45          6           0       -2.040890   -5.215317    2.972209
     46          6           0        2.846268   -0.646743   -1.133781
     47          6           0        4.193949   -0.485411   -0.538408
     48          6           0        5.148739    0.330021   -0.892377
     49          6           0        5.146478    1.138787   -2.252774
     50          6           0        6.482801    0.352440   -0.194967
     51          6           0        7.654819   -0.303319   -0.981317
     52          6           0        8.928175   -0.264167   -0.218139
     53          6           0       10.185947   -0.621433   -0.851776
     54          6           0       10.163660   -1.992384   -1.384221
     55          6           0       11.355590   -0.256996    0.082357
     56          6           0       12.734858   -0.357753   -0.656668
     57          6           0       13.911161   -0.078062    0.322575
     58          6           0       15.274077   -0.108696   -0.339994
     59          6           0       15.572932   -1.572624   -0.815150
     60          6           0       16.319881    0.523438    0.476263
     61          6           0       17.682918    0.596265   -0.229475
     62          6           0       18.810893    1.303608    0.632892
     63          6           0       20.172552    1.296505    0.047227
     64          6           0       20.292670    2.266508   -1.118073
     65          6           0       21.266792    1.689320    1.203559
     66          1           0       -3.996770    3.503601    1.371919
     67          1           0      -10.237431    3.765396   -0.284475
     68          1           0      -10.420565   -2.385304   -1.029116
     69          1           0       -2.736433   -1.080077    2.185884
     70          1           0       -2.173517    1.617635    1.175249
     71          1           0       -1.904241    0.844304    3.652322
     72          1           0       -2.835394    2.306078    3.419997
     73          1           0       -3.495818    0.975747    3.808298
     74          1           0       -2.008864   -1.558030   -0.389145
     75          1           0       -2.217638    0.034830   -0.650635
     76          1           0       -0.347859    0.614631    1.008220
     77          1           0       -0.334985   -1.029324    1.376577
     78          1           0       -5.806938    6.682426    0.357852
     79          1           0       -5.481456    6.212286    2.136870
     80          1           0       -4.302165    5.626741    0.844719
     81          1           0       -9.387926    5.994913   -0.508191
     82          1           0       -9.248705    7.872095    0.643982
     83          1           0       -7.521653    7.435356    1.318214
     84          1           0      -11.969620    3.169029   -1.987908
     85          1           0      -13.311510    2.070263   -1.456491
     86          1           0      -12.481561    2.975993   -0.350140
     87          1           0      -12.498266   -1.811030   -1.320064
     88          1           0      -13.332536   -0.351308   -1.509725
     89          1           0      -13.071140   -1.717187   -3.439256
     90          1           0      -12.364869   -0.286670   -3.699193
     91          1           0      -11.345653   -1.683751   -3.464615
     92          1           0       -9.072722   -4.699828   -1.936061
     93          1           0       -8.054263   -5.638868   -0.778493
     94          1           0       -9.457503   -4.830803   -0.209496
     95          1           0       -3.392398   -3.563159   -0.169560
     96          1           0       -1.475200   -4.314623    3.432894
     97          1           0       -2.782083   -5.303284    3.655032
     98          1           0       -1.422138   -6.088756    2.609184
     99          1           0        2.636387   -1.742331   -1.414018
    100          1           0        2.682892   -0.085179   -2.030371
    101          1           0        4.290544   -1.274574    0.162519
    102          1           0        4.085720    1.396525   -2.311044
    103          1           0        5.615303    2.103498   -2.084185
    104          1           0        5.770624    0.723158   -2.982899
    105          1           0        6.692053    1.374835   -0.013138
    106          1           0        6.223843   -0.382583    0.737950
    107          1           0        7.306398   -1.183816   -1.353612
    108          1           0        7.650721    0.292204   -1.829080
    109          1           0        9.020667    0.792244    0.417255
    110          1           0        8.597864   -0.847532    0.688230
    111          1           0       10.554868   -0.019288   -1.591973
    112          1           0        9.515815   -2.336577   -2.281095
    113          1           0       11.292959   -2.330415   -1.633779
    114          1           0        9.854381   -2.634529   -0.402512
    115          1           0       10.931409    0.830001    0.446169
    116          1           0       11.375096   -1.042601    0.855797
    117          1           0       12.668903   -1.376913   -1.178174
    118          1           0       12.868425    0.376445   -1.498859
    119          1           0       13.715408    0.794973    0.801165
    120          1           0       13.649115   -0.784555    1.189459
    121          1           0       15.189358    0.371599   -1.192991
    122          1           0       15.789099   -2.138234    0.013199
    123          1           0       14.737854   -2.055914   -1.253323
    124          1           0       16.466907   -1.510520   -1.524069
    125          1           0       16.010533    1.455875    0.736311
    126          1           0       16.456074   -0.153968    1.476966
    127          1           0       18.157929   -0.430514   -0.653650
    128          1           0       17.364526    1.273939   -1.128229
    129          1           0       18.496164    2.390595    1.092271
    130          1           0       18.891908    0.795834    1.719591
    131          1           0       20.433241    0.315383   -0.310815
    132          1           0       19.873706    3.225145   -0.773538
    133          1           0       21.264729    2.314922   -1.329326
    134          1           0       19.677327    2.007094   -2.005584
    135          1           0       21.368489    0.939727    2.097917
    136          1           0       22.292080    1.542282    0.634082
    137          1           0       21.214883    2.827599    1.496736
 ---------------------------------------------------------------------

 SCF Done:  E(RCAM-B3LYP) =  -2932.69664081     A.U. after   18 cycles

 Excitation energies and oscillator strengths:

 Excited State   1:      Singlet-A      2.0399 eV  607.79 nm  f=0.3031  <S**2>=0.000
     240 -> 242       -0.15688
     240 -> 243        0.21477
     241 -> 242        0.64540
 This state for optimization and/or second-order correction.
 Total Energy, E(TD-HF/TD-KS) =  -2932.62167458
 Copying the excited state density for this state as the 1-particle RhoCI density.

 The electronic state is 1-A.
 Alpha  occ. eigenvalues --  -46.84166 -19.26778 -19.24825 -19.19236 -19.18706
 Alpha  occ. eigenvalues --  -19.18523 -14.41363 -14.39917 -14.39203 -14.38646
 Alpha  occ. eigenvalues --  -10.37995 -10.36928 -10.34467 -10.32626 -10.32253
 Alpha  occ. eigenvalues --  -10.31701 -10.31079 -10.29406 -10.29255 -10.28805
 Alpha  occ. eigenvalues --  -10.28393 -10.28167 -10.28156 -10.28124 -10.28119
 Alpha  occ. eigenvalues --  -10.27971 -10.27865 -10.27511 -10.27491 -10.27423
 Alpha  occ. eigenvalues --  -10.27243 -10.27231 -10.27008 -10.26808 -10.26791
 Alpha  occ. eigenvalues --  -10.26762 -10.26653 -10.26542 -10.26470 -10.26353
 Alpha  occ. eigenvalues --  -10.26293 -10.26290 -10.26153 -10.26149 -10.26061
 Alpha  occ. eigenvalues --  -10.26036 -10.26001 -10.25921 -10.25879 -10.25745
 Alpha  occ. eigenvalues --  -10.25689 -10.25682 -10.25061 -10.24970 -10.24963
 Alpha  occ. eigenvalues --  -10.24818 -10.24661 -10.24511 -10.24428 -10.24266
 Alpha  occ. eigenvalues --  -10.24178 -10.23608 -10.23470 -10.23350 -10.22799
 Alpha  occ. eigenvalues --   -3.13183  -1.87894  -1.87406  -1.87374  -1.19158
 Alpha  occ. eigenvalues --   -1.15519  -1.09469  -1.07464  -1.04350  -1.03506
 Alpha  occ. eigenvalues --   -1.03042  -1.02327  -1.01698  -0.92772  -0.91452
 Alpha  occ. eigenvalues --   -0.91081  -0.90719  -0.90199  -0.89394  -0.89125
 Alpha  occ. eigenvalues --   -0.88748  -0.88422  -0.87526  -0.87265  -0.86382
 Alpha  occ. eigenvalues --   -0.85609  -0.84392  -0.84239  -0.83676  -0.83433
 Alpha  occ. eigenvalues --   -0.81699  -0.81296  -0.80317  -0.79760  -0.78779
 Alpha  occ. eigenvalues --   -0.78360  -0.77950  -0.76796  -0.76653  -0.75825
 Alpha  occ. eigenvalues --   -0.75749  -0.74997  -0.74201  -0.73656  -0.72450
 Alpha  occ. eigenvalues --   -0.72154  -0.70891  -0.69603  -0.69400  -0.67817
 Alpha  occ. eigenvalues --   -0.67442  -0.66225  -0.65826  -0.65232  -0.64258
 Alpha  occ. eigenvalues --   -0.64215  -0.63943  -0.63016  -0.61979  -0.61924
 Alpha  occ. eigenvalues --   -0.61540  -0.61174  -0.60443  -0.60115  -0.58910
 Alpha  occ. eigenvalues --   -0.58678  -0.58112  -0.57196  -0.56523  -0.56410
 Alpha  occ. eigenvalues --   -0.56039  -0.55818  -0.55165  -0.54804  -0.54635
 Alpha  occ. eigenvalues --   -0.54247  -0.53944  -0.53471  -0.53080  -0.52948
 Alpha  occ. eigenvalues --   -0.52717  -0.52654  -0.52363  -0.52216  -0.51930
 Alpha  occ. eigenvalues --   -0.51267  -0.51238  -0.50929  -0.50790  -0.50720
 Alpha  occ. eigenvalues --   -0.50623  -0.50500  -0.50225  -0.49923  -0.49779
 Alpha  occ. eigenvalues --   -0.49673  -0.49310  -0.48893  -0.48800  -0.48641
 Alpha  occ. eigenvalues --   -0.48340  -0.48288  -0.48150  -0.47667  -0.47606
 Alpha  occ. eigenvalues --   -0.47332  -0.47094  -0.46972  -0.46451  -0.46353
 Alpha  occ. eigenvalues --   -0.46144  -0.45897  -0.45850  -0.45259  -0.45234
 Alpha  occ. eigenvalues --   -0.45033  -0.44882  -0.44461  -0.44246  -0.44006
 Alpha  occ. eigenvalues --   -0.43938  -0.43807  -0.43600  -0.43493  -0.43255
 Alpha  occ. eigenvalues --   -0.43189  -0.42971  -0.42843  -0.42495  -0.42423
 Alpha  occ. eigenvalues --   -0.42339  -0.41983  -0.41708  -0.41524  -0.41442
 Alpha  occ. eigenvalues --   -0.41071  -0.40882  -0.40671  -0.40209  -0.40114
 Alpha  occ. eigenvalues --   -0.40053  -0.39684  -0.39535  -0.39288  -0.39149
 Alpha  occ. eigenvalues --   -0.38902  -0.38651  -0.38456  -0.37990  -0.37604
 Alpha  occ. eigenvalues --   -0.37560  -0.37524  -0.36871  -0.36781  -0.36635
 Alpha  occ. eigenvalues --   -0.36559  -0.36132  -0.35897  -0.35777  -0.35027
 Alpha  occ. eigenvalues --   -0.35016  -0.34855  -0.34213  -0.34052  -0.33073
 Alpha  occ. eigenvalues --   -0.32409  -0.32302  -0.31313  -0.30710  -0.30598
 Alpha  occ. eigenvalues --   -0.29233  -0.28665  -0.28248  -0.27978  -0.22921
 Alpha  occ. eigenvalues --   -0.20725
 Alpha virt. eigenvalues --   -0.06470  -0.02006   0.02143   0.04626   0.04920
 Alpha virt. eigenvalues --    0.05708   0.06345   0.06889   0.07601   0.09117
 Alpha virt. eigenvalues --    0.10514   0.11038   0.11198   0.11329   0.11871

 Mulliken charges:
               1
     1  Mg   0.817297
     2  C    0.050154
     3  C   -0.206555
     4  C   -0.150766
     5  C   -0.169406
     6  N   -0.640158
     7  C    0.356476
     8  C   -0.192140
     9  C   -0.151049
    10  C    0.293839
    11  C   -0.287852
    12  C   -0.167507
    13  C   -0.285204
    14  C    0.580027
    15  O   -0.444894
    16  O   -0.484705
    17  N   -0.717783
    18  C    0.286804
    19  C    0.069166
    20  C   -0.009243
    21  C    0.345746
    22  C   -0.385905
    23  C   -0.059825
    24  C   -0.253472
    25  N   -0.659340
    26  C    0.305542
    27  C   -0.026304
    28  C    0.040067
    29  C    0.264370
    30  C   -0.359700
    31  C   -0.262735
    32  C   -0.289344
    33  N   -0.748791
    34  C    0.252786
    35  C    0.017869
    36  C   -0.030942
    37  C    0.328297
    38  C   -0.366515
    39  C    0.350177
    40  O   -0.486900
    41  C   -0.286623
    42  C    0.637194
    43  O   -0.561650
    44  O   -0.464075
    45  C   -0.096108
    46  C   -0.013068
    47  C   -0.101909
    48  C    0.082666
    49  C   -0.362958
    50  C   -0.224608
    51  C   -0.167575
    52  C   -0.165966
    53  C   -0.037696
    54  C   -0.299014
    55  C   -0.175746
    56  C   -0.198827
    57  C   -0.171681
    58  C   -0.051743
    59  C   -0.315697
    60  C   -0.152677
    61  C   -0.174597
    62  C   -0.144693
    63  C   -0.058979
    64  C   -0.295838
    65  C   -0.314293
    66  H    0.077040
    67  H    0.084182
    68  H    0.094836
    69  H    0.133876
    70  H    0.110712
    71  H    0.105417
    72  H    0.104200
    73  H    0.131178
    74  H    0.129698
    75  H    0.122326
    76  H    0.130765
    77  H    0.129043
    78  H    0.125769
    79  H    0.122755
    80  H    0.119815
    81  H    0.090433
    82  H    0.093693
    83  H    0.101873
    84  H    0.134351
    85  H    0.117368
    86  H    0.125197
    87  H    0.101237
    88  H    0.083543
    89  H    0.109042
    90  H    0.110726
    91  H    0.098200
    92  H    0.127605
    93  H    0.147782
    94  H    0.133610
    95  H    0.165622
    96  H    0.135343
    97  H    0.172546
    98  H    0.143637
    99  H    0.124371
   100  H    0.128284
   101  H    0.096103
   102  H    0.123608
   103  H    0.108863
   104  H    0.141426
   105  H    0.111467
   106  H    0.074081
   107  H    0.109867
   108  H    0.091480
   109  H    0.057929
   110  H    0.093255
   111  H    0.103225
   112  H    0.107676
   113  H    0.079568
   114  H    0.075133
   115  H    0.077387
   116  H    0.091645
   117  H    0.090853
   118  H    0.085472
   119  H    0.098869
   120  H    0.076144
   121  H    0.092170
   122  H    0.110840
   123  H    0.103025
   124  H    0.087681
   125  H    0.103799
   126  H    0.063078
   127  H    0.085394
   128  H    0.078762
   129  H    0.063062
   130  H    0.067823
   131  H    0.092733
   132  H    0.096601
   133  H    0.108722
   134  H    0.099946
   135  H    0.100602
   136  H    0.081258
   137  H    0.098957
 Sum of Mulliken charges =   0.00000

 Dipole moment (field-independent basis, Debye):
    X=              2.7794    Y=              5.7509    Z=              0.4341  Tot=              6.4020
 Quadrupole moment (field-independent basis, Debye-Ang):
   XX=           -336.9296   YY=           -392.4172   ZZ=           -395.0754
   XY=            -30.2882   XZ=             -0.7284   YZ=             -1.9614

 Normal termination of Gaussian 09 at Thu Jul  4 00:05:02 2019.
