 Gaussian 16, Revision A.03,
 Gaussian 16:  ES64L-G16RevA.03 25-Dec-2016

 ----------------------------------------------------------------------
 # td=(NStates=1) iop(3/107=0140000000,3/108=0140000000) CAM-B3LYP/6-31
 G(d,p)
 ----------------------------------------------------------------------

 --
 TD
 --
 Symbolic Z-matrix:
 Charge =  0 Multiplicity = 1

                         Standard orientation:
 ---------------------------------------------------------------------
 Center     Atomic      Atomic             Coordinates (Angstroms)
 Number     Number       Type             X           Y           Z
 ---------------------------------------------------------------------
      1         12           0       -7.143710    0.645014   -0.057291
      2          6           0       -4.871491   -1.975782    0.525845
      3          6           0       -4.776498    2.833126    1.139604
      4          6           0       -9.347782    3.119606   -0.359907
      5          6           0       -9.567748   -1.700839   -0.853421
      6          7           0       -5.051726    0.429591    0.696001
      7          6           0       -4.389903   -0.717495    0.877087
      8          6           0       -2.978576   -0.386696    1.211492
      9          6           0       -2.999346    1.022321    1.678907
     10          6           0       -4.336964    1.518036    1.175405
     11          6           0       -2.852717    1.336134    3.208583
     12          6           0       -1.997491   -0.531819    0.066607
     13          6           0       -0.420753   -0.354080    0.436956
     14          6           0        0.522543   -0.676482   -0.673996
     15          8           0        0.184417   -1.091714   -1.737981
     16          8           0        1.800529   -0.577029   -0.240987
     17          7           0       -7.053313    2.556937    0.273070
     18          6           0       -5.997039    3.270256    0.795980
     19          6           0       -6.254680    4.802447    0.705493
     20          6           0       -7.599278    4.858611    0.294856
     21          6           0       -8.117915    3.463711    0.108677
     22          6           0       -5.380057    5.905953    1.235791
     23          6           0       -8.503819    5.987673    0.099480
     24          6           0       -8.424992    7.236606    0.815562
     25          7           0       -9.030498    0.643311   -0.632592
     26          6           0       -9.787578    1.809232   -0.720552
     27          6           0      -11.113064    1.476300   -1.124984
     28          6           0      -11.236575    0.229617   -1.265270
     29          6           0       -9.837934   -0.331302   -0.894862
     30          6           0      -12.310300    2.453812   -1.303838
     31          6           0      -12.396599   -0.639622   -1.672688
     32          6           0      -12.383747   -1.187449   -3.026141
     33          7           0       -7.196642   -1.355112   -0.067127
     34          6           0       -8.345588   -2.230746   -0.471546
     35          6           0       -7.845052   -3.596158   -0.448249
     36          6           0       -6.503117   -3.519140   -0.106651
     37          6           0       -6.179836   -2.179632    0.099929
     38          6           0       -8.751316   -4.691732   -0.711979
     39          6           0       -5.392520   -4.358118    0.297968
     40          8           0       -5.308167   -5.618628    0.168806
     41          6           0       -4.221404   -3.380679    0.549565
     42          6           0       -3.435126   -3.635537    1.823006
     43          8           0       -3.610871   -3.070166    2.896165
     44          8           0       -2.592656   -4.703531    1.718696
     45          6           0       -1.941837   -5.249933    2.894715
     46          6           0        2.795719   -0.809071   -1.305463
     47          6           0        4.058472   -0.494865   -0.671425
     48          6           0        5.188693    0.139770   -1.058731
     49          6           0        5.198401    1.076354   -2.295277
     50          6           0        6.346977    0.154672   -0.211712
     51          6           0        7.571045   -0.272965   -0.974812
     52          6           0        8.869580   -0.145866   -0.125234
     53          6           0       10.111997   -0.637067   -0.785777
     54          6           0       10.231628   -2.013106   -1.367722
     55          6           0       11.370866   -0.265246    0.027119
     56          6           0       12.744286   -0.380383   -0.645449
     57          6           0       13.861943    0.002218    0.227700
     58          6           0       15.206043   -0.132088   -0.337269
     59          6           0       15.624312   -1.636764   -0.585186
     60          6           0       16.349376    0.422690    0.490475
     61          6           0       17.773276    0.483882   -0.049069
     62          6           0       18.750320    1.425011    0.861591
     63          6           0       20.179392    1.416437    0.124064
     64          6           0       20.148935    2.137460   -1.274676
     65          6           0       21.124885    1.996234    1.181739
     66          1           0       -4.156493    3.651051    1.450955
     67          1           0       -9.883151    4.047985   -0.246491
     68          1           0      -10.692221   -2.353005   -1.041958
     69          1           0       -2.742302   -1.157400    1.764841
     70          1           0       -2.287274    1.805993    1.309927
     71          1           0       -1.968941    0.737007    3.436228
     72          1           0       -2.796928    2.402501    3.475036
     73          1           0       -3.610056    0.691055    3.948589
     74          1           0       -2.172714   -1.462101   -0.478046
     75          1           0       -2.059706    0.319241   -0.657770
     76          1           0       -0.400719    0.752552    0.501316
     77          1           0       -0.248483   -0.940179    1.385561
     78          1           0       -5.849648    6.723860    0.865676
     79          1           0       -5.363033    6.171164    2.120326
     80          1           0       -4.346278    5.714145    0.883788
     81          1           0       -9.067172    5.949190   -0.847069
     82          1           0       -9.086740    8.030693    0.376067
     83          1           0       -7.658439    7.526419    1.616409
     84          1           0      -12.047518    3.300019   -2.084245
     85          1           0      -13.113939    1.954107   -1.586017
     86          1           0      -12.437149    2.912691   -0.487707
     87          1           0      -12.140041   -1.527309   -1.139130
     88          1           0      -13.380470   -0.040095   -1.376183
     89          1           0      -13.297755   -1.900283   -3.247789
     90          1           0      -12.356932   -0.283257   -3.695692
     91          1           0      -11.479172   -1.594179   -3.246172
     92          1           0       -9.458057   -4.481000   -1.615347
     93          1           0       -8.278806   -5.716205   -0.665940
     94          1           0       -9.419870   -4.841243    0.147273
     95          1           0       -3.356593   -3.321677   -0.180250
     96          1           0       -1.398919   -4.546436    3.453281
     97          1           0       -2.648312   -5.774847    3.509283
     98          1           0       -1.316288   -6.060734    2.506032
     99          1           0        2.697508   -1.974512   -1.519653
    100          1           0        2.638805   -0.240410   -2.180451
    101          1           0        4.133226   -1.095057    0.286973
    102          1           0        4.161716    1.370208   -2.608115
    103          1           0        5.797637    1.906199   -2.113543
    104          1           0        5.640115    0.742388   -3.309599
    105          1           0        6.324896    1.274031    0.046630
    106          1           0        6.227635   -0.392136    0.762470
    107          1           0        7.384651   -1.392832   -1.213439
    108          1           0        7.766769    0.120260   -2.085643
    109          1           0        9.133068    0.878507    0.174659
    110          1           0        8.838806   -0.609358    0.972970
    111          1           0       10.017712    0.039453   -1.742635
    112          1           0        9.441113   -2.361978   -2.136521
    113          1           0       11.130843   -2.460936   -1.997906
    114          1           0        9.981261   -2.837048   -0.626184
    115          1           0       11.413621    0.729674    0.516555
    116          1           0       11.372605   -0.834453    0.956431
    117          1           0       12.903749   -1.387361   -0.965784
    118          1           0       12.757805    0.139823   -1.840365
    119          1           0       13.488230    0.981475    0.549175
    120          1           0       13.788146   -0.689018    0.971899
    121          1           0       15.205316    0.195308   -1.358076
    122          1           0       15.543855   -2.477087    0.080337
    123          1           0       14.927187   -1.773017   -1.326963
    124          1           0       16.579212   -1.678216   -1.054896
    125          1           0       16.147010    1.376497    0.832682
    126          1           0       16.182341   -0.008591    1.447304
    127          1           0       18.147891   -0.599106   -0.304867
    128          1           0       17.611618    0.873676   -1.212117
    129          1           0       18.410393    2.341839    0.878944
    130          1           0       18.712971    0.938456    1.824825
    131          1           0       20.371147    0.353649   -0.106347
    132          1           0       19.650781    3.101261   -1.241346
    133          1           0       21.213589    2.383411   -1.644203
    134          1           0       19.508094    1.659151   -2.011365
    135          1           0       21.051831    1.549209    2.143684
    136          1           0       22.260521    2.071918    1.206333
    137          1           0       21.039916    3.235272    1.363917
 ---------------------------------------------------------------------

 SCF Done:  E(RCAM-B3LYP) =  -2933.44607571     A.U. after   16 cycles

 Excitation energies and oscillator strengths:

 Excited State   1:      Singlet-A      2.0266 eV  611.78 nm  f=0.2602  <S**2>=0.000
     240 -> 243       -0.23656
     241 -> 242        0.66309
 This state for optimization and/or second-order correction.
 Total Energy, E(TD-HF/TD-DFT) =  -2933.37159875
 Copying the excited state density for this state as the 1-particle RhoCI density.

 The electronic state is 1-A.
 Alpha  occ. eigenvalues --  -46.78562 -19.21673 -19.21529 -19.16515 -19.16278
 Alpha  occ. eigenvalues --  -19.15317 -14.36962 -14.35618 -14.35308 -14.34763
 Alpha  occ. eigenvalues --  -10.34510 -10.33974 -10.30272 -10.27685 -10.26305
 Alpha  occ. eigenvalues --  -10.26300 -10.25587 -10.25513 -10.25190 -10.24932
 Alpha  occ. eigenvalues --  -10.24930 -10.24825 -10.24605 -10.24534 -10.24523
 Alpha  occ. eigenvalues --  -10.24309 -10.23926 -10.23626 -10.23603 -10.23528
 Alpha  occ. eigenvalues --  -10.23477 -10.23370 -10.23314 -10.23267 -10.23068
 Alpha  occ. eigenvalues --  -10.22927 -10.22884 -10.22699 -10.22460 -10.22363
 Alpha  occ. eigenvalues --  -10.22357 -10.22289 -10.22223 -10.22221 -10.22068
 Alpha  occ. eigenvalues --  -10.22039 -10.21746 -10.21515 -10.21483 -10.21262
 Alpha  occ. eigenvalues --  -10.21203 -10.21157 -10.21031 -10.20931 -10.20763
 Alpha  occ. eigenvalues --  -10.20714 -10.20708 -10.20632 -10.20370 -10.20293
 Alpha  occ. eigenvalues --  -10.20272 -10.19843 -10.19348 -10.18719 -10.18289
 Alpha  occ. eigenvalues --   -3.07539  -1.82446  -1.82028  -1.81962  -1.12991
 Alpha  occ. eigenvalues --   -1.11743  -1.04868  -1.03154  -1.02488  -0.99963
 Alpha  occ. eigenvalues --   -0.99258  -0.97074  -0.96443  -0.87182  -0.87147
 Alpha  occ. eigenvalues --   -0.86593  -0.85254  -0.85101  -0.84580  -0.84391
 Alpha  occ. eigenvalues --   -0.83716  -0.82712  -0.82680  -0.82589  -0.81325
 Alpha  occ. eigenvalues --   -0.80517  -0.79755  -0.79243  -0.78411  -0.78327
 Alpha  occ. eigenvalues --   -0.76867  -0.76750  -0.75924  -0.75081  -0.73934
 Alpha  occ. eigenvalues --   -0.73873  -0.73498  -0.72246  -0.72096  -0.71199
 Alpha  occ. eigenvalues --   -0.71064  -0.71038  -0.70312  -0.68929  -0.68056
 Alpha  occ. eigenvalues --   -0.67642  -0.66145  -0.65234  -0.64461  -0.63981
 Alpha  occ. eigenvalues --   -0.63109  -0.62463  -0.61887  -0.60999  -0.60102
 Alpha  occ. eigenvalues --   -0.59922  -0.59548  -0.59466  -0.58922  -0.58455
 Alpha  occ. eigenvalues --   -0.58081  -0.56616  -0.56021  -0.55600  -0.55040
 Alpha  occ. eigenvalues --   -0.54693  -0.54235  -0.53369  -0.52894  -0.52688
 Alpha  occ. eigenvalues --   -0.52178  -0.51991  -0.51923  -0.51306  -0.50650
 Alpha  occ. eigenvalues --   -0.50369  -0.50140  -0.49610  -0.49523  -0.49439
 Alpha  occ. eigenvalues --   -0.49137  -0.49037  -0.48626  -0.48419  -0.48271
 Alpha  occ. eigenvalues --   -0.48100  -0.47800  -0.47735  -0.47401  -0.47005
 Alpha  occ. eigenvalues --   -0.46911  -0.46731  -0.46612  -0.46593  -0.45943
 Alpha  occ. eigenvalues --   -0.45731  -0.45377  -0.45248  -0.45128  -0.44843
 Alpha  occ. eigenvalues --   -0.44619  -0.44608  -0.44394  -0.44152  -0.43869
 Alpha  occ. eigenvalues --   -0.43639  -0.43235  -0.43142  -0.42783  -0.42643
 Alpha  occ. eigenvalues --   -0.42225  -0.42147  -0.41834  -0.41639  -0.41515
 Alpha  occ. eigenvalues --   -0.41310  -0.41305  -0.41126  -0.40768  -0.40690
 Alpha  occ. eigenvalues --   -0.40548  -0.40330  -0.40172  -0.39946  -0.39773
 Alpha  occ. eigenvalues --   -0.39724  -0.39496  -0.39180  -0.39075  -0.39067
 Alpha  occ. eigenvalues --   -0.38896  -0.38544  -0.38397  -0.38083  -0.38014
 Alpha  occ. eigenvalues --   -0.37841  -0.37580  -0.37469  -0.37278  -0.36925
 Alpha  occ. eigenvalues --   -0.36910  -0.36786  -0.36530  -0.36407  -0.36292
 Alpha  occ. eigenvalues --   -0.36258  -0.35493  -0.35077  -0.34954  -0.34903
 Alpha  occ. eigenvalues --   -0.34524  -0.34474  -0.34131  -0.33873  -0.33604
 Alpha  occ. eigenvalues --   -0.33064  -0.32849  -0.32525  -0.32331  -0.32063
 Alpha  occ. eigenvalues --   -0.31921  -0.31579  -0.31397  -0.30518  -0.30255
 Alpha  occ. eigenvalues --   -0.29920  -0.29709  -0.29459  -0.28281  -0.27284
 Alpha  occ. eigenvalues --   -0.26561  -0.26482  -0.26194  -0.25542  -0.21819
 Alpha  occ. eigenvalues --   -0.19445
 Alpha virt. eigenvalues --   -0.06646  -0.03799  -0.00726   0.00727   0.03508
 Alpha virt. eigenvalues --    0.03648   0.04211   0.04850   0.05054   0.05845
 Alpha virt. eigenvalues --    0.06750   0.07612   0.09010   0.09269   0.09583

 Mulliken charges:
               1
     1  Mg   0.830813
     2  C    0.084870
     3  C   -0.191275
     4  C   -0.169826
     5  C   -0.182179
     6  N   -0.626874
     7  C    0.305892
     8  C   -0.105634
     9  C   -0.164963
    10  C    0.361513
    11  C   -0.308578
    12  C   -0.184434
    13  C   -0.276590
    14  C    0.610432
    15  O   -0.453804
    16  O   -0.474668
    17  N   -0.727605
    18  C    0.321513
    19  C   -0.008440
    20  C    0.025822
    21  C    0.289665
    22  C   -0.351041
    23  C   -0.139477
    24  C   -0.236136
    25  N   -0.698306
    26  C    0.260681
    27  C    0.021672
    28  C    0.033364
    29  C    0.311918
    30  C   -0.335966
    31  C   -0.229456
    32  C   -0.293205
    33  N   -0.742699
    34  C    0.228166
    35  C    0.059571
    36  C    0.017433
    37  C    0.333544
    38  C   -0.406064
    39  C    0.371871
    40  O   -0.485782
    41  C   -0.301066
    42  C    0.593233
    43  O   -0.472673
    44  O   -0.456040
    45  C   -0.086517
    46  C    0.013209
    47  C   -0.132758
    48  C    0.144767
    49  C   -0.375406
    50  C   -0.221962
    51  C   -0.177494
    52  C   -0.169456
    53  C   -0.023296
    54  C   -0.323446
    55  C   -0.188971
    56  C   -0.171119
    57  C   -0.148733
    58  C   -0.078942
    59  C   -0.335463
    60  C   -0.149498
    61  C   -0.194234
    62  C   -0.167309
    63  C   -0.041256
    64  C   -0.323344
    65  C   -0.313780
    66  H    0.065260
    67  H    0.083816
    68  H    0.077357
    69  H    0.102678
    70  H    0.105269
    71  H    0.117747
    72  H    0.113704
    73  H    0.098994
    74  H    0.110093
    75  H    0.100979
    76  H    0.132661
    77  H    0.130518
    78  H    0.118891
    79  H    0.139875
    80  H    0.109732
    81  H    0.116856
    82  H    0.105968
    83  H    0.108442
    84  H    0.094388
    85  H    0.108373
    86  H    0.135274
    87  H    0.104128
    88  H    0.089736
    89  H    0.096801
    90  H    0.096017
    91  H    0.121345
    92  H    0.115358
    93  H    0.140969
    94  H    0.134910
    95  H    0.163346
    96  H    0.133779
    97  H    0.135808
    98  H    0.127894
    99  H    0.120313
   100  H    0.122254
   101  H    0.076241
   102  H    0.112049
   103  H    0.123428
   104  H    0.108211
   105  H    0.097920
   106  H    0.109457
   107  H    0.101068
   108  H    0.091980
   109  H    0.105918
   110  H    0.063338
   111  H    0.071067
   112  H    0.089259
   113  H    0.105951
   114  H    0.092341
   115  H    0.082114
   116  H    0.093654
   117  H    0.104122
   118  H    0.032768
   119  H    0.086791
   120  H    0.106654
   121  H    0.083166
   122  H    0.101867
   123  H    0.104973
   124  H    0.102694
   125  H    0.080963
   126  H    0.081963
   127  H    0.081309
   128  H    0.059546
   129  H    0.114762
   130  H    0.105911
   131  H    0.098128
   132  H    0.103225
   133  H    0.099227
   134  H    0.110665
   135  H    0.111617
   136  H    0.089294
   137  H    0.062643
 Sum of Mulliken charges =  -0.00000

 Dipole moment (field-independent basis, Debye):
    X=              1.8823    Y=              5.5787    Z=              0.8047  Tot=              5.9425
 Quadrupole moment (field-independent basis, Debye-Ang):
   XX=           -362.1407   YY=           -388.5611   ZZ=           -397.1185
   XY=            -31.0064   XZ=             13.3600   YZ=             -2.7134

 Normal termination of Gaussian 16 at Tue Sep 10 19:10:31 2019.
