 Gaussian 09, Revision D.01,
 Gaussian 09:  ES64L-G09RevD.01 24-Apr-2013

 -------------------------------------
 # td=(NStates=1) CAM-B3LYP/6-31G(d,p)
 -------------------------------------

 --
 TD
 --
 Symbolic Z-matrix:
 Charge =  0 Multiplicity = 1

                         Standard orientation:
 ---------------------------------------------------------------------
 Center     Atomic      Atomic             Coordinates (Angstroms)
 Number     Number       Type             X           Y           Z
 ---------------------------------------------------------------------
      1         12           0       -7.085532    0.601503    0.096462
      2          6           0       -4.865914   -2.043984    0.483153
      3          6           0       -4.841418    2.831763    1.204417
      4          6           0       -9.302512    3.202597   -0.492634
      5          6           0       -9.418898   -1.677124   -0.869184
      6          7           0       -5.006267    0.439805    0.614467
      7          6           0       -4.310643   -0.693868    0.800437
      8          6           0       -2.862654   -0.321227    1.260575
      9          6           0       -3.114621    1.148798    1.661912
     10          6           0       -4.427283    1.544807    1.163364
     11          6           0       -2.955392    1.350816    3.231724
     12          6           0       -1.854681   -0.482705    0.096005
     13          6           0       -0.443825   -0.687184    0.551858
     14          6           0        0.531052   -0.815092   -0.568227
     15          8           0        0.168538   -1.137330   -1.763183
     16          8           0        1.785693   -0.621423   -0.209060
     17          7           0       -7.006208    2.667796    0.378590
     18          6           0       -6.016360    3.393513    0.812083
     19          6           0       -6.309973    4.880760    0.776186
     20          6           0       -7.611513    4.975026    0.145981
     21          6           0       -8.004206    3.535433   -0.094201
     22          6           0       -5.263924    5.966753    1.003239
     23          6           0       -8.467339    6.189474    0.067190
     24          6           0       -8.326740    7.288877    0.798205
     25          7           0       -9.126844    0.719781   -0.467288
     26          6           0       -9.820603    1.878130   -0.681270
     27          6           0      -11.132392    1.412105   -1.147218
     28          6           0      -11.257398    0.107324   -1.097780
     29          6           0       -9.872605   -0.309979   -0.887619
     30          6           0      -12.353566    2.441745   -1.357982
     31          6           0      -12.351210   -0.757198   -1.659031
     32          6           0      -12.361624   -1.147473   -3.172543
     33          7           0       -7.200081   -1.384588   -0.229154
     34          6           0       -8.201508   -2.230772   -0.583565
     35          6           0       -7.830816   -3.606605   -0.480290
     36          6           0       -6.462269   -3.584491   -0.138808
     37          6           0       -6.213538   -2.232867    0.033982
     38          6           0       -8.588667   -4.876518   -0.910895
     39          6           0       -5.347952   -4.350564    0.190648
     40          8           0       -5.206743   -5.562402    0.153710
     41          6           0       -4.201993   -3.325511    0.575634
     42          6           0       -3.724963   -3.628588    1.914376
     43          8           0       -3.855378   -3.016309    3.013391
     44          8           0       -3.061359   -4.731930    1.873797
     45          6           0       -2.421111   -5.210283    3.019373
     46          6           0        2.799215   -0.901789   -1.309032
     47          6           0        4.109219   -0.496268   -0.563193
     48          6           0        5.075589    0.273001   -0.953668
     49          6           0        5.107014    1.105225   -2.189989
     50          6           0        6.366737    0.402474   -0.186829
     51          6           0        7.611619   -0.286288   -1.012150
     52          6           0        8.775265   -0.162852    0.016614
     53          6           0       10.101020   -0.735351   -0.780937
     54          6           0        9.907195   -2.135733   -1.178916
     55          6           0       11.408117   -0.325720   -0.075258
     56          6           0       12.704518   -0.547394   -0.749555
     57          6           0       13.908701    0.018105    0.092836
     58          6           0       15.383080   -0.185621   -0.546027
     59          6           0       15.731016   -1.622816   -0.847470
     60          6           0       16.389634    0.536038    0.332851
     61          6           0       17.885673    0.615384   -0.076638
     62          6           0       18.789150    1.378339    0.761902
     63          6           0       20.196940    1.266122    0.313100
     64          6           0       20.449817    1.914705   -1.177624
     65          6           0       21.114008    2.019088    1.255798
     66          1           0       -4.140467    3.556980    1.570676
     67          1           0       -9.954306    4.189346   -0.820301
     68          1           0      -10.192380   -2.469477   -1.346389
     69          1           0       -2.457648   -0.836513    2.016724
     70          1           0       -2.240565    1.700216    1.182840
     71          1           0       -1.914657    1.043416    3.572389
     72          1           0       -3.054576    2.475634    3.606022
     73          1           0       -3.618223    0.736440    3.777698
     74          1           0       -2.127194   -1.437171   -0.514454
     75          1           0       -1.962972    0.254258   -0.623720
     76          1           0       -0.051648    0.163544    1.103781
     77          1           0       -0.149399   -1.420768    1.338787
     78          1           0       -5.464899    6.711795    0.018619
     79          1           0       -5.309696    6.533122    1.993412
     80          1           0       -4.230781    5.511059    0.911087
     81          1           0       -9.494400    6.204643   -0.596114
     82          1           0       -8.942127    8.059551    0.777720
     83          1           0       -7.447362    7.027951    1.515025
     84          1           0      -12.271668    3.004827   -2.384791
     85          1           0      -13.307776    1.796958   -1.275795
     86          1           0      -12.601419    3.375926   -0.650684
     87          1           0      -12.299336   -1.629424   -0.894747
     88          1           0      -13.227099   -0.217920   -1.347322
     89          1           0      -13.523691   -1.514544   -3.399354
     90          1           0      -12.132799   -0.202131   -3.701587
     91          1           0      -11.712042   -2.036433   -3.114591
     92          1           0       -8.968149   -4.757242   -1.903548
     93          1           0       -7.723089   -5.620061   -0.942889
     94          1           0       -9.330550   -5.223353   -0.277639
     95          1           0       -3.132099   -3.570193   -0.131534
     96          1           0       -1.807537   -4.468965    3.375271
     97          1           0       -3.163336   -5.727687    3.705165
     98          1           0       -1.887274   -6.016100    2.870724
     99          1           0        2.841881   -1.938185   -1.669771
    100          1           0        2.482782   -0.005101   -2.030731
    101          1           0        4.096750   -1.035357    0.446801
    102          1           0        4.236947    1.205608   -2.774945
    103          1           0        5.321919    2.182866   -1.738896
    104          1           0        6.229561    0.931351   -2.907097
    105          1           0        6.488963    1.569162   -0.116695
    106          1           0        6.450055    0.029066    1.011828
    107          1           0        7.260855   -1.274434   -1.129524
    108          1           0        7.895326    0.300827   -2.008464
    109          1           0        8.786569    0.860185    0.351615
    110          1           0        8.665771   -0.681942    1.026181
    111          1           0        9.984826   -0.152395   -1.806226
    112          1           0        8.889001   -2.593384   -1.726986
    113          1           0       10.828767   -2.325190   -1.711610
    114          1           0       10.027954   -2.720313   -0.239682
    115          1           0       11.495900    0.781064    0.268263
    116          1           0       11.417245   -0.816003    0.747120
    117          1           0       12.803198   -1.631324   -1.150945
    118          1           0       12.804016    0.323412   -1.568592
    119          1           0       13.964362    1.171131    0.296436
    120          1           0       13.858568   -0.489349    1.126819
    121          1           0       15.227547    0.517533   -1.623479
    122          1           0       15.757511   -2.191368    0.086926
    123          1           0       15.003475   -2.233749   -1.307440
    124          1           0       16.704603   -1.830910   -1.092408
    125          1           0       15.996806    1.641526    0.351220
    126          1           0       16.421570    0.067360    1.266970
    127          1           0       18.254456   -0.409212   -0.163705
    128          1           0       18.215758    1.027381   -1.294176
    129          1           0       18.469019    2.456773    0.920304
    130          1           0       18.898976    0.892557    1.734895
    131          1           0       20.656629    0.287964    0.248623
    132          1           0       20.012039    3.039930   -0.985324
    133          1           0       21.477415    2.111075   -1.571638
    134          1           0       19.904986    1.214090   -1.829188
    135          1           0       20.785414    1.808582    2.359911
    136          1           0       22.129191    1.925901    0.952825
    137          1           0       21.023932    3.255529    1.407779
 ---------------------------------------------------------------------

 SCF Done:  E(RCAM-B3LYP) =  -2932.54820109     A.U. after   16 cycles

 Excitation energies and oscillator strengths:

 Excited State   1:      Singlet-A      2.0499 eV  604.82 nm  f=0.2335  <S**2>=0.000
     240 -> 243        0.28036
     241 -> 242        0.64070
 This state for optimization and/or second-order correction.
 Total Energy, E(TD-HF/TD-KS) =  -2932.47286781
 Copying the excited state density for this state as the 1-particle RhoCI density.

 The electronic state is 1-A.
 Alpha  occ. eigenvalues --  -46.85742 -19.27148 -19.25876 -19.20181 -19.19385
 Alpha  occ. eigenvalues --  -19.18882 -14.41773 -14.40212 -14.39732 -14.39320
 Alpha  occ. eigenvalues --  -10.38950 -10.38119 -10.34776 -10.34098 -10.31900
 Alpha  occ. eigenvalues --  -10.30381 -10.30345 -10.29810 -10.29415 -10.29268
 Alpha  occ. eigenvalues --  -10.29083 -10.29048 -10.29027 -10.28971 -10.28912
 Alpha  occ. eigenvalues --  -10.28911 -10.28777 -10.28719 -10.28625 -10.28537
 Alpha  occ. eigenvalues --  -10.28445 -10.28414 -10.28381 -10.28237 -10.27968
 Alpha  occ. eigenvalues --  -10.27581 -10.27481 -10.27395 -10.27260 -10.27257
 Alpha  occ. eigenvalues --  -10.27221 -10.27161 -10.27021 -10.26784 -10.26563
 Alpha  occ. eigenvalues --  -10.26475 -10.26451 -10.26439 -10.26342 -10.26338
 Alpha  occ. eigenvalues --  -10.26318 -10.26310 -10.26060 -10.26012 -10.25954
 Alpha  occ. eigenvalues --  -10.25922 -10.25910 -10.25811 -10.25672 -10.25209
 Alpha  occ. eigenvalues --  -10.25125 -10.24807 -10.24741 -10.24446 -10.23501
 Alpha  occ. eigenvalues --   -3.14556  -1.89282  -1.88767  -1.88742  -1.19868
 Alpha  occ. eigenvalues --   -1.17397  -1.10784  -1.05996  -1.05656  -1.05056
 Alpha  occ. eigenvalues --   -1.04708  -1.04049  -1.03325  -0.93743  -0.91261
 Alpha  occ. eigenvalues --   -0.91044  -0.90285  -0.90033  -0.89580  -0.88682
 Alpha  occ. eigenvalues --   -0.88234  -0.88199  -0.87445  -0.86818  -0.86070
 Alpha  occ. eigenvalues --   -0.85259  -0.84702  -0.83592  -0.82960  -0.82476
 Alpha  occ. eigenvalues --   -0.81698  -0.81639  -0.80744  -0.80099  -0.78316
 Alpha  occ. eigenvalues --   -0.77610  -0.76796  -0.76574  -0.75663  -0.75016
 Alpha  occ. eigenvalues --   -0.74768  -0.74506  -0.74220  -0.72881  -0.72441
 Alpha  occ. eigenvalues --   -0.71824  -0.70436  -0.69714  -0.68842  -0.68723
 Alpha  occ. eigenvalues --   -0.67365  -0.66488  -0.65819  -0.64924  -0.64320
 Alpha  occ. eigenvalues --   -0.64300  -0.62789  -0.62632  -0.62542  -0.62017
 Alpha  occ. eigenvalues --   -0.61282  -0.60115  -0.59510  -0.59425  -0.59031
 Alpha  occ. eigenvalues --   -0.58576  -0.58127  -0.57951  -0.57273  -0.56618
 Alpha  occ. eigenvalues --   -0.56209  -0.55535  -0.55257  -0.54895  -0.54828
 Alpha  occ. eigenvalues --   -0.54469  -0.54174  -0.53799  -0.53304  -0.52958
 Alpha  occ. eigenvalues --   -0.52746  -0.52672  -0.52588  -0.52266  -0.51783
 Alpha  occ. eigenvalues --   -0.51583  -0.51537  -0.51052  -0.50680  -0.50304
 Alpha  occ. eigenvalues --   -0.50213  -0.50027  -0.49788  -0.49673  -0.49392
 Alpha  occ. eigenvalues --   -0.49241  -0.48955  -0.48576  -0.48280  -0.48027
 Alpha  occ. eigenvalues --   -0.47872  -0.47672  -0.47604  -0.47124  -0.46950
 Alpha  occ. eigenvalues --   -0.46660  -0.46334  -0.46237  -0.46043  -0.45718
 Alpha  occ. eigenvalues --   -0.45592  -0.45402  -0.45074  -0.44993  -0.44676
 Alpha  occ. eigenvalues --   -0.44461  -0.44164  -0.44048  -0.43962  -0.43757
 Alpha  occ. eigenvalues --   -0.43557  -0.43504  -0.43314  -0.43248  -0.42973
 Alpha  occ. eigenvalues --   -0.42828  -0.42603  -0.42389  -0.42241  -0.42092
 Alpha  occ. eigenvalues --   -0.41637  -0.41615  -0.41481  -0.41241  -0.40926
 Alpha  occ. eigenvalues --   -0.40594  -0.40534  -0.40209  -0.39957  -0.39786
 Alpha  occ. eigenvalues --   -0.39722  -0.39631  -0.39529  -0.39424  -0.39165
 Alpha  occ. eigenvalues --   -0.39056  -0.38717  -0.38361  -0.38093  -0.37640
 Alpha  occ. eigenvalues --   -0.37465  -0.37356  -0.37239  -0.36930  -0.36413
 Alpha  occ. eigenvalues --   -0.35965  -0.35598  -0.35493  -0.35346  -0.34904
 Alpha  occ. eigenvalues --   -0.34850  -0.34553  -0.33707  -0.33333  -0.33257
 Alpha  occ. eigenvalues --   -0.32833  -0.32162  -0.32026  -0.30472  -0.30254
 Alpha  occ. eigenvalues --   -0.30186  -0.30096  -0.29166  -0.27565  -0.22781
 Alpha  occ. eigenvalues --   -0.21157
 Alpha virt. eigenvalues --   -0.06384  -0.03266   0.00956   0.03294   0.05345
 Alpha virt. eigenvalues --    0.05793   0.06022   0.06276   0.06358   0.07401
 Alpha virt. eigenvalues --    0.08401   0.10244   0.10430   0.10719   0.11081

 Mulliken charges:
               1
     1  Mg   0.829397
     2  C    0.058600
     3  C   -0.199476
     4  C   -0.168420
     5  C   -0.206726
     6  N   -0.655575
     7  C    0.300236
     8  C   -0.120001
     9  C   -0.176978
    10  C    0.396107
    11  C   -0.313428
    12  C   -0.172722
    13  C   -0.278812
    14  C    0.609125
    15  O   -0.529032
    16  O   -0.475351
    17  N   -0.693031
    18  C    0.357157
    19  C   -0.008789
    20  C   -0.000958
    21  C    0.284425
    22  C   -0.368165
    23  C   -0.070205
    24  C   -0.216416
    25  N   -0.669872
    26  C    0.295116
    27  C   -0.005124
    28  C    0.023578
    29  C    0.279198
    30  C   -0.366300
    31  C   -0.237420
    32  C   -0.281868
    33  N   -0.731066
    34  C    0.295495
    35  C    0.001009
    36  C    0.071288
    37  C    0.307190
    38  C   -0.377604
    39  C    0.347114
    40  O   -0.465796
    41  C   -0.357125
    42  C    0.622710
    43  O   -0.529777
    44  O   -0.405403
    45  C   -0.061520
    46  C    0.007984
    47  C   -0.158722
    48  C    0.156179
    49  C   -0.340031
    50  C   -0.226467
    51  C   -0.166544
    52  C   -0.180389
    53  C   -0.063497
    54  C   -0.302099
    55  C   -0.153867
    56  C   -0.177955
    57  C   -0.179968
    58  C   -0.030269
    59  C   -0.325273
    60  C   -0.164761
    61  C   -0.171169
    62  C   -0.138788
    63  C   -0.066000
    64  C   -0.309275
    65  C   -0.292080
    66  H    0.073517
    67  H    0.099300
    68  H    0.075739
    69  H    0.117754
    70  H    0.102520
    71  H    0.096587
    72  H    0.092067
    73  H    0.139802
    74  H    0.118545
    75  H    0.125518
    76  H    0.131091
    77  H    0.142067
    78  H    0.117696
    79  H    0.125424
    80  H    0.117688
    81  H    0.073046
    82  H    0.105609
    83  H    0.099054
    84  H    0.102500
    85  H    0.103035
    86  H    0.102670
    87  H    0.093108
    88  H    0.104239
    89  H    0.087320
    90  H    0.128868
    91  H    0.122066
    92  H    0.128588
    93  H    0.146253
    94  H    0.136096
    95  H    0.144949
    96  H    0.123808
    97  H    0.113004
    98  H    0.124317
    99  H    0.154282
   100  H    0.132720
   101  H    0.094516
   102  H    0.121604
   103  H    0.103726
   104  H    0.079628
   105  H    0.082355
   106  H    0.080868
   107  H    0.119528
   108  H    0.096945
   109  H    0.100111
   110  H    0.081927
   111  H    0.060650
   112  H    0.100158
   113  H    0.108356
   114  H    0.092717
   115  H    0.085681
   116  H    0.103346
   117  H    0.091079
   118  H    0.083019
   119  H    0.085898
   120  H    0.071217
   121  H    0.039783
   122  H    0.090342
   123  H    0.109970
   124  H    0.115693
   125  H    0.079531
   126  H    0.103722
   127  H    0.090719
   128  H    0.044431
   129  H    0.094965
   130  H    0.092566
   131  H    0.102284
   132  H    0.081705
   133  H    0.100638
   134  H    0.107535
   135  H    0.081807
   136  H    0.108487
   137  H    0.059849
 Sum of Mulliken charges =   0.00000

 Dipole moment (field-independent basis, Debye):
    X=              3.2817    Y=              3.2538    Z=              1.0111  Tot=              4.7306
 Quadrupole moment (field-independent basis, Debye-Ang):
   XX=           -345.7635   YY=           -389.7624   ZZ=           -404.9927
   XY=            -33.6905   XZ=             20.5095   YZ=             -1.7137

 Normal termination of Gaussian 09 at Thu Jul  4 18:32:16 2019.
