 Gaussian 16, Revision A.03,
 Gaussian 16:  ES64L-G16RevA.03 25-Dec-2016

 ----------------------------------------------------------------------
 # td=(NStates=1) iop(3/107=0140000000,3/108=0140000000) CAM-B3LYP/6-31
 G(d,p)
 ----------------------------------------------------------------------

 --
 TD
 --
 Symbolic Z-matrix:
 Charge =  0 Multiplicity = 1

                         Standard orientation:
 ---------------------------------------------------------------------
 Center     Atomic      Atomic             Coordinates (Angstroms)
 Number     Number       Type             X           Y           Z
 ---------------------------------------------------------------------
      1         12           0       -7.090095    0.737214    0.026288
      2          6           0       -4.818491   -1.930120    0.372027
      3          6           0       -4.801319    2.751255    1.373094
      4          6           0       -9.244797    3.115743   -0.525796
      5          6           0       -9.521472   -1.777633   -0.840394
      6          7           0       -5.005029    0.469124    0.641872
      7          6           0       -4.266494   -0.685462    0.766753
      8          6           0       -2.858302   -0.454033    1.196717
      9          6           0       -2.986809    1.009966    1.719156
     10          6           0       -4.282731    1.455358    1.251864
     11          6           0       -2.850879    1.025344    3.271339
     12          6           0       -1.975846   -0.665865   -0.026000
     13          6           0       -0.461742   -0.283616    0.347875
     14          6           0        0.469559   -0.733184   -0.725928
     15          8           0        0.222996   -1.181502   -1.836809
     16          8           0        1.773436   -0.574789   -0.296641
     17          7           0       -7.081425    2.625924    0.443392
     18          6           0       -5.960249    3.360081    0.810644
     19          6           0       -6.266210    4.765297    0.836430
     20          6           0       -7.562718    4.967974    0.336427
     21          6           0       -8.022322    3.476368   -0.040233
     22          6           0       -5.387303    5.848777    1.206565
     23          6           0       -8.425169    6.166861    0.140602
     24          6           0       -8.283553    7.366622    0.759251
     25          7           0       -9.035586    0.677372   -0.531727
     26          6           0       -9.771846    1.790286   -0.694650
     27          6           0      -11.091523    1.514389   -1.172057
     28          6           0      -11.247769    0.176719   -1.194330
     29          6           0       -9.883607   -0.350526   -0.773521
     30          6           0      -12.141927    2.647571   -1.466507
     31          6           0      -12.431165   -0.777574   -1.546580
     32          6           0      -12.395665   -1.188932   -3.017226
     33          7           0       -7.239046   -1.338807   -0.175342
     34          6           0       -8.265715   -2.157313   -0.442494
     35          6           0       -7.874553   -3.513616   -0.334713
     36          6           0       -6.526202   -3.550283   -0.065493
     37          6           0       -6.170458   -2.078817    0.074997
     38          6           0       -8.860786   -4.770459   -0.670931
     39          6           0       -5.380831   -4.388427    0.212299
     40          8           0       -5.260234   -5.604680    0.270528
     41          6           0       -4.145586   -3.334145    0.523614
     42          6           0       -3.568797   -3.659886    1.801602
     43          8           0       -3.822978   -3.120600    2.843256
     44          8           0       -2.599994   -4.710768    1.833256
     45          6           0       -2.079607   -5.147615    3.040980
     46          6           0        2.716030   -0.746669   -1.445659
     47          6           0        4.062623   -0.662465   -0.816388
     48          6           0        5.111022    0.149979   -1.090058
     49          6           0        4.980207    1.026422   -2.302216
     50          6           0        6.333874    0.231664   -0.220143
     51          6           0        7.577093   -0.153760   -1.066118
     52          6           0        8.831398   -0.045886   -0.265586
     53          6           0       10.111935   -0.626112   -0.909035
     54          6           0        9.889525   -2.116434   -1.309033
     55          6           0       11.370934   -0.387835   -0.095453
     56          6           0       12.715093   -0.601447   -0.736834
     57          6           0       13.870305   -0.314127    0.173612
     58          6           0       15.278874   -0.159838   -0.447191
     59          6           0       15.768161   -1.605959   -0.841567
     60          6           0       16.336780    0.499195    0.534832
     61          6           0       17.676607    0.733911   -0.090190
     62          6           0       18.645640    1.448764    0.823914
     63          6           0       20.142221    1.360823    0.289079
     64          6           0       20.252583    2.234052   -0.938137
     65          6           0       21.066578    1.920835    1.391733
     66          1           0       -4.039514    3.424559    1.715928
     67          1           0       -9.959038    3.868843   -0.604521
     68          1           0      -10.289097   -2.632827   -0.965324
     69          1           0       -2.768682   -1.115827    1.972520
     70          1           0       -2.144025    1.862706    1.343653
     71          1           0       -1.861253    0.874867    3.740455
     72          1           0       -2.935641    2.223970    3.556341
     73          1           0       -3.661334    0.458538    3.795439
     74          1           0       -1.996187   -1.544767   -0.625206
     75          1           0       -2.229156    0.118516   -0.921216
     76          1           0       -0.155079    0.745316    0.493617
     77          1           0       -0.215209   -0.860585    1.426265
     78          1           0       -5.731811    6.781828    0.798228
     79          1           0       -5.205652    6.003328    2.219343
     80          1           0       -4.226393    5.550189    0.952220
     81          1           0       -9.050307    6.009298   -0.759446
     82          1           0       -8.785954    8.271858    0.498808
     83          1           0       -7.485983    7.608204    1.544952
     84          1           0      -11.944311    3.322130   -2.402072
     85          1           0      -13.108118    2.399505   -1.707508
     86          1           0      -12.017179    3.453775   -0.646453
     87          1           0      -12.514483   -1.755211   -0.860874
     88          1           0      -13.448081   -0.093227   -1.134660
     89          1           0      -12.979585   -1.951904   -3.300531
     90          1           0      -12.323832   -0.331013   -3.586232
     91          1           0      -11.474923   -1.504165   -3.123292
     92          1           0       -9.142784   -4.895460   -1.746889
     93          1           0       -8.412169   -5.631701   -0.462434
     94          1           0       -9.685675   -4.831315    0.039337
     95          1           0       -3.280983   -3.552132   -0.083260
     96          1           0       -1.588677   -4.583466    3.607964
     97          1           0       -2.969514   -5.621092    3.592699
     98          1           0       -1.279218   -5.874794    2.527250
     99          1           0        2.512570   -1.706137   -1.669597
    100          1           0        2.511240    0.069796   -2.185918
    101          1           0        4.438590   -1.300827   -0.033130
    102          1           0        3.803729    1.206425   -2.707253
    103          1           0        5.187609    2.157598   -2.182035
    104          1           0        5.519917    0.513878   -3.234277
    105          1           0        6.741977    1.279517   -0.061352
    106          1           0        6.004007   -0.367609    0.618900
    107          1           0        7.466317   -1.317732   -1.403589
    108          1           0        7.674677    0.382479   -2.087859
    109          1           0        9.038415    1.109240    0.065356
    110          1           0        8.815202   -0.727097    0.664415
    111          1           0       10.015321    0.136887   -1.765858
    112          1           0        9.022475   -2.222922   -1.905852
    113          1           0       10.849420   -2.419131   -1.823276
    114          1           0        9.916977   -2.725164   -0.371137
    115          1           0       11.470492    0.680798    0.098846
    116          1           0       11.473326   -0.910321    0.910795
    117          1           0       13.013967   -1.483565   -1.097199
    118          1           0       12.788649   -0.129395   -1.799633
    119          1           0       13.914246    0.751114    0.529013
    120          1           0       13.992131   -1.020957    1.123165
    121          1           0       15.094554    0.408918   -1.318006
    122          1           0       15.800995   -2.141026    0.064539
    123          1           0       14.976357   -1.941499   -1.526353
    124          1           0       16.730221   -1.567043   -1.112600
    125          1           0       15.913717    1.489153    0.863083
    126          1           0       16.333070   -0.042979    1.469742
    127          1           0       18.281417   -0.228448   -0.400575
    128          1           0       17.638041    1.305294   -1.010752
    129          1           0       18.618042    2.421700    0.995372
    130          1           0       18.870330    0.825933    1.740970
    131          1           0       20.531492    0.466209    0.229222
    132          1           0       19.743579    3.166451   -0.908875
    133          1           0       21.233502    2.204879   -1.214029
    134          1           0       19.937942    1.736591   -1.944237
    135          1           0       21.095014    1.375040    2.323444
    136          1           0       22.118878    2.017333    0.986174
    137          1           0       20.556785    2.948209    1.844035
 ---------------------------------------------------------------------

 SCF Done:  E(RCAM-B3LYP) =  -2933.45052094     A.U. after   16 cycles

 Excitation energies and oscillator strengths:

 Excited State   1:      Singlet-A      2.0250 eV  612.28 nm  f=0.2327  <S**2>=0.000
     240 -> 243        0.25045
     241 -> 242        0.65572
 This state for optimization and/or second-order correction.
 Total Energy, E(TD-HF/TD-DFT) =  -2933.37610536
 Copying the excited state density for this state as the 1-particle RhoCI density.

 The electronic state is 1-A.
 Alpha  occ. eigenvalues --  -46.80414 -19.20663 -19.19774 -19.16878 -19.16602
 Alpha  occ. eigenvalues --  -19.16194 -14.37949 -14.35906 -14.35547 -14.35527
 Alpha  occ. eigenvalues --  -10.34238 -10.33701 -10.31297 -10.26719 -10.26567
 Alpha  occ. eigenvalues --  -10.26472 -10.26259 -10.25629 -10.25603 -10.25485
 Alpha  occ. eigenvalues --  -10.25252 -10.25205 -10.25000 -10.24935 -10.24434
 Alpha  occ. eigenvalues --  -10.24378 -10.24342 -10.24259 -10.24113 -10.24104
 Alpha  occ. eigenvalues --  -10.23950 -10.23913 -10.23684 -10.23606 -10.23347
 Alpha  occ. eigenvalues --  -10.23341 -10.23217 -10.23042 -10.22958 -10.22952
 Alpha  occ. eigenvalues --  -10.22760 -10.22596 -10.22301 -10.22280 -10.22276
 Alpha  occ. eigenvalues --  -10.22170 -10.21921 -10.21886 -10.21749 -10.21611
 Alpha  occ. eigenvalues --  -10.21441 -10.21247 -10.21238 -10.21222 -10.21082
 Alpha  occ. eigenvalues --  -10.21005 -10.20826 -10.20805 -10.20758 -10.20243
 Alpha  occ. eigenvalues --  -10.20207 -10.19554 -10.19407 -10.18212 -10.18153
 Alpha  occ. eigenvalues --   -3.09134  -1.84059  -1.83629  -1.83531  -1.11487
 Alpha  occ. eigenvalues --   -1.11460  -1.05798  -1.03705  -1.03007  -1.00484
 Alpha  occ. eigenvalues --   -0.99536  -0.98923  -0.97639  -0.87098  -0.86542
 Alpha  occ. eigenvalues --   -0.85608  -0.85157  -0.84841  -0.84341  -0.83503
 Alpha  occ. eigenvalues --   -0.83430  -0.82845  -0.82307  -0.81999  -0.81205
 Alpha  occ. eigenvalues --   -0.80431  -0.79796  -0.79196  -0.78527  -0.78363
 Alpha  occ. eigenvalues --   -0.76777  -0.76240  -0.75910  -0.74680  -0.73482
 Alpha  occ. eigenvalues --   -0.72880  -0.72278  -0.71797  -0.71354  -0.71076
 Alpha  occ. eigenvalues --   -0.70959  -0.70753  -0.70119  -0.68821  -0.68378
 Alpha  occ. eigenvalues --   -0.67913  -0.66753  -0.65454  -0.65150  -0.64635
 Alpha  occ. eigenvalues --   -0.63533  -0.62049  -0.61698  -0.60850  -0.60758
 Alpha  occ. eigenvalues --   -0.60272  -0.60116  -0.58533  -0.58128  -0.57598
 Alpha  occ. eigenvalues --   -0.57149  -0.56314  -0.55752  -0.55514  -0.54881
 Alpha  occ. eigenvalues --   -0.54444  -0.54112  -0.53851  -0.53023  -0.52807
 Alpha  occ. eigenvalues --   -0.52588  -0.51794  -0.51603  -0.51173  -0.51034
 Alpha  occ. eigenvalues --   -0.50699  -0.50373  -0.50126  -0.49232  -0.49054
 Alpha  occ. eigenvalues --   -0.48874  -0.48761  -0.48727  -0.48367  -0.48182
 Alpha  occ. eigenvalues --   -0.47812  -0.47418  -0.47226  -0.47041  -0.46663
 Alpha  occ. eigenvalues --   -0.46492  -0.46458  -0.46274  -0.46024  -0.45927
 Alpha  occ. eigenvalues --   -0.45729  -0.45525  -0.45304  -0.45118  -0.44941
 Alpha  occ. eigenvalues --   -0.44828  -0.44527  -0.44057  -0.43994  -0.43839
 Alpha  occ. eigenvalues --   -0.43830  -0.43463  -0.43132  -0.42939  -0.42661
 Alpha  occ. eigenvalues --   -0.42431  -0.42361  -0.42317  -0.42186  -0.42023
 Alpha  occ. eigenvalues --   -0.42003  -0.41863  -0.41244  -0.40984  -0.40863
 Alpha  occ. eigenvalues --   -0.40667  -0.40622  -0.40542  -0.40136  -0.39991
 Alpha  occ. eigenvalues --   -0.39765  -0.39716  -0.39494  -0.39373  -0.39084
 Alpha  occ. eigenvalues --   -0.38933  -0.38542  -0.38464  -0.38324  -0.38250
 Alpha  occ. eigenvalues --   -0.37934  -0.37823  -0.37670  -0.37216  -0.37175
 Alpha  occ. eigenvalues --   -0.36808  -0.36431  -0.36300  -0.36191  -0.36119
 Alpha  occ. eigenvalues --   -0.36054  -0.35356  -0.35166  -0.35064  -0.34947
 Alpha  occ. eigenvalues --   -0.34720  -0.33980  -0.33675  -0.33570  -0.33434
 Alpha  occ. eigenvalues --   -0.33218  -0.33059  -0.32808  -0.32501  -0.32407
 Alpha  occ. eigenvalues --   -0.31194  -0.31160  -0.30791  -0.30607  -0.30379
 Alpha  occ. eigenvalues --   -0.30168  -0.30033  -0.29069  -0.28640  -0.27846
 Alpha  occ. eigenvalues --   -0.27054  -0.26697  -0.26496  -0.25362  -0.21888
 Alpha  occ. eigenvalues --   -0.19713
 Alpha virt. eigenvalues --   -0.06698  -0.04370  -0.00754   0.01382   0.03185
 Alpha virt. eigenvalues --    0.03553   0.03641   0.03732   0.04943   0.05691
 Alpha virt. eigenvalues --    0.06161   0.08114   0.09166   0.09582   0.09873

 Mulliken charges:
               1
     1  Mg   0.833789
     2  C    0.054120
     3  C   -0.201339
     4  C   -0.171420
     5  C   -0.167459
     6  N   -0.611620
     7  C    0.261844
     8  C   -0.120549
     9  C   -0.172705
    10  C    0.385039
    11  C   -0.306424
    12  C   -0.171407
    13  C   -0.252541
    14  C    0.608190
    15  O   -0.482914
    16  O   -0.501743
    17  N   -0.706557
    18  C    0.306963
    19  C    0.050284
    20  C    0.000400
    21  C    0.298026
    22  C   -0.389690
    23  C   -0.066796
    24  C   -0.254630
    25  N   -0.669334
    26  C    0.297959
    27  C    0.061090
    28  C   -0.002297
    29  C    0.237162
    30  C   -0.376791
    31  C   -0.227022
    32  C   -0.301718
    33  N   -0.722646
    34  C    0.318614
    35  C   -0.024789
    36  C    0.037066
    37  C    0.305723
    38  C   -0.376100
    39  C    0.357104
    40  O   -0.452785
    41  C   -0.320861
    42  C    0.608717
    43  O   -0.463589
    44  O   -0.478482
    45  C   -0.054034
    46  C    0.046205
    47  C   -0.127888
    48  C    0.138127
    49  C   -0.362259
    50  C   -0.201964
    51  C   -0.182833
    52  C   -0.155028
    53  C   -0.061224
    54  C   -0.312307
    55  C   -0.157261
    56  C   -0.176872
    57  C   -0.169873
    58  C   -0.087104
    59  C   -0.301622
    60  C   -0.172949
    61  C   -0.165572
    62  C   -0.156064
    63  C   -0.068735
    64  C   -0.300629
    65  C   -0.310209
    66  H    0.061137
    67  H    0.069865
    68  H    0.104771
    69  H    0.138474
    70  H    0.087313
    71  H    0.122748
    72  H    0.075789
    73  H    0.135708
    74  H    0.147753
    75  H    0.099521
    76  H    0.145209
    77  H    0.116544
    78  H    0.121294
    79  H    0.135776
    80  H    0.085229
    81  H    0.103917
    82  H    0.112312
    83  H    0.101440
    84  H    0.100281
    85  H    0.125156
    86  H    0.113765
    87  H    0.091906
    88  H    0.059840
    89  H    0.112458
    90  H    0.117810
    91  H    0.126410
    92  H    0.124519
    93  H    0.146874
    94  H    0.121664
    95  H    0.153342
    96  H    0.127431
    97  H    0.111161
    98  H    0.102332
    99  H    0.140100
   100  H    0.119781
   101  H    0.071408
   102  H    0.072269
   103  H    0.104831
   104  H    0.113714
   105  H    0.109946
   106  H    0.105589
   107  H    0.074406
   108  H    0.099075
   109  H    0.063125
   110  H    0.078630
   111  H    0.070026
   112  H    0.113825
   113  H    0.102184
   114  H    0.102147
   115  H    0.099983
   116  H    0.085761
   117  H    0.104398
   118  H    0.070165
   119  H    0.075560
   120  H    0.069424
   121  H    0.086854
   122  H    0.098660
   123  H    0.094891
   124  H    0.103589
   125  H    0.082622
   126  H    0.094424
   127  H    0.079148
   128  H    0.100685
   129  H    0.095498
   130  H    0.078313
   131  H    0.096125
   132  H    0.110194
   133  H    0.105252
   134  H    0.076033
   135  H    0.105354
   136  H    0.093988
   137  H    0.064487
 Sum of Mulliken charges =  -0.00000

 Dipole moment (field-independent basis, Debye):
    X=              2.2654    Y=              5.2921    Z=             -0.4298  Tot=              5.7727
 Quadrupole moment (field-independent basis, Debye-Ang):
   XX=           -344.5657   YY=           -396.5975   ZZ=           -398.1814
   XY=            -22.5541   XZ=             12.6278   YZ=             -0.8304

 Normal termination of Gaussian 16 at Sat Sep 14 18:08:59 2019.
