 Gaussian 16, Revision A.03,
 Gaussian 16:  ES64L-G16RevA.03 25-Dec-2016

 ----------------------------------------------------------------------
 # td=(NStates=1) iop(3/107=0140000000,3/108=0140000000) CAM-B3LYP/6-31
 G(d,p)
 ----------------------------------------------------------------------

 --
 TD
 --
 Symbolic Z-matrix:
 Charge =  0 Multiplicity = 1

                         Standard orientation:
 ---------------------------------------------------------------------
 Center     Atomic      Atomic             Coordinates (Angstroms)
 Number     Number       Type             X           Y           Z
 ---------------------------------------------------------------------
      1         12           0       -7.243013    0.574577    0.092354
      2          6           0       -4.911133   -1.967421    0.623530
      3          6           0       -4.808904    2.824848    1.173622
      4          6           0       -9.393744    3.135049   -0.271915
      5          6           0       -9.552871   -1.613842   -0.848577
      6          7           0       -5.109764    0.400221    0.573562
      7          6           0       -4.399181   -0.723407    0.738404
      8          6           0       -2.851231   -0.385803    1.142885
      9          6           0       -3.038877    1.037052    1.573850
     10          6           0       -4.380480    1.482231    0.946407
     11          6           0       -3.039146    1.147040    3.112099
     12          6           0       -1.929682   -0.511360   -0.086648
     13          6           0       -0.499405   -0.432668    0.402994
     14          6           0        0.576134   -0.884278   -0.694215
     15          8           0        0.308275   -1.263237   -1.783209
     16          8           0        1.827068   -0.578058   -0.255492
     17          7           0       -7.127427    2.659515    0.432108
     18          6           0       -5.995437    3.409552    0.649039
     19          6           0       -6.300757    4.780016    0.780069
     20          6           0       -7.640452    4.881957    0.398664
     21          6           0       -8.164767    3.567402    0.138072
     22          6           0       -5.477312    5.830627    0.994094
     23          6           0       -8.413986    6.079056    0.116363
     24          6           0       -8.371393    7.355398    0.684415
     25          7           0       -9.053013    0.697448   -0.512544
     26          6           0       -9.896796    1.837620   -0.512998
     27          6           0      -11.187902    1.512912   -0.964359
     28          6           0      -11.191854    0.171867   -1.160093
     29          6           0       -9.908301   -0.397393   -0.839712
     30          6           0      -12.350687    2.424403   -1.273709
     31          6           0      -12.493228   -0.607934   -1.575118
     32          6           0      -12.177060   -1.113746   -3.056866
     33          7           0       -7.285084   -1.352500   -0.104325
     34          6           0       -8.261402   -2.155752   -0.553872
     35          6           0       -7.876075   -3.539709   -0.533126
     36          6           0       -6.632455   -3.511903   -0.080584
     37          6           0       -6.239385   -2.131282    0.105955
     38          6           0       -8.627420   -4.838951   -0.938125
     39          6           0       -5.376548   -4.299661    0.165704
     40          8           0       -5.276235   -5.539617    0.180947
     41          6           0       -4.278793   -3.316115    0.542198
     42          6           0       -3.595656   -3.697969    1.929427
     43          8           0       -3.711492   -3.076553    2.988155
     44          8           0       -2.859228   -4.765335    1.811843
     45          6           0       -2.273131   -5.338801    2.931087
     46          6           0        2.847864   -0.720808   -1.187530
     47          6           0        4.128145   -0.581838   -0.623747
     48          6           0        5.117476    0.294713   -0.889737
     49          6           0        5.029209    1.259628   -2.147372
     50          6           0        6.395636    0.264922   -0.140214
     51          6           0        7.585797   -0.232302   -0.906342
     52          6           0        8.956524   -0.251559   -0.265230
     53          6           0       10.300441   -0.554531   -1.033057
     54          6           0       10.191055   -2.014914   -1.403410
     55          6           0       11.483432   -0.255179   -0.113372
     56          6           0       12.881534   -0.414562   -0.793596
     57          6           0       13.958998   -0.155044    0.137879
     58          6           0       15.309046   -0.250569   -0.495425
     59          6           0       15.764757   -1.632950   -0.723188
     60          6           0       16.402474    0.403337    0.454796
     61          6           0       17.773799    0.632396   -0.124310
     62          6           0       18.777259    1.328328    0.850444
     63          6           0       20.280077    1.446666    0.363856
     64          6           0       20.363986    2.264487   -1.049450
     65          6           0       21.198547    1.964232    1.365492
     66          1           0       -3.832701    3.371347    1.364457
     67          1           0      -10.203392    3.792121   -0.405184
     68          1           0      -10.286157   -2.339862   -0.965704
     69          1           0       -2.666755   -1.191875    1.810576
     70          1           0       -2.160119    1.528265    1.092925
     71          1           0       -2.124208    0.725306    3.604964
     72          1           0       -3.052615    2.163130    3.313000
     73          1           0       -3.785957    0.627500    3.653546
     74          1           0       -2.151731   -1.418676   -0.438903
     75          1           0       -2.335326    0.185228   -0.903225
     76          1           0       -0.139140    0.601001    0.652760
     77          1           0       -0.411961   -0.967668    1.293641
     78          1           0       -5.782552    6.719035    0.458344
     79          1           0       -5.361089    6.214135    2.117142
     80          1           0       -4.334184    5.794189    0.515787
     81          1           0       -8.981856    5.818242   -0.669658
     82          1           0       -9.064535    7.983404    0.210160
     83          1           0       -7.605745    7.272364    1.619083
     84          1           0      -11.817815    3.306420   -2.065485
     85          1           0      -13.352200    2.083529   -1.746583
     86          1           0      -12.781301    2.883927   -0.297637
     87          1           0      -12.337538   -1.483380   -0.879748
     88          1           0      -13.592629    0.011206   -1.412703
     89          1           0      -13.008596   -1.692045   -3.606076
     90          1           0      -11.948132   -0.395676   -3.809235
     91          1           0      -11.107399   -1.583414   -3.076387
     92          1           0       -9.012334   -4.860954   -2.020657
     93          1           0       -7.853942   -5.644197   -1.157558
     94          1           0       -9.401031   -4.977008   -0.219891
     95          1           0       -3.479735   -3.277526   -0.180503
     96          1           0       -1.629369   -4.618889    3.319493
     97          1           0       -3.061112   -5.536263    3.567019
     98          1           0       -1.628258   -5.991036    2.708298
     99          1           0        2.647511   -1.802536   -1.410553
    100          1           0        2.784807   -0.168929   -2.064384
    101          1           0        4.452356   -0.964916    0.332501
    102          1           0        3.949044    1.448759   -2.518759
    103          1           0        5.483959    2.210536   -1.956535
    104          1           0        5.558880    0.580065   -2.867686
    105          1           0        6.698832    1.180504    0.318630
    106          1           0        6.208712   -0.382161    0.726884
    107          1           0        7.407222   -1.138430   -1.393792
    108          1           0        7.582066    0.695272   -1.802626
    109          1           0        8.992863    0.871954    0.081792
    110          1           0        8.856719   -1.077133    0.405517
    111          1           0       10.339648   -0.065648   -1.857072
    112          1           0        9.114183   -2.279603   -1.571922
    113          1           0       10.951358   -2.144047   -2.305305
    114          1           0       10.366819   -2.767267   -0.483277
    115          1           0       11.317195    0.828011    0.558866
    116          1           0       11.401043   -1.112579    0.772615
    117          1           0       13.131493   -1.405876   -1.185960
    118          1           0       12.788355    0.216854   -1.702836
    119          1           0       13.821487    0.770393    0.546257
    120          1           0       14.153473   -0.850801    1.152186
    121          1           0       15.144028    0.451061   -1.374401
    122          1           0       15.688374   -2.162839    0.221752
    123          1           0       15.186371   -2.291489   -1.627814
    124          1           0       16.885817   -1.757320   -1.105945
    125          1           0       16.050358    1.519863    0.528461
    126          1           0       16.443546   -0.252385    1.452657
    127          1           0       18.277419   -0.351839   -0.571576
    128          1           0       17.411003    1.206709   -1.010076
    129          1           0       18.430646    2.357170    1.282240
    130          1           0       18.569485    0.740908    1.758142
    131          1           0       20.472613    0.406836   -0.053943
    132          1           0       20.341573    3.463670   -0.986985
    133          1           0       21.455240    2.024320   -1.233188
    134          1           0       19.649061    1.755528   -1.671186
    135          1           0       20.835630    1.512857    2.517288
    136          1           0       22.254017    1.955989    1.153706
    137          1           0       21.103845    2.910415    1.919777
 ---------------------------------------------------------------------

 SCF Done:  E(RCAM-B3LYP) =  -2933.37969196     A.U. after   16 cycles

 Excitation energies and oscillator strengths:

 Excited State   1:      Singlet-A      2.0621 eV  601.25 nm  f=0.2929  <S**2>=0.000
     240 -> 242       -0.10060
     240 -> 243        0.22318
     241 -> 242        0.66010
 This state for optimization and/or second-order correction.
 Total Energy, E(TD-HF/TD-DFT) =  -2933.30391153
 Copying the excited state density for this state as the 1-particle RhoCI density.

 The electronic state is 1-A.
 Alpha  occ. eigenvalues --  -46.78557 -19.22429 -19.21666 -19.17409 -19.16419
 Alpha  occ. eigenvalues --  -19.15710 -14.37392 -14.34951 -14.34752 -14.34609
 Alpha  occ. eigenvalues --  -10.34964 -10.34660 -10.30445 -10.26304 -10.26137
 Alpha  occ. eigenvalues --  -10.25151 -10.25135 -10.25126 -10.25113 -10.25049
 Alpha  occ. eigenvalues --  -10.24832 -10.24536 -10.24514 -10.24317 -10.23858
 Alpha  occ. eigenvalues --  -10.23790 -10.23508 -10.23334 -10.23322 -10.23046
 Alpha  occ. eigenvalues --  -10.22988 -10.22679 -10.22624 -10.22560 -10.22400
 Alpha  occ. eigenvalues --  -10.22400 -10.22340 -10.22303 -10.22301 -10.22165
 Alpha  occ. eigenvalues --  -10.22133 -10.22131 -10.22101 -10.22068 -10.22049
 Alpha  occ. eigenvalues --  -10.22012 -10.21971 -10.21878 -10.21872 -10.21802
 Alpha  occ. eigenvalues --  -10.21750 -10.21746 -10.21643 -10.21636 -10.21554
 Alpha  occ. eigenvalues --  -10.21514 -10.21441 -10.21439 -10.21277 -10.21250
 Alpha  occ. eigenvalues --  -10.20792 -10.20525 -10.20271 -10.20034 -10.19989
 Alpha  occ. eigenvalues --   -3.07523  -1.82428  -1.82005  -1.81956  -1.15284
 Alpha  occ. eigenvalues --   -1.14273  -1.06358  -1.04238  -1.03895  -1.00648
 Alpha  occ. eigenvalues --   -0.98711  -0.97588  -0.96435  -0.87851  -0.87017
 Alpha  occ. eigenvalues --   -0.86565  -0.85332  -0.84880  -0.84753  -0.84327
 Alpha  occ. eigenvalues --   -0.83153  -0.83068  -0.82455  -0.82323  -0.81609
 Alpha  occ. eigenvalues --   -0.80851  -0.80050  -0.79623  -0.78638  -0.77923
 Alpha  occ. eigenvalues --   -0.77053  -0.76718  -0.75702  -0.75023  -0.73483
 Alpha  occ. eigenvalues --   -0.72895  -0.72679  -0.71732  -0.71348  -0.70498
 Alpha  occ. eigenvalues --   -0.70468  -0.69819  -0.69127  -0.69098  -0.68568
 Alpha  occ. eigenvalues --   -0.67139  -0.66166  -0.65151  -0.64941  -0.64185
 Alpha  occ. eigenvalues --   -0.63429  -0.61595  -0.61264  -0.60950  -0.60462
 Alpha  occ. eigenvalues --   -0.60158  -0.59785  -0.59580  -0.58986  -0.58135
 Alpha  occ. eigenvalues --   -0.57545  -0.56544  -0.56343  -0.55873  -0.55280
 Alpha  occ. eigenvalues --   -0.54818  -0.54392  -0.54227  -0.54041  -0.53769
 Alpha  occ. eigenvalues --   -0.53385  -0.51997  -0.51758  -0.51454  -0.51228
 Alpha  occ. eigenvalues --   -0.51074  -0.50652  -0.50551  -0.50337  -0.49939
 Alpha  occ. eigenvalues --   -0.49407  -0.48717  -0.48640  -0.48432  -0.48084
 Alpha  occ. eigenvalues --   -0.47805  -0.47639  -0.47409  -0.47109  -0.46813
 Alpha  occ. eigenvalues --   -0.46701  -0.46552  -0.46193  -0.46187  -0.45976
 Alpha  occ. eigenvalues --   -0.45882  -0.45585  -0.45446  -0.45050  -0.44873
 Alpha  occ. eigenvalues --   -0.44646  -0.44297  -0.44034  -0.43664  -0.43305
 Alpha  occ. eigenvalues --   -0.43257  -0.42985  -0.42860  -0.42596  -0.42425
 Alpha  occ. eigenvalues --   -0.42050  -0.41956  -0.41759  -0.41697  -0.41335
 Alpha  occ. eigenvalues --   -0.41244  -0.41230  -0.41130  -0.40967  -0.40724
 Alpha  occ. eigenvalues --   -0.40642  -0.40387  -0.40259  -0.40065  -0.39963
 Alpha  occ. eigenvalues --   -0.39800  -0.39702  -0.39417  -0.39316  -0.39116
 Alpha  occ. eigenvalues --   -0.38867  -0.38645  -0.38443  -0.38147  -0.37704
 Alpha  occ. eigenvalues --   -0.37525  -0.37323  -0.37161  -0.37014  -0.36682
 Alpha  occ. eigenvalues --   -0.36317  -0.36192  -0.36116  -0.35907  -0.35801
 Alpha  occ. eigenvalues --   -0.35594  -0.35376  -0.34616  -0.34541  -0.34506
 Alpha  occ. eigenvalues --   -0.34088  -0.33877  -0.33420  -0.33353  -0.33180
 Alpha  occ. eigenvalues --   -0.33081  -0.32989  -0.32854  -0.32549  -0.32374
 Alpha  occ. eigenvalues --   -0.31873  -0.31495  -0.30890  -0.30782  -0.30247
 Alpha  occ. eigenvalues --   -0.30013  -0.30007  -0.29364  -0.28791  -0.27957
 Alpha  occ. eigenvalues --   -0.26635  -0.26521  -0.25900  -0.24321  -0.21745
 Alpha  occ. eigenvalues --   -0.20159
 Alpha virt. eigenvalues --   -0.07315  -0.03559   0.00055   0.01908   0.03656
 Alpha virt. eigenvalues --    0.04290   0.04733   0.04936   0.05310   0.05557
 Alpha virt. eigenvalues --    0.06592   0.08195   0.09184   0.09319   0.09390

 Mulliken charges:
               1
     1  Mg   0.838833
     2  C    0.096572
     3  C   -0.162533
     4  C   -0.192114
     5  C   -0.204158
     6  N   -0.583891
     7  C    0.266835
     8  C   -0.148130
     9  C   -0.140169
    10  C    0.284223
    11  C   -0.302737
    12  C   -0.161557
    13  C   -0.267360
    14  C    0.582246
    15  O   -0.439160
    16  O   -0.463754
    17  N   -0.667092
    18  C    0.258226
    19  C    0.132428
    20  C   -0.010109
    21  C    0.327852
    22  C   -0.443661
    23  C   -0.074711
    24  C   -0.247089
    25  N   -0.755121
    26  C    0.288149
    27  C    0.072458
    28  C    0.001071
    29  C    0.381377
    30  C   -0.366299
    31  C   -0.210865
    32  C   -0.320229
    33  N   -0.725809
    34  C    0.244152
    35  C   -0.016227
    36  C    0.041517
    37  C    0.256259
    38  C   -0.374320
    39  C    0.378473
    40  O   -0.478321
    41  C   -0.328118
    42  C    0.597300
    43  O   -0.483395
    44  O   -0.407707
    45  C   -0.056310
    46  C    0.042273
    47  C   -0.104757
    48  C    0.094657
    49  C   -0.367194
    50  C   -0.218168
    51  C   -0.167218
    52  C   -0.166349
    53  C   -0.030340
    54  C   -0.307934
    55  C   -0.137726
    56  C   -0.185035
    57  C   -0.127929
    58  C   -0.065497
    59  C   -0.282757
    60  C   -0.175340
    61  C   -0.167535
    62  C   -0.165102
    63  C   -0.037174
    64  C   -0.306350
    65  C   -0.307640
    66  H    0.084294
    67  H    0.074880
    68  H    0.082149
    69  H    0.113436
    70  H    0.090353
    71  H    0.097387
    72  H    0.110938
    73  H    0.135997
    74  H    0.114937
    75  H    0.105143
    76  H    0.132638
    77  H    0.137749
    78  H    0.134106
    79  H    0.107769
    80  H    0.089049
    81  H    0.086474
    82  H    0.115460
    83  H    0.107970
    84  H    0.085256
    85  H    0.118530
    86  H    0.117160
    87  H    0.114362
    88  H    0.084876
    89  H    0.094539
    90  H    0.121629
    91  H    0.103164
    92  H    0.109560
    93  H    0.144773
    94  H    0.135290
    95  H    0.166825
    96  H    0.115033
    97  H    0.136628
    98  H    0.122701
    99  H    0.106275
   100  H    0.112055
   101  H    0.070617
   102  H    0.102316
   103  H    0.119192
   104  H    0.134998
   105  H    0.104315
   106  H    0.088196
   107  H    0.099109
   108  H    0.036532
   109  H    0.069629
   110  H    0.096113
   111  H    0.092726
   112  H    0.103617
   113  H    0.091837
   114  H    0.085648
   115  H    0.057186
   116  H    0.063760
   117  H    0.106841
   118  H    0.094814
   119  H    0.096848
   120  H    0.053140
   121  H    0.074735
   122  H    0.110221
   123  H    0.066587
   124  H    0.091759
   125  H    0.083556
   126  H    0.066931
   127  H    0.069116
   128  H    0.090447
   129  H    0.074744
   130  H    0.092342
   131  H    0.090331
   132  H    0.088744
   133  H    0.095765
   134  H    0.116348
   135  H    0.051084
   136  H    0.110778
   137  H    0.115788
 Sum of Mulliken charges =  -0.00000

 Dipole moment (field-independent basis, Debye):
    X=              1.7209    Y=              3.5848    Z=             -0.2501  Tot=              3.9843
 Quadrupole moment (field-independent basis, Debye-Ang):
   XX=           -341.0738   YY=           -397.7524   ZZ=           -399.9547
   XY=            -15.8931   XZ=             13.7206   YZ=             -5.7588

 Normal termination of Gaussian 16 at Mon Sep 16 20:43:50 2019.
