 Gaussian 16, Revision A.03,
 Gaussian 16:  ES64L-G16RevA.03 25-Dec-2016

 ----------------------------------------------------------------------
 # td=(NStates=1) iop(3/107=0140000000,3/108=0140000000) CAM-B3LYP/6-31
 G(d,p)
 ----------------------------------------------------------------------

 --
 TD
 --
 Symbolic Z-matrix:
 Charge =  0 Multiplicity = 1

                         Standard orientation:
 ---------------------------------------------------------------------
 Center     Atomic      Atomic             Coordinates (Angstroms)
 Number     Number       Type             X           Y           Z
 ---------------------------------------------------------------------
      1         12           0       -7.236418    0.577372    0.156528
      2          6           0       -4.961458   -1.973392    0.518891
      3          6           0       -4.737391    2.758254    1.292650
      4          6           0       -9.402583    3.107377   -0.375527
      5          6           0       -9.583055   -1.742631   -0.909976
      6          7           0       -5.212928    0.367684    0.924869
      7          6           0       -4.348931   -0.756990    0.902211
      8          6           0       -2.862857   -0.458316    1.370709
      9          6           0       -3.000049    0.990155    1.749337
     10          6           0       -4.396818    1.506263    1.222027
     11          6           0       -2.840542    1.195409    3.300454
     12          6           0       -2.022569   -0.695007    0.151484
     13          6           0       -0.522618   -0.435086    0.558694
     14          6           0        0.487421   -0.603184   -0.611725
     15          8           0        0.326369   -0.813035   -1.803493
     16          8           0        1.739050   -0.519920   -0.068580
     17          7           0       -7.070101    2.649016    0.344602
     18          6           0       -5.991871    3.364506    0.909855
     19          6           0       -6.300729    4.765488    0.777856
     20          6           0       -7.618283    4.930465    0.398539
     21          6           0       -8.021530    3.542292    0.028594
     22          6           0       -5.284973    5.848305    1.285139
     23          6           0       -8.462754    6.064368    0.081598
     24          6           0       -8.371891    7.362917    0.528590
     25          7           0       -9.093309    0.711361   -0.511944
     26          6           0       -9.863889    1.804335   -0.564576
     27          6           0      -11.222562    1.540876   -1.083341
     28          6           0      -11.185689    0.221908   -1.377729
     29          6           0       -9.910591   -0.328529   -0.867291
     30          6           0      -12.228278    2.605844   -1.458921
     31          6           0      -12.377921   -0.704795   -1.925085
     32          6           0      -12.002594   -1.126016   -3.474018
     33          7           0       -7.350679   -1.408925   -0.074831
     34          6           0       -8.320299   -2.175398   -0.573436
     35          6           0       -7.957708   -3.649125   -0.554087
     36          6           0       -6.584196   -3.549978   -0.086736
     37          6           0       -6.260229   -2.167313    0.141370
     38          6           0       -8.691920   -4.827601   -1.001732
     39          6           0       -5.471948   -4.445587    0.108080
     40          8           0       -5.390798   -5.674973    0.135679
     41          6           0       -4.257193   -3.467900    0.448859
     42          6           0       -3.619220   -3.682629    1.788422
     43          8           0       -3.748774   -3.200595    2.935085
     44          8           0       -2.758183   -4.757340    1.724179
     45          6           0       -2.195362   -5.175956    2.984249
     46          6           0        2.730651   -0.611479   -1.112150
     47          6           0        4.117078   -0.497340   -0.483837
     48          6           0        5.183177    0.315893   -0.863184
     49          6           0        5.192462    1.248745   -2.058598
     50          6           0        6.423593    0.469183   -0.153853
     51          6           0        7.602230   -0.063597   -0.964401
     52          6           0        8.950706   -0.104246   -0.132064
     53          6           0       10.205112   -0.673029   -0.809124
     54          6           0       10.095175   -2.101184   -1.156425
     55          6           0       11.516811   -0.326714   -0.042887
     56          6           0       12.741300   -0.521686   -0.676770
     57          6           0       14.005003   -0.184551    0.186599
     58          6           0       15.397563   -0.303467   -0.538970
     59          6           0       15.683209   -1.787757   -0.957641
     60          6           0       16.455950    0.287995    0.381311
     61          6           0       17.871793    0.578397   -0.215351
     62          6           0       18.787023    1.275785    0.717694
     63          6           0       20.182535    1.371596    0.086953
     64          6           0       20.173693    2.282525   -1.167501
     65          6           0       21.052337    1.980148    1.213356
     66          1           0       -3.778324    3.521559    1.367889
     67          1           0      -10.153071    3.984356   -0.828238
     68          1           0      -10.370834   -2.363810   -1.224998
     69          1           0       -2.512453   -1.206547    2.159764
     70          1           0       -2.286616    1.590934    1.144704
     71          1           0       -1.812411    0.755950    3.466962
     72          1           0       -2.975237    2.229442    3.500560
     73          1           0       -3.687120    0.690187    3.846009
     74          1           0       -2.131780   -1.555987   -0.437780
     75          1           0       -2.207296    0.045524   -0.712468
     76          1           0       -0.147883    0.482339    1.068606
     77          1           0       -0.318352   -1.346428    1.115807
     78          1           0       -5.513110    6.762629    0.895357
     79          1           0       -5.474631    6.100873    2.438221
     80          1           0       -4.425072    5.342961    1.009465
     81          1           0       -9.163118    5.860005   -0.694467
     82          1           0       -8.987417    8.197202    0.118277
     83          1           0       -7.898258    7.771408    1.376378
     84          1           0      -12.038802    3.474888   -2.257828
     85          1           0      -13.137243    2.093958   -1.826094
     86          1           0      -12.325995    3.263114   -0.523602
     87          1           0      -12.577986   -1.603736   -1.345514
     88          1           0      -13.293044   -0.076140   -1.780502
     89          1           0      -12.962898   -1.660351   -3.668204
     90          1           0      -11.786709   -0.186470   -4.124617
     91          1           0      -11.153442   -1.747251   -3.305408
     92          1           0       -9.016845   -4.639262   -2.143999
     93          1           0       -7.948052   -5.726095   -0.927264
     94          1           0       -9.618073   -4.891912   -0.380708
     95          1           0       -3.522770   -3.720107   -0.272103
     96          1           0       -1.775640   -4.307951    3.459609
     97          1           0       -2.862971   -5.590491    3.694105
     98          1           0       -1.593852   -6.024634    2.772206
     99          1           0        2.965855   -1.590757   -1.501070
    100          1           0        2.457187    0.103221   -2.070236
    101          1           0        4.270865   -1.254923    0.448114
    102          1           0        4.356567    1.510966   -2.538229
    103          1           0        5.547563    2.479286   -1.812673
    104          1           0        5.916924    0.744043   -2.730322
    105          1           0        6.604225    1.508968    0.176397
    106          1           0        6.335511   -0.278849    0.762923
    107          1           0        7.215090   -0.986199   -1.522517
    108          1           0        7.607080    0.703480   -1.839951
    109          1           0        9.221747    1.009999    0.043962
    110          1           0        8.523863   -0.500382    0.942299
    111          1           0       10.264607   -0.202491   -1.834015
    112          1           0        9.089953   -2.383844   -1.640280
    113          1           0       11.012775   -2.462342   -1.640988
    114          1           0       10.196205   -2.511512   -0.222562
    115          1           0       11.370927    0.837257    0.262306
    116          1           0       11.393156   -0.898447    0.831052
    117          1           0       12.882333   -1.569826   -1.023770
    118          1           0       12.800862    0.013568   -1.538745
    119          1           0       13.935372    0.921428    0.575874
    120          1           0       14.115620   -0.635682    1.129307
    121          1           0       15.498446    0.357541   -1.349254
    122          1           0       15.577802   -2.429209   -0.131676
    123          1           0       14.887109   -2.241454   -1.767587
    124          1           0       16.695504   -2.042931   -1.484881
    125          1           0       16.220327    1.214467    0.981008
    126          1           0       16.714660   -0.603435    1.106883
    127          1           0       18.357094   -0.341450   -0.561850
    128          1           0       17.820024    1.182942   -1.089819
    129          1           0       18.259438    2.346485    1.096060
    130          1           0       18.860964    0.799607    1.613391
    131          1           0       20.556123    0.377312   -0.148096
    132          1           0       19.904264    3.158008   -0.935036
    133          1           0       21.108129    2.400972   -1.599741
    134          1           0       19.457824    2.109956   -1.941598
    135          1           0       21.348338    1.211115    2.039764
    136          1           0       22.230281    2.415945    0.767400
    137          1           0       20.615597    2.900219    1.508372
 ---------------------------------------------------------------------

 SCF Done:  E(RCAM-B3LYP) =  -2933.50215801     A.U. after   16 cycles

 Excitation energies and oscillator strengths:

 Excited State   1:      Singlet-A      1.9114 eV  648.66 nm  f=0.3192  <S**2>=0.000
     240 -> 243       -0.20003
     241 -> 242        0.67644
 This state for optimization and/or second-order correction.
 Total Energy, E(TD-HF/TD-DFT) =  -2933.43191604
 Copying the excited state density for this state as the 1-particle RhoCI density.

 The electronic state is 1-A.
 Alpha  occ. eigenvalues --  -46.80328 -19.22662 -19.20920 -19.17338 -19.16992
 Alpha  occ. eigenvalues --  -19.16400 -14.38208 -14.36009 -14.35979 -14.35740
 Alpha  occ. eigenvalues --  -10.34908 -10.34653 -10.31259 -10.28221 -10.27845
 Alpha  occ. eigenvalues --  -10.25896 -10.25682 -10.25556 -10.25511 -10.25491
 Alpha  occ. eigenvalues --  -10.25451 -10.25394 -10.25282 -10.25029 -10.24875
 Alpha  occ. eigenvalues --  -10.24820 -10.24403 -10.24389 -10.24264 -10.23931
 Alpha  occ. eigenvalues --  -10.23771 -10.23659 -10.23635 -10.23267 -10.23105
 Alpha  occ. eigenvalues --  -10.23094 -10.23068 -10.22982 -10.22865 -10.22837
 Alpha  occ. eigenvalues --  -10.22650 -10.22607 -10.22505 -10.22327 -10.22264
 Alpha  occ. eigenvalues --  -10.22221 -10.22208 -10.22153 -10.22095 -10.21970
 Alpha  occ. eigenvalues --  -10.21928 -10.21916 -10.21708 -10.21657 -10.21583
 Alpha  occ. eigenvalues --  -10.21491 -10.21371 -10.21238 -10.21080 -10.20652
 Alpha  occ. eigenvalues --  -10.20557 -10.19747 -10.19617 -10.19231 -10.17591
 Alpha  occ. eigenvalues --   -3.08990  -1.83925  -1.83465  -1.83401  -1.13299
 Alpha  occ. eigenvalues --   -1.11512  -1.05814  -1.04195  -1.01571  -1.00439
 Alpha  occ. eigenvalues --   -0.99152  -0.97526  -0.95964  -0.87497  -0.86447
 Alpha  occ. eigenvalues --   -0.85796  -0.85556  -0.85080  -0.83641  -0.83029
 Alpha  occ. eigenvalues --   -0.82970  -0.82839  -0.82528  -0.82161  -0.80985
 Alpha  occ. eigenvalues --   -0.79917  -0.79453  -0.78646  -0.78032  -0.77015
 Alpha  occ. eigenvalues --   -0.76787  -0.76378  -0.75741  -0.75131  -0.73683
 Alpha  occ. eigenvalues --   -0.72885  -0.72327  -0.72273  -0.71892  -0.70893
 Alpha  occ. eigenvalues --   -0.70597  -0.70069  -0.69156  -0.68421  -0.67859
 Alpha  occ. eigenvalues --   -0.66716  -0.66065  -0.65213  -0.64759  -0.64025
 Alpha  occ. eigenvalues --   -0.63513  -0.61871  -0.60971  -0.60819  -0.60552
 Alpha  occ. eigenvalues --   -0.59861  -0.59352  -0.58865  -0.58723  -0.58364
 Alpha  occ. eigenvalues --   -0.57867  -0.56250  -0.55927  -0.55139  -0.54837
 Alpha  occ. eigenvalues --   -0.54570  -0.54134  -0.53818  -0.53065  -0.52634
 Alpha  occ. eigenvalues --   -0.52124  -0.51223  -0.50868  -0.50770  -0.50598
 Alpha  occ. eigenvalues --   -0.50412  -0.50189  -0.49895  -0.49696  -0.49191
 Alpha  occ. eigenvalues --   -0.48794  -0.48526  -0.48164  -0.48121  -0.47870
 Alpha  occ. eigenvalues --   -0.47748  -0.47478  -0.47203  -0.47027  -0.46665
 Alpha  occ. eigenvalues --   -0.46394  -0.46336  -0.46310  -0.46187  -0.46038
 Alpha  occ. eigenvalues --   -0.45702  -0.45623  -0.45399  -0.44977  -0.44898
 Alpha  occ. eigenvalues --   -0.44617  -0.44384  -0.44172  -0.43974  -0.43834
 Alpha  occ. eigenvalues --   -0.43660  -0.43323  -0.43142  -0.42992  -0.42719
 Alpha  occ. eigenvalues --   -0.42512  -0.42320  -0.42306  -0.41930  -0.41499
 Alpha  occ. eigenvalues --   -0.41308  -0.41112  -0.40794  -0.40706  -0.40595
 Alpha  occ. eigenvalues --   -0.40380  -0.40354  -0.40203  -0.39909  -0.39792
 Alpha  occ. eigenvalues --   -0.39671  -0.39597  -0.39356  -0.39125  -0.38934
 Alpha  occ. eigenvalues --   -0.38621  -0.38339  -0.37980  -0.37960  -0.37781
 Alpha  occ. eigenvalues --   -0.37666  -0.37486  -0.37476  -0.37427  -0.37247
 Alpha  occ. eigenvalues --   -0.37010  -0.36693  -0.36503  -0.36346  -0.35868
 Alpha  occ. eigenvalues --   -0.35782  -0.35297  -0.35163  -0.35051  -0.34846
 Alpha  occ. eigenvalues --   -0.34549  -0.34247  -0.34042  -0.33767  -0.33666
 Alpha  occ. eigenvalues --   -0.33445  -0.33152  -0.33073  -0.33032  -0.32463
 Alpha  occ. eigenvalues --   -0.32307  -0.32229  -0.31762  -0.31014  -0.30659
 Alpha  occ. eigenvalues --   -0.30307  -0.29874  -0.29506  -0.29095  -0.27578
 Alpha  occ. eigenvalues --   -0.27443  -0.26773  -0.25558  -0.24564  -0.22087
 Alpha  occ. eigenvalues --   -0.19980
 Alpha virt. eigenvalues --   -0.07828  -0.04084  -0.01328   0.01861   0.02508
 Alpha virt. eigenvalues --    0.03771   0.03962   0.04558   0.04937   0.05146
 Alpha virt. eigenvalues --    0.05910   0.08163   0.08775   0.09347   0.09701

 Mulliken charges:
               1
     1  Mg   0.827681
     2  C    0.000280
     3  C   -0.200793
     4  C   -0.179893
     5  C   -0.167050
     6  N   -0.621803
     7  C    0.292698
     8  C   -0.115518
     9  C   -0.141219
    10  C    0.337056
    11  C   -0.297030
    12  C   -0.193406
    13  C   -0.263200
    14  C    0.584285
    15  O   -0.473301
    16  O   -0.455936
    17  N   -0.666199
    18  C    0.275363
    19  C   -0.037824
    20  C    0.039828
    21  C    0.260066
    22  C   -0.333154
    23  C   -0.082753
    24  C   -0.260106
    25  N   -0.688420
    26  C    0.315625
    27  C    0.040556
    28  C    0.006888
    29  C    0.273376
    30  C   -0.371339
    31  C   -0.264838
    32  C   -0.304514
    33  N   -0.746988
    34  C    0.293687
    35  C    0.066857
    36  C   -0.022937
    37  C    0.369200
    38  C   -0.392960
    39  C    0.356839
    40  O   -0.461704
    41  C   -0.302482
    42  C    0.628888
    43  O   -0.502221
    44  O   -0.461567
    45  C   -0.077124
    46  C    0.027770
    47  C   -0.178979
    48  C    0.135960
    49  C   -0.338803
    50  C   -0.206150
    51  C   -0.190640
    52  C   -0.155588
    53  C   -0.067942
    54  C   -0.302887
    55  C   -0.156749
    56  C   -0.159925
    57  C   -0.182790
    58  C   -0.043239
    59  C   -0.315057
    60  C   -0.178074
    61  C   -0.181949
    62  C   -0.146535
    63  C   -0.060058
    64  C   -0.314750
    65  C   -0.287282
    66  H    0.080244
    67  H    0.080577
    68  H    0.083116
    69  H    0.132029
    70  H    0.098136
    71  H    0.105590
    72  H    0.116858
    73  H    0.127969
    74  H    0.130983
    75  H    0.110255
    76  H    0.144565
    77  H    0.147890
    78  H    0.126358
    79  H    0.103472
    80  H    0.115236
    81  H    0.092290
    82  H    0.094534
    83  H    0.105518
    84  H    0.109953
    85  H    0.114559
    86  H    0.121247
    87  H    0.113680
    88  H    0.099346
    89  H    0.111285
    90  H    0.115280
    91  H    0.120763
    92  H    0.118238
    93  H    0.154851
    94  H    0.136456
    95  H    0.161318
    96  H    0.125588
    97  H    0.128538
    98  H    0.118296
    99  H    0.136106
   100  H    0.115420
   101  H    0.081971
   102  H    0.116016
   103  H    0.061558
   104  H    0.127265
   105  H    0.111528
   106  H    0.071188
   107  H    0.089966
   108  H    0.087701
   109  H    0.085796
   110  H    0.070823
   111  H    0.075198
   112  H    0.098127
   113  H    0.097630
   114  H    0.104700
   115  H    0.061370
   116  H    0.095637
   117  H    0.087980
   118  H    0.105175
   119  H    0.068338
   120  H    0.099332
   121  H    0.091414
   122  H    0.116483
   123  H    0.078247
   124  H    0.094620
   125  H    0.086355
   126  H    0.067193
   127  H    0.089379
   128  H    0.093864
   129  H    0.047659
   130  H    0.100611
   131  H    0.093495
   132  H    0.115817
   133  H    0.103804
   134  H    0.098852
   135  H    0.099828
   136  H    0.030259
   137  H    0.119044
 Sum of Mulliken charges =  -0.00000

 Dipole moment (field-independent basis, Debye):
    X=             -0.3936    Y=              2.6323    Z=             -0.9104  Tot=              2.8130
 Quadrupole moment (field-independent basis, Debye-Ang):
   XX=           -341.5622   YY=           -399.2729   ZZ=           -400.7350
   XY=            -12.8884   XZ=             16.1800   YZ=             -0.3782

 Normal termination of Gaussian 16 at Fri Sep 13 19:02:16 2019.
