 Gaussian 09, Revision D.01,
 Gaussian 09:  ES64L-G09RevD.01 24-Apr-2013

 -------------------------------------
 # td=(NStates=1) CAM-B3LYP/6-31G(d,p)
 -------------------------------------

 --
 TD
 --
 Symbolic Z-matrix:
 Charge =  0 Multiplicity = 1

                         Standard orientation:
 ---------------------------------------------------------------------
 Center     Atomic      Atomic             Coordinates (Angstroms)
 Number     Number       Type             X           Y           Z
 ---------------------------------------------------------------------
      1         12           0       -7.046473    0.641403    0.067811
      2          6           0       -4.849660   -1.969144    0.513749
      3          6           0       -4.833617    2.861428    1.155655
      4          6           0       -9.312278    3.171400   -0.454445
      5          6           0       -9.554172   -1.733670   -0.774620
      6          7           0       -5.052676    0.484591    0.811479
      7          6           0       -4.298579   -0.738164    0.832170
      8          6           0       -2.935112   -0.376526    1.316967
      9          6           0       -3.016469    1.089771    1.711487
     10          6           0       -4.421415    1.463389    1.085739
     11          6           0       -2.990190    1.263492    3.117282
     12          6           0       -1.876206   -0.635100    0.184819
     13          6           0       -0.430173   -0.428979    0.576998
     14          6           0        0.578236   -0.727269   -0.562094
     15          8           0        0.219451   -1.151541   -1.621076
     16          8           0        1.796633   -0.460826   -0.102404
     17          7           0       -6.995397    2.618063    0.344433
     18          6           0       -6.055638    3.366488    0.818544
     19          6           0       -6.319937    4.784669    0.757418
     20          6           0       -7.638706    4.894872    0.362202
     21          6           0       -8.076069    3.489969   -0.039723
     22          6           0       -5.311111    5.818915    1.111813
     23          6           0       -8.468828    6.028200    0.030763
     24          6           0       -8.414205    7.276235    0.709357
     25          7           0       -9.024758    0.661134   -0.567521
     26          6           0       -9.834220    1.803164   -0.717769
     27          6           0      -11.134170    1.527821   -1.157300
     28          6           0      -11.215465    0.115149   -1.325775
     29          6           0       -9.895504   -0.415247   -0.945710
     30          6           0      -12.294804    2.495833   -1.451331
     31          6           0      -12.414292   -0.685087   -1.770213
     32          6           0      -12.252064   -1.043881   -3.298284
     33          7           0       -7.236114   -1.337637   -0.030162
     34          6           0       -8.273147   -2.241475   -0.416481
     35          6           0       -7.821751   -3.604570   -0.445905
     36          6           0       -6.565289   -3.560407   -0.156189
     37          6           0       -6.218717   -2.194617    0.131343
     38          6           0       -8.635114   -4.905046   -0.730480
     39          6           0       -5.419557   -4.357180    0.188791
     40          8           0       -5.279545   -5.517801    0.141849
     41          6           0       -4.207559   -3.316061    0.509822
     42          6           0       -3.496494   -3.657417    1.816119
     43          8           0       -3.783121   -3.066012    2.933619
     44          8           0       -2.767768   -4.617795    1.738134
     45          6           0       -2.199299   -5.136832    3.010658
     46          6           0        2.763391   -0.757764   -1.118520
     47          6           0        4.135501   -0.505921   -0.478098
     48          6           0        5.142846    0.300949   -0.924082
     49          6           0        4.982528    1.182415   -2.086320
     50          6           0        6.407107    0.395649   -0.227506
     51          6           0        7.550576   -0.337443   -0.887536
     52          6           0        8.961545   -0.112640   -0.189784
     53          6           0       10.141849   -0.572540   -0.923418
     54          6           0       10.089521   -2.022752   -1.315898
     55          6           0       11.463784   -0.360361    0.024157
     56          6           0       12.809788   -0.531829   -0.810770
     57          6           0       13.930095   -0.288701    0.139057
     58          6           0       15.339094   -0.277657   -0.546307
     59          6           0       15.697582   -1.766410   -0.963448
     60          6           0       16.464568    0.263489    0.291095
     61          6           0       17.831637    0.537402   -0.322013
     62          6           0       18.750415    1.317760    0.812219
     63          6           0       20.164336    1.515882    0.225042
     64          6           0       20.162081    2.296789   -1.045851
     65          6           0       20.997469    2.164602    1.354916
     66          1           0       -4.093590    3.410140    1.695208
     67          1           0      -10.195692    3.944694   -0.569880
     68          1           0      -10.277117   -2.511444   -0.817853
     69          1           0       -2.726450   -1.223743    2.124756
     70          1           0       -2.054996    1.745062    1.243510
     71          1           0       -2.015280    0.848231    3.559366
     72          1           0       -3.031578    2.307582    3.405446
     73          1           0       -3.629792    0.576755    3.688869
     74          1           0       -1.968183   -1.671540   -0.311977
     75          1           0       -2.374117   -0.056857   -0.619546
     76          1           0       -0.065451    0.432066    1.303130
     77          1           0       -0.398220   -1.339759    1.315548
     78          1           0       -5.635050    6.783470    0.779625
     79          1           0       -5.312460    5.867790    2.271686
     80          1           0       -4.204263    5.662267    0.597617
     81          1           0       -9.196018    5.995153   -0.674467
     82          1           0       -9.041619    8.136666    0.534568
     83          1           0       -7.704738    7.098400    1.691087
     84          1           0      -12.191067    3.234049   -2.317960
     85          1           0      -13.245838    1.984700   -1.608059
     86          1           0      -12.409597    3.394028   -0.707786
     87          1           0      -12.437463   -1.717052   -1.375232
     88          1           0      -13.330277   -0.064324   -1.632972
     89          1           0      -13.017530   -1.751195   -3.537135
     90          1           0      -12.182903   -0.146577   -4.139416
     91          1           0      -11.330511   -1.707044   -3.584863
     92          1           0       -9.224092   -4.916495   -1.559582
     93          1           0       -7.912879   -5.730442   -0.776366
     94          1           0       -9.379117   -5.065355    0.040898
     95          1           0       -3.481822   -3.252727   -0.370110
     96          1           0       -1.369697   -4.315936    3.299137
     97          1           0       -3.244884   -5.157559    3.771175
     98          1           0       -1.744575   -5.969403    2.575871
     99          1           0        2.650302   -1.633919   -1.543002
    100          1           0        2.591534   -0.047512   -1.998968
    101          1           0        4.402222   -1.259812    0.282983
    102          1           0        4.035624    0.921795   -2.484324
    103          1           0        5.435237    2.104998   -1.846324
    104          1           0        5.482492    0.842299   -3.029802
    105          1           0        6.536926    1.434093   -0.070557
    106          1           0        6.226002    0.047198    0.862652
    107          1           0        7.253676   -1.351997   -0.900092
    108          1           0        7.824696    0.139316   -1.930053
    109          1           0        9.093982    0.969255    0.041141
    110          1           0        8.929288   -0.698074    0.746150
    111          1           0       10.251109   -0.047710   -2.019967
    112          1           0        9.089236   -2.184795   -1.892218
    113          1           0       10.880781   -2.386922   -2.136784
    114          1           0       10.120754   -2.678155   -0.422386
    115          1           0       11.399853    0.677411    0.379567
    116          1           0       11.401283   -0.989304    1.029124
    117          1           0       12.825424   -1.518522   -1.239644
    118          1           0       12.929165    0.063696   -1.750178
    119          1           0       13.721188    0.740212    0.580684
    120          1           0       13.772327   -1.012118    0.900190
    121          1           0       15.374327    0.241903   -1.497794
    122          1           0       15.954595   -2.281377    0.075059
    123          1           0       14.664284   -2.160168   -1.521969
    124          1           0       16.579280   -1.790629   -1.829170
    125          1           0       16.178997    1.306125    0.478935
    126          1           0       16.352883   -0.397419    1.200658
    127          1           0       18.484743   -0.445274   -0.457171
    128          1           0       17.730428    1.153498   -1.275216
    129          1           0       18.312212    2.396476    1.076003
    130          1           0       18.767830    0.712638    1.869576
    131          1           0       20.338897    0.416130   -0.015181
    132          1           0       19.817720    3.305382   -0.716194
    133          1           0       21.182301    2.259641   -1.419754
    134          1           0       19.402909    2.078343   -1.827329
    135          1           0       20.804543    1.744354    2.315599
    136          1           0       22.155041    2.275681    1.423760
    137          1           0       20.603040    3.071330    1.611523
 ---------------------------------------------------------------------

 SCF Done:  E(RCAM-B3LYP) =  -2932.66007156     A.U. after   17 cycles

 Excitation energies and oscillator strengths:

 Excited State   1:      Singlet-A      2.3059 eV  537.69 nm  f=0.1830  <S**2>=0.000
     240 -> 243       -0.28515
     241 -> 242        0.62868
 This state for optimization and/or second-order correction.
 Total Energy, E(TD-HF/TD-KS) =  -2932.57533207
 Copying the excited state density for this state as the 1-particle RhoCI density.

 The electronic state is 1-A.
 Alpha  occ. eigenvalues --  -46.83649 -19.28406 -19.27389 -19.21515 -19.20598
 Alpha  occ. eigenvalues --  -19.18337 -14.40778 -14.39598 -14.38930 -14.38436
 Alpha  occ. eigenvalues --  -10.39399 -10.38547 -10.34869 -10.34839 -10.31501
 Alpha  occ. eigenvalues --  -10.30095 -10.30021 -10.29673 -10.29230 -10.28604
 Alpha  occ. eigenvalues --  -10.28518 -10.28451 -10.28203 -10.28160 -10.28074
 Alpha  occ. eigenvalues --  -10.28060 -10.27655 -10.27638 -10.27580 -10.27570
 Alpha  occ. eigenvalues --  -10.27489 -10.27444 -10.27407 -10.27399 -10.27243
 Alpha  occ. eigenvalues --  -10.27213 -10.27194 -10.27135 -10.27073 -10.27044
 Alpha  occ. eigenvalues --  -10.27029 -10.27022 -10.26958 -10.26809 -10.26760
 Alpha  occ. eigenvalues --  -10.26754 -10.26722 -10.26641 -10.26434 -10.26133
 Alpha  occ. eigenvalues --  -10.26120 -10.25988 -10.25681 -10.25679 -10.25463
 Alpha  occ. eigenvalues --  -10.25168 -10.25132 -10.25045 -10.25007 -10.24745
 Alpha  occ. eigenvalues --  -10.24708 -10.24487 -10.24086 -10.23604 -10.23427
 Alpha  occ. eigenvalues --   -3.12793  -1.87489  -1.87045  -1.86973  -1.23114
 Alpha  occ. eigenvalues --   -1.19902  -1.13835  -1.11151  -1.06659  -1.04506
 Alpha  occ. eigenvalues --   -1.03422  -1.03349  -0.99933  -0.92389  -0.91968
 Alpha  occ. eigenvalues --   -0.90420  -0.89954  -0.89516  -0.88980  -0.88546
 Alpha  occ. eigenvalues --   -0.88298  -0.87703  -0.86967  -0.86512  -0.85981
 Alpha  occ. eigenvalues --   -0.85053  -0.84563  -0.83750  -0.82934  -0.81998
 Alpha  occ. eigenvalues --   -0.81817  -0.81235  -0.80019  -0.79340  -0.78216
 Alpha  occ. eigenvalues --   -0.76836  -0.76791  -0.76720  -0.76244  -0.75674
 Alpha  occ. eigenvalues --   -0.74875  -0.74031  -0.73206  -0.72674  -0.72332
 Alpha  occ. eigenvalues --   -0.70489  -0.70018  -0.68945  -0.68779  -0.68062
 Alpha  occ. eigenvalues --   -0.67216  -0.66667  -0.65231  -0.65172  -0.64693
 Alpha  occ. eigenvalues --   -0.63451  -0.62744  -0.61991  -0.61767  -0.61567
 Alpha  occ. eigenvalues --   -0.61114  -0.60184  -0.60140  -0.59521  -0.59394
 Alpha  occ. eigenvalues --   -0.58149  -0.57891  -0.57865  -0.57663  -0.57172
 Alpha  occ. eigenvalues --   -0.56253  -0.56008  -0.55548  -0.54970  -0.54767
 Alpha  occ. eigenvalues --   -0.54521  -0.54286  -0.54073  -0.53969  -0.53106
 Alpha  occ. eigenvalues --   -0.53012  -0.52869  -0.52050  -0.51819  -0.51468
 Alpha  occ. eigenvalues --   -0.51390  -0.51058  -0.50969  -0.50631  -0.50522
 Alpha  occ. eigenvalues --   -0.50243  -0.49959  -0.49675  -0.49657  -0.49380
 Alpha  occ. eigenvalues --   -0.49143  -0.48747  -0.48620  -0.48303  -0.48158
 Alpha  occ. eigenvalues --   -0.47721  -0.47616  -0.47296  -0.46987  -0.46921
 Alpha  occ. eigenvalues --   -0.46625  -0.46388  -0.46209  -0.45674  -0.45622
 Alpha  occ. eigenvalues --   -0.45517  -0.45426  -0.45165  -0.44984  -0.44639
 Alpha  occ. eigenvalues --   -0.44577  -0.44506  -0.44241  -0.43875  -0.43773
 Alpha  occ. eigenvalues --   -0.43645  -0.43513  -0.43128  -0.43030  -0.42917
 Alpha  occ. eigenvalues --   -0.42838  -0.42593  -0.42374  -0.42252  -0.42051
 Alpha  occ. eigenvalues --   -0.41711  -0.41604  -0.41467  -0.41321  -0.41005
 Alpha  occ. eigenvalues --   -0.40804  -0.40684  -0.40280  -0.40145  -0.40126
 Alpha  occ. eigenvalues --   -0.39949  -0.39704  -0.39600  -0.39138  -0.39084
 Alpha  occ. eigenvalues --   -0.38765  -0.38705  -0.38633  -0.38125  -0.37865
 Alpha  occ. eigenvalues --   -0.37679  -0.37353  -0.37152  -0.36916  -0.36625
 Alpha  occ. eigenvalues --   -0.36429  -0.36352  -0.36160  -0.35779  -0.35560
 Alpha  occ. eigenvalues --   -0.34760  -0.34440  -0.34243  -0.33729  -0.33287
 Alpha  occ. eigenvalues --   -0.32313  -0.31971  -0.31639  -0.31167  -0.29822
 Alpha  occ. eigenvalues --   -0.29550  -0.29397  -0.27248  -0.26758  -0.22517
 Alpha  occ. eigenvalues --   -0.21154
 Alpha virt. eigenvalues --   -0.04871  -0.02538   0.01934   0.04209   0.05591
 Alpha virt. eigenvalues --    0.05942   0.06300   0.06443   0.07668   0.07926
 Alpha virt. eigenvalues --    0.08988   0.10293   0.11321   0.11481   0.11663

 Mulliken charges:
               1
     1  Mg   0.811095
     2  C    0.108070
     3  C   -0.237769
     4  C   -0.189102
     5  C   -0.154265
     6  N   -0.601636
     7  C    0.265222
     8  C   -0.188555
     9  C   -0.130316
    10  C    0.371111
    11  C   -0.298904
    12  C   -0.171324
    13  C   -0.274292
    14  C    0.638047
    15  O   -0.468365
    16  O   -0.451692
    17  N   -0.727634
    18  C    0.399724
    19  C    0.043433
    20  C    0.001056
    21  C    0.289237
    22  C   -0.372212
    23  C   -0.081991
    24  C   -0.252211
    25  N   -0.677733
    26  C    0.279923
    27  C    0.037800
    28  C    0.039398
    29  C    0.258530
    30  C   -0.379725
    31  C   -0.236454
    32  C   -0.309866
    33  N   -0.697667
    34  C    0.188411
    35  C    0.013910
    36  C    0.043930
    37  C    0.263240
    38  C   -0.373053
    39  C    0.371169
    40  O   -0.429240
    41  C   -0.349999
    42  C    0.590320
    43  O   -0.558671
    44  O   -0.369078
    45  C   -0.086956
    46  C   -0.005648
    47  C   -0.147048
    48  C    0.123338
    49  C   -0.345733
    50  C   -0.239295
    51  C   -0.167847
    52  C   -0.161536
    53  C   -0.052976
    54  C   -0.294481
    55  C   -0.187541
    56  C   -0.181536
    57  C   -0.161246
    58  C   -0.079794
    59  C   -0.281895
    60  C   -0.142758
    61  C   -0.187272
    62  C   -0.169235
    63  C   -0.045749
    64  C   -0.295900
    65  C   -0.324253
    66  H    0.067424
    67  H    0.089409
    68  H    0.091369
    69  H    0.124507
    70  H    0.080667
    71  H    0.094398
    72  H    0.107449
    73  H    0.132865
    74  H    0.102718
    75  H    0.105740
    76  H    0.124330
    77  H    0.119428
    78  H    0.128627
    79  H    0.119876
    80  H    0.108048
    81  H    0.098311
    82  H    0.119527
    83  H    0.090781
    84  H    0.113331
    85  H    0.115323
    86  H    0.103952
    87  H    0.114878
    88  H    0.111728
    89  H    0.107423
    90  H    0.092328
    91  H    0.100013
    92  H    0.127301
    93  H    0.144330
    94  H    0.125316
    95  H    0.154644
    96  H    0.131508
    97  H    0.160624
    98  H    0.149454
    99  H    0.144711
   100  H    0.111173
   101  H    0.084214
   102  H    0.105678
   103  H    0.120100
   104  H    0.115998
   105  H    0.100689
   106  H    0.090198
   107  H    0.112697
   108  H    0.083126
   109  H    0.093626
   110  H    0.088272
   111  H    0.060253
   112  H    0.087451
   113  H    0.089664
   114  H    0.098029
   115  H    0.093321
   116  H    0.082535
   117  H    0.103155
   118  H    0.091271
   119  H    0.083553
   120  H    0.097922
   121  H    0.077616
   122  H    0.087584
   123  H    0.073795
   124  H    0.083370
   125  H    0.089696
   126  H    0.080649
   127  H    0.084109
   128  H    0.097453
   129  H    0.064847
   130  H    0.080347
   131  H    0.080652
   132  H    0.093330
   133  H    0.110753
   134  H    0.099984
   135  H    0.103013
   136  H    0.089228
   137  H    0.111795
 Sum of Mulliken charges =   0.00000

 Dipole moment (field-independent basis, Debye):
    X=              2.5087    Y=              2.5074    Z=              0.0639  Tot=              3.5475
 Quadrupole moment (field-independent basis, Debye-Ang):
   XX=           -361.4127   YY=           -385.6324   ZZ=           -397.4252
   XY=             -9.8067   XZ=             14.3470   YZ=             -4.6155

 Normal termination of Gaussian 09 at Sat Jul  6 17:40:23 2019.
