 Gaussian 09, Revision D.01,
 Gaussian 09:  ES64L-G09RevD.01 24-Apr-2013

 -------------------------------------
 # td=(NStates=1) CAM-B3LYP/6-31G(d,p)
 -------------------------------------

 --
 TD
 --
 Symbolic Z-matrix:
 Charge =  0 Multiplicity = 1

                         Standard orientation:
 ---------------------------------------------------------------------
 Center     Atomic      Atomic             Coordinates (Angstroms)
 Number     Number       Type             X           Y           Z
 ---------------------------------------------------------------------
      1         12           0       -7.094124    0.574068    0.051829
      2          6           0       -4.890375   -1.988066    0.480045
      3          6           0       -4.691575    2.772912    1.042904
      4          6           0       -9.434285    3.116116   -0.304660
      5          6           0       -9.570408   -1.719877   -0.776227
      6          7           0       -5.110625    0.360799    0.643334
      7          6           0       -4.387346   -0.747365    0.849337
      8          6           0       -2.893621   -0.394167    1.183294
      9          6           0       -2.964046    1.083044    1.568403
     10          6           0       -4.269451    1.490003    1.002190
     11          6           0       -2.901457    1.291246    3.058799
     12          6           0       -1.910705   -0.759509    0.033937
     13          6           0       -0.519331   -0.521131    0.402349
     14          6           0        0.555435   -0.743118   -0.637264
     15          8           0        0.168054   -1.173411   -1.793360
     16          8           0        1.791352   -0.416672   -0.303133
     17          7           0       -7.071154    2.604953    0.331113
     18          6           0       -5.894874    3.353229    0.743469
     19          6           0       -6.310905    4.778595    0.725795
     20          6           0       -7.717789    4.849509    0.318726
     21          6           0       -8.097162    3.445158    0.134923
     22          6           0       -5.420546    5.833642    0.944385
     23          6           0       -8.459526    6.074640    0.041836
     24          6           0       -8.291613    7.162435    0.863047
     25          7           0       -9.158668    0.666979   -0.506443
     26          6           0       -9.919962    1.835724   -0.568206
     27          6           0      -11.253846    1.429922   -0.993442
     28          6           0      -11.281639    0.069883   -1.083122
     29          6           0       -9.975180   -0.362914   -0.854642
     30          6           0      -12.353188    2.383484   -1.376621
     31          6           0      -12.414805   -0.656856   -1.491162
     32          6           0      -12.599056   -0.916260   -3.054146
     33          7           0       -7.203436   -1.370440   -0.189992
     34          6           0       -8.282924   -2.160556   -0.601579
     35          6           0       -7.863572   -3.598555   -0.606354
     36          6           0       -6.550200   -3.601781   -0.130464
     37          6           0       -6.183861   -2.158956    0.157485
     38          6           0       -8.527433   -4.841445   -1.096529
     39          6           0       -5.334422   -4.368172    0.165173
     40          8           0       -5.164214   -5.522525    0.118620
     41          6           0       -4.171126   -3.295480    0.559879
     42          6           0       -3.572432   -3.647219    1.946315
     43          8           0       -3.805665   -3.085008    3.016721
     44          8           0       -2.685623   -4.676184    1.829056
     45          6           0       -2.149206   -5.122993    3.141378
     46          6           0        2.885210   -0.583315   -1.135767
     47          6           0        4.149303   -0.451074   -0.548032
     48          6           0        5.131071    0.437812   -0.890803
     49          6           0        5.029486    1.229456   -2.117751
     50          6           0        6.389193    0.522401   -0.129011
     51          6           0        7.561463   -0.204520   -0.832245
     52          6           0        8.884941   -0.123287   -0.127279
     53          6           0       10.228706   -0.595651   -0.965270
     54          6           0       10.087673   -1.939378   -1.379946
     55          6           0       11.411107   -0.333751   -0.061213
     56          6           0       12.810005   -0.451282   -0.781531
     57          6           0       13.969200   -0.114891    0.152172
     58          6           0       15.325032   -0.338882   -0.465446
     59          6           0       15.725953   -1.713056   -0.884873
     60          6           0       16.431918    0.302294    0.346176
     61          6           0       17.785266    0.503297   -0.249500
     62          6           0       18.739824    1.252809    0.745154
     63          6           0       20.285759    1.380587    0.292062
     64          6           0       20.384001    2.100356   -1.065732
     65          6           0       21.009702    2.111577    1.404189
     66          1           0       -4.062794    3.498734    1.393969
     67          1           0      -10.057980    3.960552   -0.524678
     68          1           0      -10.238239   -2.440000   -1.091867
     69          1           0       -2.501531   -0.899998    2.174240
     70          1           0       -2.227231    1.643211    1.081090
     71          1           0       -2.153982    0.722472    3.614029
     72          1           0       -2.925674    2.279524    3.213681
     73          1           0       -3.888365    0.679891    3.310437
     74          1           0       -2.154466   -2.016761   -0.238425
     75          1           0       -2.221082   -0.350890   -1.006430
     76          1           0       -0.356543    0.505979    0.632415
     77          1           0       -0.165378   -0.884682    1.461730
     78          1           0       -5.755032    6.704319    0.502121
     79          1           0       -5.475625    5.924330    2.186072
     80          1           0       -4.383714    5.676373    0.704887
     81          1           0       -8.989025    6.108286   -0.965958
     82          1           0       -9.033941    8.033395    0.913375
     83          1           0       -7.502569    7.043444    1.756382
     84          1           0      -12.066492    3.158256   -2.024791
     85          1           0      -13.335510    1.973086   -1.327145
     86          1           0      -12.398401    3.156904   -0.494202
     87          1           0      -12.491203   -1.737239   -1.052500
     88          1           0      -13.528829   -0.141905   -1.282790
     89          1           0      -13.593400   -1.576107   -3.217390
     90          1           0      -12.561292    0.140111   -3.554597
     91          1           0      -11.641735   -1.373081   -3.311129
     92          1           0       -8.905110   -4.607638   -1.981843
     93          1           0       -7.792620   -5.737014   -1.074706
     94          1           0       -9.356036   -5.451603   -0.322391
     95          1           0       -3.127268   -3.267244    0.069563
     96          1           0       -1.724010   -4.032873    3.493147
     97          1           0       -2.983756   -5.617576    3.692826
     98          1           0       -1.467591   -6.022541    2.707236
     99          1           0        2.652240   -1.709336   -1.567900
    100          1           0        2.755378    0.200593   -1.825655
    101          1           0        4.350825   -1.046081    0.295242
    102          1           0        4.013514    1.589262   -2.722882
    103          1           0        5.540551    2.235926   -1.940657
    104          1           0        5.521425    0.875614   -3.137743
    105          1           0        6.719691    1.439247    0.168867
    106          1           0        6.321040   -0.023060    0.695483
    107          1           0        7.082327   -1.156292   -0.982762
    108          1           0        7.479135    0.139962   -1.920102
    109          1           0        9.290305    0.677474    0.320081
    110          1           0        8.807439   -0.913420    0.702045
    111          1           0       10.016875    0.102976   -1.816527
    112          1           0        8.994348   -2.094170   -1.842953
    113          1           0       10.868258   -2.316445   -2.221314
    114          1           0        9.999817   -2.666213   -0.445686
    115          1           0       11.403796    0.760162    0.211817
    116          1           0       11.396392   -0.840660    0.815598
    117          1           0       12.896397   -1.443278   -1.157562
    118          1           0       12.976874    0.380454   -1.493256
    119          1           0       13.679434    0.779069    0.553636
    120          1           0       13.908434   -0.794816    0.978389
    121          1           0       15.376676    0.366380   -1.395016
    122          1           0       15.853197   -2.129104    0.117495
    123          1           0       14.930989   -2.183800   -1.459825
    124          1           0       16.714207   -1.589409   -1.427634
    125          1           0       16.225671    1.301367    1.093695
    126          1           0       16.549531   -0.497266    1.211546
    127          1           0       18.021766   -0.371954   -0.628776
    128          1           0       17.753806    1.101596   -1.127948
    129          1           0       18.391130    2.222167    0.987960
    130          1           0       18.606054    0.748165    1.833995
    131          1           0       20.923189    0.361086    0.319305
    132          1           0       20.386310    3.155403   -0.931573
    133          1           0       21.405770    1.824323   -1.361162
    134          1           0       19.707490    1.698084   -1.812366
    135          1           0       20.793619    1.797811    2.449688
    136          1           0       22.147781    2.008574    1.330408
    137          1           0       20.775886    3.083690    1.618802
 ---------------------------------------------------------------------

 SCF Done:  E(RCAM-B3LYP) =  -2932.58854972     A.U. after   18 cycles

 Excitation energies and oscillator strengths:

 Excited State   1:      Singlet-A      2.0148 eV  615.37 nm  f=0.2290  <S**2>=0.000
     240 -> 243        0.24291
     241 -> 242        0.65526
 This state for optimization and/or second-order correction.
 Total Energy, E(TD-HF/TD-KS) =  -2932.51450770
 Copying the excited state density for this state as the 1-particle RhoCI density.

 The electronic state is 1-A.
 Alpha  occ. eigenvalues --  -46.83573 -19.27298 -19.25745 -19.21252 -19.20699
 Alpha  occ. eigenvalues --  -19.19720 -14.42106 -14.39538 -14.38988 -14.38691
 Alpha  occ. eigenvalues --  -10.40007 -10.38974 -10.35826 -10.33679 -10.32138
 Alpha  occ. eigenvalues --  -10.31248 -10.30189 -10.30011 -10.29640 -10.29200
 Alpha  occ. eigenvalues --  -10.29160 -10.29116 -10.28964 -10.28930 -10.28815
 Alpha  occ. eigenvalues --  -10.28679 -10.28589 -10.28470 -10.28353 -10.28242
 Alpha  occ. eigenvalues --  -10.28204 -10.27820 -10.27604 -10.27534 -10.27513
 Alpha  occ. eigenvalues --  -10.27395 -10.26770 -10.26707 -10.26560 -10.26523
 Alpha  occ. eigenvalues --  -10.26399 -10.26380 -10.26349 -10.26342 -10.26239
 Alpha  occ. eigenvalues --  -10.26168 -10.26128 -10.26032 -10.26028 -10.25961
 Alpha  occ. eigenvalues --  -10.25825 -10.25692 -10.25617 -10.25550 -10.25487
 Alpha  occ. eigenvalues --  -10.25204 -10.25094 -10.25035 -10.24757 -10.24601
 Alpha  occ. eigenvalues --  -10.24383 -10.24299 -10.23928 -10.23626 -10.23565
 Alpha  occ. eigenvalues --   -3.12694  -1.87399  -1.86928  -1.86884  -1.19547
 Alpha  occ. eigenvalues --   -1.16700  -1.14402  -1.07679  -1.05984  -1.04141
 Alpha  occ. eigenvalues --   -1.02861  -1.02312  -1.00557  -0.93337  -0.92654
 Alpha  occ. eigenvalues --   -0.91743  -0.90811  -0.90423  -0.89306  -0.88735
 Alpha  occ. eigenvalues --   -0.88414  -0.88222  -0.87923  -0.87683  -0.87260
 Alpha  occ. eigenvalues --   -0.86117  -0.84992  -0.83873  -0.83264  -0.82646
 Alpha  occ. eigenvalues --   -0.81754  -0.81409  -0.80739  -0.80064  -0.78610
 Alpha  occ. eigenvalues --   -0.77530  -0.76881  -0.76540  -0.76225  -0.76020
 Alpha  occ. eigenvalues --   -0.75517  -0.75078  -0.74695  -0.73843  -0.72558
 Alpha  occ. eigenvalues --   -0.71803  -0.70700  -0.69605  -0.68378  -0.68186
 Alpha  occ. eigenvalues --   -0.67871  -0.65889  -0.65385  -0.65147  -0.64777
 Alpha  occ. eigenvalues --   -0.63957  -0.63604  -0.63219  -0.62942  -0.62349
 Alpha  occ. eigenvalues --   -0.61687  -0.61092  -0.60161  -0.59845  -0.58992
 Alpha  occ. eigenvalues --   -0.58934  -0.58282  -0.57906  -0.57538  -0.56873
 Alpha  occ. eigenvalues --   -0.56370  -0.56231  -0.56161  -0.55512  -0.55046
 Alpha  occ. eigenvalues --   -0.54558  -0.54057  -0.53913  -0.53644  -0.53568
 Alpha  occ. eigenvalues --   -0.52811  -0.52602  -0.52535  -0.52428  -0.52113
 Alpha  occ. eigenvalues --   -0.51926  -0.51658  -0.51144  -0.51105  -0.50991
 Alpha  occ. eigenvalues --   -0.50817  -0.50426  -0.50317  -0.49953  -0.49832
 Alpha  occ. eigenvalues --   -0.49442  -0.49333  -0.49193  -0.48644  -0.48617
 Alpha  occ. eigenvalues --   -0.48458  -0.48194  -0.48130  -0.47671  -0.47360
 Alpha  occ. eigenvalues --   -0.46966  -0.46794  -0.46510  -0.46485  -0.46118
 Alpha  occ. eigenvalues --   -0.45876  -0.45640  -0.45588  -0.45521  -0.45214
 Alpha  occ. eigenvalues --   -0.45139  -0.45098  -0.44844  -0.44261  -0.43926
 Alpha  occ. eigenvalues --   -0.43866  -0.43685  -0.43605  -0.43352  -0.43262
 Alpha  occ. eigenvalues --   -0.42927  -0.42889  -0.42639  -0.42572  -0.42311
 Alpha  occ. eigenvalues --   -0.42219  -0.41506  -0.41330  -0.41284  -0.41149
 Alpha  occ. eigenvalues --   -0.40797  -0.40684  -0.40575  -0.40447  -0.40337
 Alpha  occ. eigenvalues --   -0.40111  -0.39836  -0.39577  -0.39335  -0.39311
 Alpha  occ. eigenvalues --   -0.39012  -0.38999  -0.38638  -0.37834  -0.37701
 Alpha  occ. eigenvalues --   -0.37423  -0.37168  -0.37148  -0.36991  -0.36652
 Alpha  occ. eigenvalues --   -0.36094  -0.35958  -0.35872  -0.35487  -0.35014
 Alpha  occ. eigenvalues --   -0.34939  -0.34057  -0.33979  -0.33183  -0.33038
 Alpha  occ. eigenvalues --   -0.32921  -0.32393  -0.32020  -0.30826  -0.30185
 Alpha  occ. eigenvalues --   -0.30015  -0.29620  -0.27142  -0.25638  -0.23169
 Alpha  occ. eigenvalues --   -0.20710
 Alpha virt. eigenvalues --   -0.06210  -0.03359   0.01576   0.03107   0.03646
 Alpha virt. eigenvalues --    0.05431   0.05792   0.06291   0.06499   0.07217
 Alpha virt. eigenvalues --    0.07717   0.09708   0.10640   0.11034   0.11630

 Mulliken charges:
               1
     1  Mg   0.813952
     2  C    0.072017
     3  C   -0.174825
     4  C   -0.155109
     5  C   -0.137198
     6  N   -0.628657
     7  C    0.330607
     8  C   -0.162942
     9  C   -0.142949
    10  C    0.318904
    11  C   -0.287129
    12  C   -0.148500
    13  C   -0.255451
    14  C    0.602149
    15  O   -0.517482
    16  O   -0.450975
    17  N   -0.717288
    18  C    0.279849
    19  C    0.025313
    20  C   -0.005121
    21  C    0.316896
    22  C   -0.384706
    23  C   -0.089370
    24  C   -0.256428
    25  N   -0.684838
    26  C    0.290744
    27  C    0.021672
    28  C    0.098609
    29  C    0.283630
    30  C   -0.379291
    31  C   -0.290881
    32  C   -0.289437
    33  N   -0.740818
    34  C    0.269328
    35  C    0.011374
    36  C    0.006365
    37  C    0.288807
    38  C   -0.371579
    39  C    0.380438
    40  O   -0.410925
    41  C   -0.327408
    42  C    0.600930
    43  O   -0.488212
    44  O   -0.468631
    45  C   -0.076593
    46  C    0.046964
    47  C   -0.118804
    48  C    0.131962
    49  C   -0.387650
    50  C   -0.223009
    51  C   -0.197001
    52  C   -0.178030
    53  C   -0.051973
    54  C   -0.283527
    55  C   -0.184357
    56  C   -0.190348
    57  C   -0.165787
    58  C   -0.071996
    59  C   -0.297781
    60  C   -0.164739
    61  C   -0.160896
    62  C   -0.177178
    63  C   -0.053056
    64  C   -0.309121
    65  C   -0.322651
    66  H    0.068428
    67  H    0.087059
    68  H    0.083672
    69  H    0.108984
    70  H    0.106619
    71  H    0.112169
    72  H    0.115564
    73  H    0.110444
    74  H    0.071186
    75  H    0.134362
    76  H    0.142314
    77  H    0.121880
    78  H    0.132729
    79  H    0.088723
    80  H    0.117273
    81  H    0.109602
    82  H    0.108925
    83  H    0.103598
    84  H    0.136866
    85  H    0.123836
    86  H    0.096562
    87  H    0.089937
    88  H    0.078281
    89  H    0.096047
    90  H    0.101443
    91  H    0.109404
    92  H    0.136741
    93  H    0.148946
    94  H    0.096018
    95  H    0.155452
    96  H    0.136659
    97  H    0.146839
    98  H    0.123149
    99  H    0.106365
   100  H    0.110291
   101  H    0.085902
   102  H    0.107367
   103  H    0.108893
   104  H    0.122932
   105  H    0.110971
   106  H    0.113233
   107  H    0.108743
   108  H    0.083771
   109  H    0.100725
   110  H    0.076993
   111  H    0.093232
   112  H    0.085398
   113  H    0.087588
   114  H    0.082349
   115  H    0.080195
   116  H    0.105304
   117  H    0.096455
   118  H    0.096196
   119  H    0.100981
   120  H    0.079065
   121  H    0.057877
   122  H    0.104560
   123  H    0.110868
   124  H    0.107005
   125  H    0.053228
   126  H    0.058462
   127  H    0.100914
   128  H    0.092949
   129  H    0.103353
   130  H    0.066629
   131  H    0.074627
   132  H    0.113767
   133  H    0.102992
   134  H    0.110093
   135  H    0.095867
   136  H    0.087372
   137  H    0.106914
 Sum of Mulliken charges =   0.00000

 Dipole moment (field-independent basis, Debye):
    X=              3.7548    Y=              3.9237    Z=              0.6378  Tot=              5.4681
 Quadrupole moment (field-independent basis, Debye-Ang):
   XX=           -355.7562   YY=           -390.6407   ZZ=           -401.5643
   XY=             -6.8778   XZ=             12.5832   YZ=             -5.4303

 Normal termination of Gaussian 09 at Fri Jul  5 11:28:45 2019.
