 Gaussian 16, Revision A.03,
 Gaussian 16:  ES64L-G16RevA.03 25-Dec-2016

 ----------------------------------------------------------------------
 # td=(NStates=1) iop(3/107=0140000000,3/108=0140000000) CAM-B3LYP/6-31
 G(d,p)
 ----------------------------------------------------------------------

 --
 TD
 --
 Symbolic Z-matrix:
 Charge =  0 Multiplicity = 1

                         Standard orientation:
 ---------------------------------------------------------------------
 Center     Atomic      Atomic             Coordinates (Angstroms)
 Number     Number       Type             X           Y           Z
 ---------------------------------------------------------------------
      1         12           0       -7.156116    0.620183    0.026775
      2          6           0       -4.788553   -1.913456    0.411481
      3          6           0       -4.669412    2.820722    1.194673
      4          6           0       -9.395798    3.032214   -0.322334
      5          6           0       -9.495869   -1.692127   -1.020297
      6          7           0       -4.978399    0.490353    0.637662
      7          6           0       -4.275128   -0.738240    0.696948
      8          6           0       -2.790749   -0.417645    1.175225
      9          6           0       -2.929684    1.064614    1.686090
     10          6           0       -4.314730    1.495116    1.137223
     11          6           0       -2.915308    0.982689    3.271036
     12          6           0       -1.866496   -0.640633    0.046200
     13          6           0       -0.428224   -0.458487    0.429178
     14          6           0        0.486936   -0.738086   -0.750385
     15          8           0        0.201810   -0.981610   -1.846905
     16          8           0        1.778089   -0.517544   -0.331464
     17          7           0       -7.118890    2.641199    0.501635
     18          6           0       -6.084498    3.400018    0.937597
     19          6           0       -6.433571    4.814530    0.905096
     20          6           0       -7.687168    4.877028    0.358217
     21          6           0       -8.114935    3.497313    0.061839
     22          6           0       -5.539707    5.910340    1.316036
     23          6           0       -8.487383    6.047433    0.031470
     24          6           0       -8.613512    7.211371    0.573028
     25          7           0       -9.098926    0.676798   -0.498340
     26          6           0       -9.848751    1.843819   -0.573423
     27          6           0      -11.188519    1.497040   -1.023102
     28          6           0      -11.239554    0.151498   -1.237709
     29          6           0       -9.873708   -0.354110   -0.882363
     30          6           0      -12.231287    2.461827   -1.263077
     31          6           0      -12.425237   -0.659284   -1.746480
     32          6           0      -12.330575   -1.167737   -3.226874
     33          7           0       -7.240772   -1.416485   -0.090491
     34          6           0       -8.271655   -2.188264   -0.554562
     35          6           0       -7.829654   -3.613041   -0.471171
     36          6           0       -6.606758   -3.501849   -0.029967
     37          6           0       -6.168421   -2.153332    0.056272
     38          6           0       -8.615172   -4.874108   -0.869495
     39          6           0       -5.382216   -4.330043    0.278083
     40          8           0       -5.164061   -5.551146    0.296698
     41          6           0       -4.172180   -3.358068    0.555967
     42          6           0       -3.563605   -3.639152    1.952953
     43          8           0       -3.754050   -3.041739    3.019561
     44          8           0       -2.826967   -4.828009    1.823060
     45          6           0       -2.270573   -5.226369    3.048787
     46          6           0        2.914013   -0.704665   -1.381406
     47          6           0        4.144378   -0.335994   -0.556535
     48          6           0        5.081158    0.416290   -1.137351
     49          6           0        5.082115    1.131202   -2.410570
     50          6           0        6.453459    0.527587   -0.295852
     51          6           0        7.621961   -0.138214   -1.023370
     52          6           0        8.869046   -0.195954   -0.109983
     53          6           0       10.146785   -0.599342   -0.962477
     54          6           0       10.105381   -2.098883   -1.266624
     55          6           0       11.383739   -0.314503   -0.028888
     56          6           0       12.748888   -0.512646   -0.704366
     57          6           0       13.975592   -0.221035    0.119957
     58          6           0       15.392184   -0.187308   -0.563023
     59          6           0       15.645084   -1.605223   -0.960633
     60          6           0       16.444300    0.408037    0.449819
     61          6           0       17.826534    0.491580   -0.125352
     62          6           0       18.758072    1.265996    0.821532
     63          6           0       20.125986    1.309678    0.355805
     64          6           0       20.250080    2.219383   -0.900607
     65          6           0       21.063822    2.027399    1.427513
     66          1           0       -4.162078    3.599909    1.905357
     67          1           0      -10.035525    3.998251   -0.601565
     68          1           0      -10.188753   -2.577946   -1.203149
     69          1           0       -2.641953   -1.035161    1.939773
     70          1           0       -2.074093    1.907529    1.317947
     71          1           0       -1.786692    1.074602    3.660678
     72          1           0       -3.223976    2.019151    3.592319
     73          1           0       -3.505474    0.155146    3.666737
     74          1           0       -2.083457   -1.737930   -0.212200
     75          1           0       -1.865703    0.019032   -0.915302
     76          1           0       -0.219847    0.527321    0.911892
     77          1           0       -0.242792   -0.992587    1.154239
     78          1           0       -5.995237    6.621600    0.642470
     79          1           0       -5.420978    6.048214    2.482988
     80          1           0       -4.629120    5.602489    0.733555
     81          1           0       -9.116145    5.655254   -0.828737
     82          1           0       -9.310060    8.132762    0.084576
     83          1           0       -7.740808    7.470033    1.409806
     84          1           0      -11.924926    3.086454   -2.039624
     85          1           0      -13.145159    1.980986   -1.568723
     86          1           0      -12.475644    3.114420   -0.315510
     87          1           0      -12.423210   -1.485123   -0.940904
     88          1           0      -13.392802   -0.338952   -1.361507
     89          1           0      -13.201914   -1.745252   -3.453736
     90          1           0      -12.260783   -0.328758   -3.880974
     91          1           0      -11.566780   -1.800855   -3.545544
     92          1           0       -8.741548   -4.824181   -2.027132
     93          1           0       -7.939353   -5.771130   -0.630899
     94          1           0       -9.341092   -4.800193   -0.285593
     95          1           0       -3.417719   -3.601429   -0.137702
     96          1           0       -1.603188   -4.554348    3.460975
     97          1           0       -2.875997   -5.669257    3.770879
     98          1           0       -1.685639   -6.135975    2.769715
     99          1           0        3.011421   -1.567801   -1.678806
    100          1           0        2.613512   -0.141527   -2.304022
    101          1           0        4.117577   -0.762219    0.321272
    102          1           0        4.086019    1.168378   -2.978708
    103          1           0        5.450342    2.244064   -1.966976
    104          1           0        5.837376    0.741018   -3.042997
    105          1           0        6.646986    1.486401   -0.045421
    106          1           0        6.300708    0.119449    0.753606
    107          1           0        7.310068   -1.255835   -1.314099
    108          1           0        7.931456    0.480542   -1.841973
    109          1           0        8.973243    0.779205    0.157021
    110          1           0        8.770026   -0.884305    0.718921
    111          1           0       10.308498    0.021169   -1.797063
    112          1           0        9.366839   -2.343462   -1.897402
    113          1           0       10.859481   -2.306914   -1.780240
    114          1           0        9.911671   -2.659831   -0.335928
    115          1           0       11.285107    0.676545    0.295742
    116          1           0       11.379724   -1.030726    0.747096
    117          1           0       12.973450   -1.585299   -0.851249
    118          1           0       12.887117   -0.007045   -1.613968
    119          1           0       13.909798    0.796474    0.417762
    120          1           0       14.013873   -0.929815    1.141332
    121          1           0       15.346502    0.582568   -1.369793
    122          1           0       15.704535   -2.228658   -0.115447
    123          1           0       14.789079   -1.965815   -1.597076
    124          1           0       16.623955   -1.599795   -1.477348
    125          1           0       16.185773    1.419208    0.879134
    126          1           0       16.415101   -0.117658    1.314628
    127          1           0       18.396187   -0.343568   -0.187025
    128          1           0       17.839287    1.094261   -1.070209
    129          1           0       18.480837    2.254104    0.919391
    130          1           0       18.522221    0.830780    1.688084
    131          1           0       20.523503    0.269421    0.189459
    132          1           0       19.658852    3.395921   -1.031245
    133          1           0       21.239086    2.279139   -1.389005
    134          1           0       19.784142    1.667571   -1.927005
    135          1           0       20.893547    1.874054    2.474849
    136          1           0       22.142235    1.946670    1.232466
    137          1           0       20.777511    3.202853    1.546463
 ---------------------------------------------------------------------

 SCF Done:  E(RCAM-B3LYP) =  -2933.41319190     A.U. after   15 cycles

 Excitation energies and oscillator strengths:

 Excited State   1:      Singlet-A      2.0062 eV  618.00 nm  f=0.3089  <S**2>=0.000
     240 -> 243        0.19484
     241 -> 242        0.67711
 This state for optimization and/or second-order correction.
 Total Energy, E(TD-HF/TD-DFT) =  -2933.33946453
 Copying the excited state density for this state as the 1-particle RhoCI density.

 The electronic state is 1-A.
 Alpha  occ. eigenvalues --  -46.80692 -19.22406 -19.19666 -19.18140 -19.16564
 Alpha  occ. eigenvalues --  -19.16465 -14.36889 -14.35545 -14.35454 -14.35141
 Alpha  occ. eigenvalues --  -10.35642 -10.33048 -10.31222 -10.25831 -10.25499
 Alpha  occ. eigenvalues --  -10.25462 -10.25255 -10.25230 -10.25127 -10.25106
 Alpha  occ. eigenvalues --  -10.24873 -10.24775 -10.24729 -10.24225 -10.23772
 Alpha  occ. eigenvalues --  -10.23697 -10.23694 -10.23518 -10.23335 -10.23260
 Alpha  occ. eigenvalues --  -10.23222 -10.23002 -10.22993 -10.22774 -10.22742
 Alpha  occ. eigenvalues --  -10.22359 -10.22181 -10.22137 -10.22023 -10.21980
 Alpha  occ. eigenvalues --  -10.21969 -10.21962 -10.21883 -10.21762 -10.21682
 Alpha  occ. eigenvalues --  -10.21596 -10.21397 -10.21263 -10.20980 -10.20971
 Alpha  occ. eigenvalues --  -10.20958 -10.20950 -10.20942 -10.20617 -10.20471
 Alpha  occ. eigenvalues --  -10.20305 -10.20109 -10.19859 -10.19777 -10.19662
 Alpha  occ. eigenvalues --  -10.19532 -10.19496 -10.19124 -10.17831 -10.17370
 Alpha  occ. eigenvalues --   -3.09145  -1.84097  -1.83619  -1.83531  -1.12266
 Alpha  occ. eigenvalues --   -1.12102  -1.05066  -1.04341  -1.02999  -1.00639
 Alpha  occ. eigenvalues --   -0.98417  -0.98007  -0.97113  -0.87137  -0.86135
 Alpha  occ. eigenvalues --   -0.85779  -0.85271  -0.84646  -0.84348  -0.84117
 Alpha  occ. eigenvalues --   -0.83650  -0.83339  -0.83315  -0.81316  -0.80527
 Alpha  occ. eigenvalues --   -0.79933  -0.79493  -0.79226  -0.78434  -0.78367
 Alpha  occ. eigenvalues --   -0.76759  -0.76447  -0.75880  -0.75617  -0.73915
 Alpha  occ. eigenvalues --   -0.72831  -0.72478  -0.72055  -0.72007  -0.70862
 Alpha  occ. eigenvalues --   -0.70738  -0.70357  -0.69174  -0.68917  -0.68313
 Alpha  occ. eigenvalues --   -0.67250  -0.65870  -0.65190  -0.64833  -0.63706
 Alpha  occ. eigenvalues --   -0.62285  -0.62131  -0.60893  -0.60735  -0.60397
 Alpha  occ. eigenvalues --   -0.60136  -0.59650  -0.59331  -0.59105  -0.58242
 Alpha  occ. eigenvalues --   -0.57570  -0.56770  -0.56467  -0.55110  -0.54654
 Alpha  occ. eigenvalues --   -0.54118  -0.53679  -0.53371  -0.52863  -0.52509
 Alpha  occ. eigenvalues --   -0.52165  -0.51871  -0.51462  -0.51343  -0.50839
 Alpha  occ. eigenvalues --   -0.50729  -0.50325  -0.50169  -0.49854  -0.49368
 Alpha  occ. eigenvalues --   -0.48883  -0.48746  -0.48561  -0.48272  -0.48070
 Alpha  occ. eigenvalues --   -0.47890  -0.47778  -0.47386  -0.47219  -0.47124
 Alpha  occ. eigenvalues --   -0.46699  -0.46583  -0.46462  -0.45868  -0.45814
 Alpha  occ. eigenvalues --   -0.45739  -0.45641  -0.45385  -0.44872  -0.44806
 Alpha  occ. eigenvalues --   -0.44561  -0.44359  -0.44245  -0.43959  -0.43765
 Alpha  occ. eigenvalues --   -0.43692  -0.43080  -0.42849  -0.42692  -0.42598
 Alpha  occ. eigenvalues --   -0.42397  -0.42212  -0.41839  -0.41687  -0.41530
 Alpha  occ. eigenvalues --   -0.41448  -0.41124  -0.41024  -0.40818  -0.40663
 Alpha  occ. eigenvalues --   -0.40315  -0.40157  -0.39972  -0.39926  -0.39798
 Alpha  occ. eigenvalues --   -0.39568  -0.39414  -0.39368  -0.39320  -0.39190
 Alpha  occ. eigenvalues --   -0.38805  -0.38504  -0.38380  -0.38122  -0.37924
 Alpha  occ. eigenvalues --   -0.37681  -0.37475  -0.37284  -0.37191  -0.36881
 Alpha  occ. eigenvalues --   -0.36788  -0.36499  -0.36452  -0.36016  -0.35821
 Alpha  occ. eigenvalues --   -0.35241  -0.35068  -0.34876  -0.34849  -0.34535
 Alpha  occ. eigenvalues --   -0.34496  -0.34333  -0.34247  -0.33776  -0.33474
 Alpha  occ. eigenvalues --   -0.33308  -0.33117  -0.33038  -0.32453  -0.31997
 Alpha  occ. eigenvalues --   -0.31864  -0.31611  -0.31062  -0.30733  -0.30342
 Alpha  occ. eigenvalues --   -0.30048  -0.29761  -0.29312  -0.28917  -0.28034
 Alpha  occ. eigenvalues --   -0.26940  -0.26872  -0.26176  -0.25119  -0.21943
 Alpha  occ. eigenvalues --   -0.19815
 Alpha virt. eigenvalues --   -0.07411  -0.02953  -0.00207   0.02506   0.03293
 Alpha virt. eigenvalues --    0.03970   0.05327   0.05446   0.06151   0.06220
 Alpha virt. eigenvalues --    0.06767   0.08933   0.09776   0.10306   0.10497

 Mulliken charges:
               1
     1  Mg   0.831460
     2  C    0.096763
     3  C   -0.209244
     4  C   -0.185608
     5  C   -0.166553
     6  N   -0.623988
     7  C    0.234565
     8  C   -0.121373
     9  C   -0.156163
    10  C    0.390402
    11  C   -0.311701
    12  C   -0.156930
    13  C   -0.248519
    14  C    0.598290
    15  O   -0.437040
    16  O   -0.517837
    17  N   -0.673977
    18  C    0.265452
    19  C   -0.010033
    20  C    0.032490
    21  C    0.250533
    22  C   -0.374911
    23  C   -0.022648
    24  C   -0.275225
    25  N   -0.726795
    26  C    0.349356
    27  C    0.057966
    28  C    0.008962
    29  C    0.309454
    30  C   -0.383618
    31  C   -0.252827
    32  C   -0.318156
    33  N   -0.732466
    34  C    0.252206
    35  C   -0.047125
    36  C    0.049649
    37  C    0.293553
    38  C   -0.347314
    39  C    0.366562
    40  O   -0.466449
    41  C   -0.295128
    42  C    0.615504
    43  O   -0.472766
    44  O   -0.434987
    45  C   -0.088694
    46  C    0.002065
    47  C   -0.106321
    48  C    0.117876
    49  C   -0.347412
    50  C   -0.232224
    51  C   -0.169080
    52  C   -0.164994
    53  C   -0.088122
    54  C   -0.289410
    55  C   -0.155252
    56  C   -0.187763
    57  C   -0.169704
    58  C   -0.062742
    59  C   -0.301694
    60  C   -0.179742
    61  C   -0.173864
    62  C   -0.156512
    63  C   -0.055087
    64  C   -0.283584
    65  C   -0.312777
    66  H    0.079456
    67  H    0.075694
    68  H    0.096773
    69  H    0.117637
    70  H    0.080972
    71  H    0.089936
    72  H    0.101334
    73  H    0.141970
    74  H    0.091550
    75  H    0.112747
    76  H    0.126869
    77  H    0.128670
    78  H    0.123985
    79  H    0.123529
    80  H    0.124996
    81  H    0.077639
    82  H    0.096757
    83  H    0.087311
    84  H    0.131468
    85  H    0.111165
    86  H    0.107074
    87  H    0.092767
    88  H    0.113244
    89  H    0.109614
    90  H    0.119072
    91  H    0.121096
    92  H    0.123781
    93  H    0.142314
    94  H    0.140207
    95  H    0.166719
    96  H    0.125871
    97  H    0.131736
    98  H    0.108747
    99  H    0.137508
   100  H    0.114539
   101  H    0.088783
   102  H    0.109903
   103  H    0.092476
   104  H    0.137498
   105  H    0.102273
   106  H    0.086160
   107  H    0.080759
   108  H    0.098093
   109  H    0.093008
   110  H    0.092613
   111  H    0.079696
   112  H    0.101384
   113  H    0.108041
   114  H    0.093765
   115  H    0.087791
   116  H    0.091236
   117  H    0.092619
   118  H    0.088289
   119  H    0.079849
   120  H    0.045509
   121  H    0.079138
   122  H    0.108520
   123  H    0.099598
   124  H    0.095818
   125  H    0.080948
   126  H    0.095676
   127  H    0.097311
   128  H    0.089742
   129  H    0.092793
   130  H    0.093030
   131  H    0.089567
   132  H    0.075467
   133  H    0.111123
   134  H    0.058332
   135  H    0.102988
   136  H    0.104170
   137  H    0.072543
 Sum of Mulliken charges =  -0.00000

 Dipole moment (field-independent basis, Debye):
    X=              1.1976    Y=              2.1814    Z=             -0.8848  Tot=              2.6412
 Quadrupole moment (field-independent basis, Debye-Ang):
   XX=           -331.0787   YY=           -398.4851   ZZ=           -392.6298
   XY=             -8.2756   XZ=             18.5889   YZ=             -3.3455

 Normal termination of Gaussian 16 at Sat Sep  7 08:11:47 2019.
