 Gaussian 09, Revision D.01,
 Gaussian 09:  ES64L-G09RevD.01 24-Apr-2013

 -------------------------------------
 # td=(NStates=1) CAM-B3LYP/6-31G(d,p)
 -------------------------------------

 --
 TD
 --
 Symbolic Z-matrix:
 Charge =  0 Multiplicity = 1

                         Standard orientation:
 ---------------------------------------------------------------------
 Center     Atomic      Atomic             Coordinates (Angstroms)
 Number     Number       Type             X           Y           Z
 ---------------------------------------------------------------------
      1         12           0       -7.122338    0.645736    0.005475
      2          6           0       -4.944708   -1.890130    0.469069
      3          6           0       -4.785431    2.773734    1.092678
      4          6           0       -9.509067    3.059504   -0.400029
      5          6           0       -9.623609   -1.819995   -0.764070
      6          7           0       -5.116159    0.465176    0.553422
      7          6           0       -4.425130   -0.646487    0.725767
      8          6           0       -2.991367   -0.395744    1.366776
      9          6           0       -3.180666    1.138203    1.715361
     10          6           0       -4.412725    1.547082    1.086791
     11          6           0       -3.260676    1.360416    3.285656
     12          6           0       -1.863114   -0.633962    0.243506
     13          6           0       -0.450989   -0.420176    0.734900
     14          6           0        0.515178   -0.718388   -0.389591
     15          8           0        0.167312   -0.890182   -1.584771
     16          8           0        1.836598   -0.495375   -0.078680
     17          7           0       -7.121436    2.627764    0.168053
     18          6           0       -6.083331    3.363953    0.611976
     19          6           0       -6.418282    4.746503    0.587119
     20          6           0       -7.761642    4.747079    0.242564
     21          6           0       -8.166011    3.475983   -0.091814
     22          6           0       -5.640554    5.931472    1.052287
     23          6           0       -8.547454    5.983392    0.130040
     24          6           0       -8.558812    7.147309    0.827407
     25          7           0       -9.124134    0.647561   -0.617466
     26          6           0       -9.937057    1.730699   -0.656185
     27          6           0      -11.243505    1.462202   -1.081201
     28          6           0      -11.343219    0.000140   -1.219075
     29          6           0      -10.088209   -0.444413   -0.815996
     30          6           0      -12.377194    2.428382   -1.265393
     31          6           0      -12.492460   -0.879325   -1.705373
     32          6           0      -12.317617   -1.190211   -3.205185
     33          7           0       -7.142241   -1.428657   -0.311716
     34          6           0       -8.247175   -2.278171   -0.532685
     35          6           0       -7.745136   -3.596737   -0.478306
     36          6           0       -6.429033   -3.507424   -0.107616
     37          6           0       -6.130481   -2.204416   -0.030468
     38          6           0       -8.504572   -4.911872   -0.740308
     39          6           0       -5.174033   -4.313433    0.106309
     40          8           0       -5.017481   -5.473883    0.030734
     41          6           0       -4.171190   -3.202516    0.685403
     42          6           0       -3.558243   -3.614654    1.890712
     43          8           0       -3.788052   -3.115743    2.960252
     44          8           0       -2.706458   -4.667095    1.740200
     45          6           0       -2.113750   -5.114803    2.892195
     46          6           0        2.801391   -0.760638   -1.046342
     47          6           0        4.158070   -0.457590   -0.462472
     48          6           0        5.124101    0.352654   -1.033345
     49          6           0        5.032228    1.060597   -2.394363
     50          6           0        6.437925    0.536273   -0.287446
     51          6           0        7.632059   -0.097435   -0.972405
     52          6           0        8.914748   -0.099669   -0.169471
     53          6           0       10.267089   -0.557115   -0.883262
     54          6           0       10.196100   -1.944198   -1.391424
     55          6           0       11.400021   -0.324408    0.016026
     56          6           0       12.892887   -0.529204   -0.558798
     57          6           0       14.054852   -0.166945    0.462207
     58          6           0       15.468911   -0.114333   -0.386319
     59          6           0       15.842395   -1.501836   -0.951950
     60          6           0       16.544803    0.334511    0.417037
     61          6           0       17.896838    0.563770   -0.251970
     62          6           0       18.868594    1.238771    0.710391
     63          6           0       20.291934    1.286124    0.172742
     64          6           0       20.335356    2.167917   -1.052261
     65          6           0       21.220882    1.940402    1.213013
     66          1           0       -4.053461    3.498646    1.356154
     67          1           0      -10.133717    3.825460   -0.512212
     68          1           0      -10.351318   -2.806912   -0.863663
     69          1           0       -2.692749   -0.963570    2.172129
     70          1           0       -2.372220    1.635414    1.540924
     71          1           0       -2.324788    1.096374    3.891045
     72          1           0       -3.459666    2.414557    3.540779
     73          1           0       -3.973458    0.634784    3.601507
     74          1           0       -1.873154   -1.594741   -0.200912
     75          1           0       -2.180152    0.129395   -0.512707
     76          1           0       -0.300316    0.641412    1.116057
     77          1           0       -0.157187   -0.947604    1.654861
     78          1           0       -5.935258    6.837450    0.600375
     79          1           0       -5.421225    6.170432    2.191980
     80          1           0       -4.533091    5.661776    0.712838
     81          1           0       -9.080319    5.892853   -0.822426
     82          1           0       -9.380856    7.948226    0.600038
     83          1           0       -8.021665    7.247694    1.702998
     84          1           0      -12.175904    3.027983   -2.072619
     85          1           0      -13.259084    1.779597   -1.336795
     86          1           0      -12.379481    3.043357   -0.407129
     87          1           0      -12.611660   -1.855219   -0.995762
     88          1           0      -13.423632   -0.350293   -1.501074
     89          1           0      -13.097370   -1.901160   -3.390250
     90          1           0      -12.129342   -0.222653   -3.772412
     91          1           0      -11.282268   -1.851900   -3.486661
     92          1           0       -9.162438   -5.093852   -1.740927
     93          1           0       -7.627690   -5.698062   -0.805202
     94          1           0       -9.453857   -4.989850   -0.018395
     95          1           0       -3.455200   -3.409658   -0.303133
     96          1           0       -1.161410   -4.400954    3.275772
     97          1           0       -2.833844   -4.951043    3.713774
     98          1           0       -1.826876   -6.049933    2.800236
     99          1           0        2.435571   -1.766425   -1.526222
    100          1           0        2.527440   -0.310462   -2.017456
    101          1           0        4.362253   -0.811527    0.551038
    102          1           0        4.166266    1.162714   -2.942029
    103          1           0        5.032748    2.120565   -2.176073
    104          1           0        5.938458    0.467930   -2.938596
    105          1           0        6.563625    1.596775   -0.081877
    106          1           0        6.225694    0.169976    0.951819
    107          1           0        7.215241   -1.134351   -1.226301
    108          1           0        7.916096    0.499986   -1.942031
    109          1           0        9.042328    0.984588    0.200496
    110          1           0        8.791692   -0.647598    0.769330
    111          1           0       10.353681    0.036881   -1.707577
    112          1           0        9.306224   -1.919594   -2.184430
    113          1           0       11.075367   -2.313383   -1.995349
    114          1           0        9.666285   -2.567412   -0.554871
    115          1           0       11.612267    0.768848    0.385831
    116          1           0       11.407199   -0.829687    1.030665
    117          1           0       13.119779   -1.538780   -0.934155
    118          1           0       12.883997    0.060059   -1.409548
    119          1           0       13.726493    0.794520    0.822520
    120          1           0       14.174794   -0.801742    1.189707
    121          1           0       15.251017    0.439364   -1.205384
    122          1           0       16.085255   -2.203851   -0.089647
    123          1           0       15.020197   -1.952053   -1.642931
    124          1           0       16.629636   -1.606042   -1.815080
    125          1           0       16.223572    1.327300    0.887716
    126          1           0       16.765541   -0.316601    1.348713
    127          1           0       18.527809   -0.382952   -0.383548
    128          1           0       17.891692    1.033262   -1.265104
    129          1           0       18.317619    2.284889    0.958900
    130          1           0       18.772123    0.563634    1.488896
    131          1           0       20.477566    0.084620    0.133786
    132          1           0       19.862340    3.033423   -0.783804
    133          1           0       21.154598    2.320524   -1.734784
    134          1           0       19.730326    2.011328   -1.844615
    135          1           0       21.356557    1.250153    2.106919
    136          1           0       22.313801    1.806154    0.804317
    137          1           0       20.862496    2.848390    1.411078
 ---------------------------------------------------------------------

 SCF Done:  E(RCAM-B3LYP) =  -2932.61364363     A.U. after   17 cycles

 Excitation energies and oscillator strengths:

 Excited State   1:      Singlet-A      2.0409 eV  607.49 nm  f=0.2686  <S**2>=0.000
     240 -> 242       -0.13580
     240 -> 243        0.21571
     241 -> 242        0.64880
 This state for optimization and/or second-order correction.
 Total Energy, E(TD-HF/TD-KS) =  -2932.53864126
 Copying the excited state density for this state as the 1-particle RhoCI density.

 The electronic state is 1-A.
 Alpha  occ. eigenvalues --  -46.84032 -19.25963 -19.25938 -19.21801 -19.21121
 Alpha  occ. eigenvalues --  -19.20712 -14.41113 -14.39472 -14.39219 -14.38094
 Alpha  occ. eigenvalues --  -10.39839 -10.38874 -10.36187 -10.31549 -10.30843
 Alpha  occ. eigenvalues --  -10.30488 -10.30297 -10.30265 -10.29742 -10.29535
 Alpha  occ. eigenvalues --  -10.29052 -10.28986 -10.28840 -10.28822 -10.28539
 Alpha  occ. eigenvalues --  -10.28473 -10.28410 -10.28360 -10.28322 -10.28158
 Alpha  occ. eigenvalues --  -10.27906 -10.27415 -10.27395 -10.27358 -10.27280
 Alpha  occ. eigenvalues --  -10.27155 -10.27089 -10.26816 -10.26815 -10.26758
 Alpha  occ. eigenvalues --  -10.26750 -10.26512 -10.26508 -10.26318 -10.26198
 Alpha  occ. eigenvalues --  -10.26141 -10.26082 -10.26060 -10.25893 -10.25806
 Alpha  occ. eigenvalues --  -10.25757 -10.25729 -10.25400 -10.25350 -10.25286
 Alpha  occ. eigenvalues --  -10.25170 -10.25102 -10.24986 -10.24708 -10.24593
 Alpha  occ. eigenvalues --  -10.24513 -10.24435 -10.24421 -10.24316 -10.22501
 Alpha  occ. eigenvalues --   -3.13047  -1.87762  -1.87281  -1.87227  -1.19233
 Alpha  occ. eigenvalues --   -1.17512  -1.14519  -1.10114  -1.07795  -1.05499
 Alpha  occ. eigenvalues --   -1.04705  -1.03793  -1.01449  -0.93182  -0.91282
 Alpha  occ. eigenvalues --   -0.90949  -0.90119  -0.89653  -0.89367  -0.88861
 Alpha  occ. eigenvalues --   -0.88741  -0.88307  -0.87562  -0.86802  -0.85856
 Alpha  occ. eigenvalues --   -0.84875  -0.84436  -0.84052  -0.83185  -0.82581
 Alpha  occ. eigenvalues --   -0.81550  -0.81210  -0.80403  -0.80029  -0.77987
 Alpha  occ. eigenvalues --   -0.77666  -0.77409  -0.77335  -0.76163  -0.76042
 Alpha  occ. eigenvalues --   -0.74980  -0.74604  -0.74279  -0.73243  -0.72547
 Alpha  occ. eigenvalues --   -0.71904  -0.70238  -0.69368  -0.68970  -0.68098
 Alpha  occ. eigenvalues --   -0.67439  -0.66758  -0.66131  -0.65304  -0.64821
 Alpha  occ. eigenvalues --   -0.64288  -0.63806  -0.63556  -0.62893  -0.62139
 Alpha  occ. eigenvalues --   -0.61991  -0.61392  -0.61111  -0.60052  -0.59783
 Alpha  occ. eigenvalues --   -0.58795  -0.58644  -0.58098  -0.57401  -0.56898
 Alpha  occ. eigenvalues --   -0.56300  -0.56063  -0.55640  -0.55354  -0.55173
 Alpha  occ. eigenvalues --   -0.54919  -0.54800  -0.54199  -0.53930  -0.53458
 Alpha  occ. eigenvalues --   -0.53088  -0.52419  -0.52148  -0.51937  -0.51780
 Alpha  occ. eigenvalues --   -0.51535  -0.51060  -0.50908  -0.50873  -0.50794
 Alpha  occ. eigenvalues --   -0.50250  -0.50208  -0.50045  -0.49917  -0.49449
 Alpha  occ. eigenvalues --   -0.49360  -0.49266  -0.49094  -0.48987  -0.48376
 Alpha  occ. eigenvalues --   -0.48267  -0.48066  -0.47957  -0.47810  -0.47143
 Alpha  occ. eigenvalues --   -0.47070  -0.46733  -0.46678  -0.46328  -0.46218
 Alpha  occ. eigenvalues --   -0.46023  -0.45841  -0.45541  -0.45443  -0.45169
 Alpha  occ. eigenvalues --   -0.45042  -0.44974  -0.44628  -0.44450  -0.44142
 Alpha  occ. eigenvalues --   -0.43902  -0.43686  -0.43654  -0.43405  -0.42822
 Alpha  occ. eigenvalues --   -0.42790  -0.42598  -0.42431  -0.42287  -0.41848
 Alpha  occ. eigenvalues --   -0.41629  -0.41235  -0.41207  -0.40640  -0.40482
 Alpha  occ. eigenvalues --   -0.40354  -0.40245  -0.40212  -0.40055  -0.39964
 Alpha  occ. eigenvalues --   -0.39888  -0.39534  -0.39508  -0.39305  -0.39226
 Alpha  occ. eigenvalues --   -0.39038  -0.38763  -0.38371  -0.38270  -0.37836
 Alpha  occ. eigenvalues --   -0.37545  -0.37246  -0.37035  -0.36740  -0.36565
 Alpha  occ. eigenvalues --   -0.36382  -0.36332  -0.36199  -0.35373  -0.34996
 Alpha  occ. eigenvalues --   -0.34958  -0.34531  -0.34256  -0.33982  -0.33811
 Alpha  occ. eigenvalues --   -0.33494  -0.33276  -0.32043  -0.31587  -0.30171
 Alpha  occ. eigenvalues --   -0.29458  -0.29049  -0.27853  -0.27133  -0.23571
 Alpha  occ. eigenvalues --   -0.21705
 Alpha virt. eigenvalues --   -0.07154  -0.03613   0.02579   0.04129   0.04376
 Alpha virt. eigenvalues --    0.05072   0.05879   0.06103   0.07115   0.07145
 Alpha virt. eigenvalues --    0.08361   0.10451   0.11237   0.11447   0.11669

 Mulliken charges:
               1
     1  Mg   0.808469
     2  C    0.082143
     3  C   -0.218992
     4  C   -0.122731
     5  C   -0.177160
     6  N   -0.669587
     7  C    0.306263
     8  C   -0.155972
     9  C   -0.151987
    10  C    0.423765
    11  C   -0.320627
    12  C   -0.168377
    13  C   -0.280280
    14  C    0.613509
    15  O   -0.486707
    16  O   -0.466979
    17  N   -0.729417
    18  C    0.300819
    19  C    0.026581
    20  C   -0.005856
    21  C    0.280013
    22  C   -0.368190
    23  C   -0.087130
    24  C   -0.253858
    25  N   -0.673481
    26  C    0.352330
    27  C   -0.036948
    28  C    0.037681
    29  C    0.233773
    30  C   -0.354260
    31  C   -0.233507
    32  C   -0.288240
    33  N   -0.737838
    34  C    0.263653
    35  C    0.002603
    36  C    0.015237
    37  C    0.330907
    38  C   -0.378161
    39  C    0.362000
    40  O   -0.409353
    41  C   -0.352822
    42  C    0.661694
    43  O   -0.481803
    44  O   -0.444909
    45  C   -0.069481
    46  C    0.010384
    47  C   -0.128584
    48  C    0.083566
    49  C   -0.342308
    50  C   -0.203625
    51  C   -0.170811
    52  C   -0.183027
    53  C   -0.043609
    54  C   -0.299470
    55  C   -0.174362
    56  C   -0.206728
    57  C   -0.181051
    58  C   -0.050125
    59  C   -0.313468
    60  C   -0.154510
    61  C   -0.175671
    62  C   -0.163496
    63  C   -0.062135
    64  C   -0.311569
    65  C   -0.281291
    66  H    0.078425
    67  H    0.075742
    68  H    0.096774
    69  H    0.123867
    70  H    0.103136
    71  H    0.092755
    72  H    0.110464
    73  H    0.133701
    74  H    0.129317
    75  H    0.119513
    76  H    0.138873
    77  H    0.136032
    78  H    0.132829
    79  H    0.108373
    80  H    0.089369
    81  H    0.095431
    82  H    0.102012
    83  H    0.111690
    84  H    0.133921
    85  H    0.113139
    86  H    0.128958
    87  H    0.090410
    88  H    0.110026
    89  H    0.117591
    90  H    0.121089
    91  H    0.083648
    92  H    0.105880
    93  H    0.145130
    94  H    0.115709
    95  H    0.152877
    96  H    0.067433
    97  H    0.134520
    98  H    0.128036
    99  H    0.102063
   100  H    0.121307
   101  H    0.092634
   102  H    0.125019
   103  H    0.119790
   104  H    0.114890
   105  H    0.106591
   106  H    0.058711
   107  H    0.101008
   108  H    0.090655
   109  H    0.084747
   110  H    0.095698
   111  H    0.093144
   112  H    0.079611
   113  H    0.113487
   114  H    0.097207
   115  H    0.069321
   116  H    0.083376
   117  H    0.093038
   118  H    0.096148
   119  H    0.091560
   120  H    0.104685
   121  H    0.095390
   122  H    0.095105
   123  H    0.082088
   124  H    0.096427
   125  H    0.076561
   126  H    0.077541
   127  H    0.079159
   128  H    0.087926
   129  H    0.059017
   130  H    0.099197
   131  H    0.062210
   132  H    0.109664
   133  H    0.100278
   134  H    0.102704
   135  H    0.088085
   136  H    0.087303
   137  H    0.115085
 Sum of Mulliken charges =   0.00000

 Dipole moment (field-independent basis, Debye):
    X=             -0.1656    Y=              4.3480    Z=              0.0774  Tot=              4.3518
 Quadrupole moment (field-independent basis, Debye-Ang):
   XX=           -336.6449   YY=           -394.1807   ZZ=           -397.0872
   XY=            -15.3771   XZ=              1.2111   YZ=             -0.7764

 Normal termination of Gaussian 09 at Wed Jul  3 08:09:00 2019.
