 Gaussian 16, Revision A.03,
 Gaussian 16:  ES64L-G16RevA.03 25-Dec-2016

 ----------------------------------------------------------------------
 # td=(NStates=1) iop(3/107=0140000000,3/108=0140000000) CAM-B3LYP/6-31
 G(d,p)
 ----------------------------------------------------------------------

 --
 TD
 --
 Symbolic Z-matrix:
 Charge =  0 Multiplicity = 1

                         Standard orientation:
 ---------------------------------------------------------------------
 Center     Atomic      Atomic             Coordinates (Angstroms)
 Number     Number       Type             X           Y           Z
 ---------------------------------------------------------------------
      1         12           0       -7.171912    0.725708    0.067204
      2          6           0       -4.873695   -2.024083    0.454892
      3          6           0       -4.740263    2.804215    1.125869
      4          6           0       -9.317993    3.064813   -0.438238
      5          6           0       -9.537274   -1.750863   -0.799742
      6          7           0       -5.063693    0.364996    0.727238
      7          6           0       -4.372504   -0.809264    0.840564
      8          6           0       -2.852714   -0.490311    1.333651
      9          6           0       -2.912296    0.980262    1.635003
     10          6           0       -4.332004    1.370199    1.133461
     11          6           0       -2.782609    1.225150    3.192024
     12          6           0       -1.896231   -0.628911    0.027760
     13          6           0       -0.457611   -0.485520    0.448234
     14          6           0        0.519381   -0.630580   -0.701947
     15          8           0        0.257865   -1.095115   -1.783096
     16          8           0        1.754795   -0.390652   -0.233755
     17          7           0       -7.109625    2.640932    0.337034
     18          6           0       -5.930748    3.319183    0.734320
     19          6           0       -6.270476    4.730435    0.771889
     20          6           0       -7.633074    4.850016    0.336984
     21          6           0       -8.058933    3.491857    0.016201
     22          6           0       -5.447752    5.829114    1.275782
     23          6           0       -8.471468    6.064541    0.205413
     24          6           0       -8.269853    7.260423    0.766695
     25          7           0       -9.141300    0.692382   -0.492752
     26          6           0       -9.893253    1.826723   -0.719033
     27          6           0      -11.165136    1.543201   -1.145900
     28          6           0      -11.195345    0.159931   -1.224333
     29          6           0       -9.952323   -0.293204   -0.883936
     30          6           0      -12.213565    2.537987   -1.461127
     31          6           0      -12.439913   -0.674855   -1.675492
     32          6           0      -12.342528   -1.184605   -3.116688
     33          7           0       -7.268332   -1.403771   -0.045742
     34          6           0       -8.261509   -2.184525   -0.407079
     35          6           0       -7.859637   -3.533909   -0.410227
     36          6           0       -6.531629   -3.512789   -0.050972
     37          6           0       -6.150066   -2.199498    0.119808
     38          6           0       -8.602140   -4.756924   -0.783077
     39          6           0       -5.299326   -4.358266    0.154982
     40          8           0       -5.238736   -5.550274    0.160671
     41          6           0       -4.168949   -3.354203    0.583396
     42          6           0       -3.501709   -3.631855    1.883111
     43          8           0       -3.669776   -3.034568    2.878215
     44          8           0       -2.708631   -4.687360    1.801065
     45          6           0       -2.186433   -5.211852    2.942891
     46          6           0        2.808955   -0.751933   -1.184227
     47          6           0        4.129226   -0.489641   -0.557581
     48          6           0        5.122062    0.398559   -1.074019
     49          6           0        5.093373    1.038593   -2.302639
     50          6           0        6.455679    0.458510   -0.362387
     51          6           0        7.590980   -0.254578   -0.970358
     52          6           0        8.878800   -0.114405   -0.167722
     53          6           0       10.121050   -0.518468   -0.883322
     54          6           0       10.100795   -1.984369   -1.431711
     55          6           0       11.388235   -0.319915   -0.098957
     56          6           0       12.732800   -0.568561   -0.760500
     57          6           0       13.860328   -0.035193    0.173047
     58          6           0       15.272766   -0.309869   -0.485188
     59          6           0       15.644483   -1.845464   -0.728780
     60          6           0       16.292262    0.300046    0.433457
     61          6           0       17.704728    0.503147   -0.151858
     62          6           0       18.680495    1.136542    0.747976
     63          6           0       20.079835    1.505990    0.293685
     64          6           0       20.261533    2.366508   -1.022238
     65          6           0       21.036643    2.053009    1.404427
     66          1           0       -3.967908    3.536024    1.472115
     67          1           0       -9.877463    3.832738   -0.658549
     68          1           0      -10.247972   -2.588921   -1.202578
     69          1           0       -2.581046   -1.216243    2.090646
     70          1           0       -2.137357    1.611963    1.275330
     71          1           0       -1.876622    1.010734    3.594066
     72          1           0       -2.915410    2.256311    3.578954
     73          1           0       -3.534848    0.543592    3.702383
     74          1           0       -1.972779   -1.638519   -0.503298
     75          1           0       -2.167007    0.142088   -0.728833
     76          1           0       -0.252119    0.407992    1.044043
     77          1           0       -0.085515   -1.325260    1.207995
     78          1           0       -5.615503    6.831684    0.720095
     79          1           0       -5.712064    5.878420    2.346789
     80          1           0       -4.324769    5.521348    1.245658
     81          1           0       -9.180204    5.791660   -0.478600
     82          1           0       -8.771090    8.128148    0.476153
     83          1           0       -7.480547    7.511394    1.677054
     84          1           0      -11.959080    3.221692   -2.442776
     85          1           0      -13.265850    2.053531   -1.669689
     86          1           0      -12.295287    3.381791   -0.637407
     87          1           0      -12.632484   -1.342804   -0.950166
     88          1           0      -13.401641   -0.100604   -1.482350
     89          1           0      -13.136710   -1.744902   -3.348120
     90          1           0      -12.212080   -0.194449   -3.810988
     91          1           0      -11.398326   -1.728248   -3.279447
     92          1           0       -8.835087   -4.761173   -1.913783
     93          1           0       -8.067920   -5.583929   -0.568321
     94          1           0       -9.801117   -4.833441   -0.237946
     95          1           0       -3.422046   -3.579470   -0.326704
     96          1           0       -1.351079   -4.676306    3.330087
     97          1           0       -2.997440   -5.460576    3.815494
     98          1           0       -1.685915   -6.145388    2.821919
     99          1           0        2.504407   -1.772025   -1.540533
    100          1           0        2.471795   -0.160818   -2.228002
    101          1           0        4.510535   -1.150265    0.323392
    102          1           0        4.236093    1.127933   -2.945324
    103          1           0        5.323140    2.053966   -2.415910
    104          1           0        5.829117    0.662723   -3.065824
    105          1           0        6.747530    1.581760   -0.339328
    106          1           0        6.179075    0.267755    0.853840
    107          1           0        7.291567   -1.320905   -1.388199
    108          1           0        7.894652    0.149847   -1.906244
    109          1           0        8.850546    0.977004    0.098371
    110          1           0        8.879455   -0.517601    0.906708
    111          1           0       10.083793    0.093770   -1.715213
    112          1           0        9.073345   -1.767085   -2.049201
    113          1           0       10.927500   -2.283017   -2.241367
    114          1           0        9.991158   -2.655113   -0.540811
    115          1           0       11.416558    0.607448    0.363113
    116          1           0       11.269758   -0.838830    0.844918
    117          1           0       12.815224   -1.615679   -0.883396
    118          1           0       12.591309    0.039011   -1.624750
    119          1           0       13.630387    0.920817    0.269780
    120          1           0       13.749645   -0.420327    1.104077
    121          1           0       15.228519    0.213279   -1.439081
    122          1           0       15.958924   -2.302941    0.295204
    123          1           0       14.817944   -2.326764   -1.303630
    124          1           0       16.646976   -1.907773   -1.129776
    125          1           0       16.128954    1.505375    0.805248
    126          1           0       16.329947   -0.262455    1.383933
    127          1           0       18.029284   -0.553242   -0.379847
    128          1           0       17.688524    0.984326   -1.003743
    129          1           0       18.215003    2.011866    0.839472
    130          1           0       18.835509    0.812670    1.531886
    131          1           0       20.408311    0.445421   -0.050853
    132          1           0       19.862648    3.567045   -0.787281
    133          1           0       21.299020    2.541059   -1.124697
    134          1           0       19.855121    1.852252   -1.912066
    135          1           0       20.808747    1.446602    2.195452
    136          1           0       21.997738    2.108531    1.114102
    137          1           0       20.643290    2.973721    1.637186
 ---------------------------------------------------------------------

 SCF Done:  E(RCAM-B3LYP) =  -2933.44417075     A.U. after   16 cycles

 Excitation energies and oscillator strengths:

 Excited State   1:      Singlet-A      2.0904 eV  593.12 nm  f=0.1763  <S**2>=0.000
     240 -> 242       -0.10674
     240 -> 243        0.26658
     241 -> 242        0.63372
     241 -> 243        0.10586
 This state for optimization and/or second-order correction.
 Total Energy, E(TD-HF/TD-DFT) =  -2933.36735038
 Copying the excited state density for this state as the 1-particle RhoCI density.

 The electronic state is 1-A.
 Alpha  occ. eigenvalues --  -46.79990 -19.22701 -19.21548 -19.17042 -19.16751
 Alpha  occ. eigenvalues --  -19.16734 -14.38246 -14.34478 -14.34250 -14.33718
 Alpha  occ. eigenvalues --  -10.34841 -10.33937 -10.30975 -10.28585 -10.27237
 Alpha  occ. eigenvalues --  -10.27081 -10.26198 -10.25077 -10.25025 -10.24429
 Alpha  occ. eigenvalues --  -10.24321 -10.23998 -10.23924 -10.23903 -10.23808
 Alpha  occ. eigenvalues --  -10.23633 -10.23613 -10.23602 -10.23504 -10.23459
 Alpha  occ. eigenvalues --  -10.23058 -10.23021 -10.22948 -10.22629 -10.22623
 Alpha  occ. eigenvalues --  -10.22502 -10.22479 -10.22451 -10.22421 -10.22402
 Alpha  occ. eigenvalues --  -10.22382 -10.22282 -10.22227 -10.22128 -10.21992
 Alpha  occ. eigenvalues --  -10.21865 -10.21863 -10.21777 -10.21512 -10.21441
 Alpha  occ. eigenvalues --  -10.21275 -10.20912 -10.20870 -10.20868 -10.20787
 Alpha  occ. eigenvalues --  -10.20758 -10.20726 -10.20515 -10.20120 -10.19708
 Alpha  occ. eigenvalues --  -10.19206 -10.18865 -10.18822 -10.18216 -10.16417
 Alpha  occ. eigenvalues --   -3.08561  -1.83498  -1.83044  -1.82951  -1.16449
 Alpha  occ. eigenvalues --   -1.13058  -1.07812  -1.07268  -1.04548  -1.00304
 Alpha  occ. eigenvalues --   -0.99358  -0.98912  -0.97777  -0.88919  -0.87421
 Alpha  occ. eigenvalues --   -0.86090  -0.85572  -0.84719  -0.83825  -0.83526
 Alpha  occ. eigenvalues --   -0.83218  -0.82661  -0.82161  -0.81419  -0.81169
 Alpha  occ. eigenvalues --   -0.80644  -0.80089  -0.78928  -0.78527  -0.77637
 Alpha  occ. eigenvalues --   -0.77215  -0.76705  -0.76324  -0.75674  -0.73277
 Alpha  occ. eigenvalues --   -0.72921  -0.72131  -0.71750  -0.71469  -0.71174
 Alpha  occ. eigenvalues --   -0.70788  -0.70425  -0.70120  -0.68730  -0.67743
 Alpha  occ. eigenvalues --   -0.67422  -0.66314  -0.65693  -0.64833  -0.63979
 Alpha  occ. eigenvalues --   -0.63103  -0.62872  -0.61706  -0.61382  -0.60970
 Alpha  occ. eigenvalues --   -0.60297  -0.59750  -0.59115  -0.58702  -0.58103
 Alpha  occ. eigenvalues --   -0.57899  -0.57302  -0.57017  -0.56077  -0.55622
 Alpha  occ. eigenvalues --   -0.54733  -0.54131  -0.53820  -0.53543  -0.52806
 Alpha  occ. eigenvalues --   -0.52506  -0.51993  -0.51899  -0.51621  -0.51578
 Alpha  occ. eigenvalues --   -0.51199  -0.51090  -0.50572  -0.49847  -0.49428
 Alpha  occ. eigenvalues --   -0.49138  -0.48741  -0.48580  -0.48313  -0.48146
 Alpha  occ. eigenvalues --   -0.47778  -0.47624  -0.47551  -0.47026  -0.46966
 Alpha  occ. eigenvalues --   -0.46795  -0.46528  -0.46375  -0.46301  -0.45960
 Alpha  occ. eigenvalues --   -0.45850  -0.45573  -0.45320  -0.45173  -0.44811
 Alpha  occ. eigenvalues --   -0.44666  -0.44210  -0.44156  -0.43960  -0.43651
 Alpha  occ. eigenvalues --   -0.43113  -0.42940  -0.42861  -0.42667  -0.42483
 Alpha  occ. eigenvalues --   -0.42313  -0.42260  -0.42197  -0.41931  -0.41793
 Alpha  occ. eigenvalues --   -0.41687  -0.41590  -0.41216  -0.40892  -0.40803
 Alpha  occ. eigenvalues --   -0.40495  -0.40353  -0.40278  -0.40188  -0.40117
 Alpha  occ. eigenvalues --   -0.40060  -0.39779  -0.39638  -0.39531  -0.39295
 Alpha  occ. eigenvalues --   -0.38828  -0.38727  -0.38432  -0.38268  -0.38005
 Alpha  occ. eigenvalues --   -0.37841  -0.37628  -0.37500  -0.37124  -0.37047
 Alpha  occ. eigenvalues --   -0.36915  -0.36829  -0.36523  -0.36226  -0.36147
 Alpha  occ. eigenvalues --   -0.35978  -0.35717  -0.35268  -0.35081  -0.34806
 Alpha  occ. eigenvalues --   -0.34628  -0.34277  -0.34085  -0.33980  -0.33743
 Alpha  occ. eigenvalues --   -0.33378  -0.33282  -0.32822  -0.32800  -0.32374
 Alpha  occ. eigenvalues --   -0.32039  -0.31759  -0.31321  -0.31079  -0.30660
 Alpha  occ. eigenvalues --   -0.30444  -0.30128  -0.29919  -0.28373  -0.27019
 Alpha  occ. eigenvalues --   -0.26436  -0.26379  -0.25315  -0.24215  -0.21514
 Alpha  occ. eigenvalues --   -0.19379
 Alpha virt. eigenvalues --   -0.06137  -0.04528  -0.00053   0.01251   0.02350
 Alpha virt. eigenvalues --    0.03859   0.04272   0.04644   0.05336   0.06139
 Alpha virt. eigenvalues --    0.07108   0.09426   0.09825   0.10120   0.10338

 Mulliken charges:
               1
     1  Mg   0.832490
     2  C    0.072161
     3  C   -0.214071
     4  C   -0.172351
     5  C   -0.182047
     6  N   -0.606404
     7  C    0.259938
     8  C   -0.147625
     9  C   -0.133253
    10  C    0.347630
    11  C   -0.328236
    12  C   -0.174233
    13  C   -0.260288
    14  C    0.609288
    15  O   -0.474620
    16  O   -0.460717
    17  N   -0.779720
    18  C    0.354998
    19  C    0.008304
    20  C   -0.009743
    21  C    0.342567
    22  C   -0.387242
    23  C   -0.017740
    24  C   -0.267570
    25  N   -0.699478
    26  C    0.308376
    27  C    0.108114
    28  C   -0.021338
    29  C    0.293666
    30  C   -0.385711
    31  C   -0.229975
    32  C   -0.296029
    33  N   -0.738854
    34  C    0.343633
    35  C    0.004185
    36  C    0.013797
    37  C    0.300898
    38  C   -0.365682
    39  C    0.363764
    40  O   -0.431840
    41  C   -0.332209
    42  C    0.632580
    43  O   -0.448776
    44  O   -0.406370
    45  C   -0.090540
    46  C   -0.001452
    47  C   -0.129620
    48  C    0.153313
    49  C   -0.396719
    50  C   -0.231165
    51  C   -0.169833
    52  C   -0.166502
    53  C   -0.068994
    54  C   -0.285240
    55  C   -0.189629
    56  C   -0.184646
    57  C   -0.169555
    58  C   -0.049652
    59  C   -0.325132
    60  C   -0.161048
    61  C   -0.179706
    62  C   -0.097554
    63  C   -0.090655
    64  C   -0.297291
    65  C   -0.315128
    66  H    0.077747
    67  H    0.032741
    68  H    0.092285
    69  H    0.127067
    70  H    0.111121
    71  H    0.119294
    72  H    0.100309
    73  H    0.118103
    74  H    0.109625
    75  H    0.115857
    76  H    0.126570
    77  H    0.120656
    78  H    0.123438
    79  H    0.136889
    80  H    0.093616
    81  H    0.087489
    82  H    0.106466
    83  H    0.089822
    84  H    0.098801
    85  H    0.108315
    86  H    0.109419
    87  H    0.115560
    88  H    0.084869
    89  H    0.116937
    90  H    0.088445
    91  H    0.111463
    92  H    0.117945
    93  H    0.148909
    94  H    0.072144
    95  H    0.154590
    96  H    0.114507
    97  H    0.104712
    98  H    0.125427
    99  H    0.131965
   100  H    0.103842
   101  H    0.092989
   102  H    0.118907
   103  H    0.124333
   104  H    0.122138
   105  H    0.089573
   106  H    0.078809
   107  H    0.096257
   108  H    0.108590
   109  H    0.091814
   110  H    0.079164
   111  H    0.085507
   112  H    0.070869
   113  H    0.097831
   114  H    0.106324
   115  H    0.080031
   116  H    0.075713
   117  H    0.101868
   118  H    0.095282
   119  H    0.102953
   120  H    0.095717
   121  H    0.085178
   122  H    0.089018
   123  H    0.109437
   124  H    0.117115
   125  H    0.037420
   126  H    0.090130
   127  H    0.064042
   128  H    0.103511
   129  H    0.088349
   130  H    0.068878
   131  H    0.058547
   132  H    0.050219
   133  H    0.111564
   134  H    0.104388
   135  H    0.106333
   136  H    0.114300
   137  H    0.112431
 Sum of Mulliken charges =  -0.00000

 Dipole moment (field-independent basis, Debye):
    X=              3.8618    Y=              3.4612    Z=              0.0600  Tot=              5.1862
 Quadrupole moment (field-independent basis, Debye-Ang):
   XX=           -361.6967   YY=           -394.6277   ZZ=           -394.3229
   XY=            -13.0493   XZ=             12.3955   YZ=             -3.5631

 Normal termination of Gaussian 16 at Sat Sep 14 00:54:05 2019.
