 Gaussian 09, Revision D.01,
 Gaussian 09:  ES64L-G09RevD.01 24-Apr-2013

 -------------------------------------
 # td=(NStates=1) CAM-B3LYP/6-31G(d,p)
 -------------------------------------

 --
 TD
 --
 Symbolic Z-matrix:
 Charge =  0 Multiplicity = 1

                         Standard orientation:
 ---------------------------------------------------------------------
 Center     Atomic      Atomic             Coordinates (Angstroms)
 Number     Number       Type             X           Y           Z
 ---------------------------------------------------------------------
      1         12           0       -7.030351    0.561035   -0.016477
      2          6           0       -4.843380   -1.885204    0.550450
      3          6           0       -4.839957    2.851881    1.195985
      4          6           0       -9.451020    3.098463   -0.403387
      5          6           0       -9.431465   -1.749137   -0.952649
      6          7           0       -5.166197    0.511963    0.819277
      7          6           0       -4.379653   -0.663206    0.767824
      8          6           0       -2.857778   -0.323904    1.253391
      9          6           0       -3.108900    1.154680    1.642260
     10          6           0       -4.407620    1.519681    1.167782
     11          6           0       -2.936144    1.364216    3.190816
     12          6           0       -1.925920   -0.536818    0.105076
     13          6           0       -0.497713   -0.421219    0.536091
     14          6           0        0.557124   -0.620626   -0.585789
     15          8           0        0.219055   -1.093542   -1.694477
     16          8           0        1.760767   -0.413986   -0.255622
     17          7           0       -7.108418    2.661659    0.282832
     18          6           0       -6.073864    3.377945    0.694850
     19          6           0       -6.366868    4.761623    0.678797
     20          6           0       -7.708990    4.874430    0.247617
     21          6           0       -8.140975    3.506189    0.025271
     22          6           0       -5.581970    5.935010    1.098954
     23          6           0       -8.579317    6.037628    0.091905
     24          6           0       -8.617875    7.063029    0.909550
     25          7           0       -9.092080    0.663027   -0.570048
     26          6           0       -9.887081    1.742901   -0.643516
     27          6           0      -11.113682    1.420645   -1.250776
     28          6           0      -11.199835   -0.002929   -1.261805
     29          6           0       -9.854992   -0.459014   -0.969971
     30          6           0      -12.237432    2.348610   -1.353675
     31          6           0      -12.373888   -0.852884   -1.663534
     32          6           0      -12.440414   -1.265713   -3.206717
     33          7           0       -7.162028   -1.431925   -0.185747
     34          6           0       -8.183860   -2.267370   -0.548293
     35          6           0       -7.794134   -3.641864   -0.430168
     36          6           0       -6.444669   -3.569964   -0.110880
     37          6           0       -6.143818   -2.237663    0.058848
     38          6           0       -8.651163   -4.869320   -0.768758
     39          6           0       -5.326703   -4.355271    0.265331
     40          8           0       -5.091418   -5.560611    0.328310
     41          6           0       -4.132550   -3.264617    0.647393
     42          6           0       -3.441711   -3.624365    1.935017
     43          8           0       -3.875581   -3.030641    2.920313
     44          8           0       -2.564602   -4.604886    1.874518
     45          6           0       -2.018338   -4.971082    3.122194
     46          6           0        2.821689   -0.647460   -1.163563
     47          6           0        4.118200   -0.462885   -0.535743
     48          6           0        5.134246    0.281966   -1.122717
     49          6           0        4.972824    1.072363   -2.403340
     50          6           0        6.325808    0.383516   -0.352789
     51          6           0        7.565002   -0.213533   -1.075008
     52          6           0        8.918223   -0.058134   -0.159152
     53          6           0       10.097619   -0.544425   -0.841847
     54          6           0       10.207010   -2.090211   -1.234929
     55          6           0       11.509513   -0.199952   -0.080368
     56          6           0       12.774299   -0.408327   -0.727284
     57          6           0       13.967534   -0.040330    0.178969
     58          6           0       15.305528   -0.150433   -0.461281
     59          6           0       15.562423   -1.602412   -0.963926
     60          6           0       16.405232    0.432906    0.439335
     61          6           0       17.849124    0.422379   -0.148144
     62          6           0       18.774233    1.301643    0.768226
     63          6           0       20.269750    1.362882    0.246148
     64          6           0       20.353945    2.157804   -1.026552
     65          6           0       21.153058    1.959060    1.350987
     66          1           0       -4.146649    3.612574    1.542044
     67          1           0      -10.312311    3.855779   -0.599028
     68          1           0      -10.105860   -2.602731   -1.253720
     69          1           0       -2.562472   -1.016109    2.098055
     70          1           0       -2.204630    1.444446    0.960879
     71          1           0       -1.959899    1.071722    3.630840
     72          1           0       -3.007116    2.321382    3.565642
     73          1           0       -3.724524    0.739373    3.592751
     74          1           0       -2.373939   -1.349833   -0.543814
     75          1           0       -2.137764    0.022716   -0.808676
     76          1           0       -0.345081    0.535458    0.899625
     77          1           0       -0.271370   -1.066312    1.363173
     78          1           0       -6.036232    6.906205    0.678268
     79          1           0       -5.506901    6.008921    2.175143
     80          1           0       -4.544849    5.788553    0.689573
     81          1           0       -9.247409    6.047277   -0.638810
     82          1           0       -9.493867    7.770982    0.900075
     83          1           0       -8.149986    7.198799    1.799350
     84          1           0      -12.239937    3.051006   -2.337034
     85          1           0      -13.309143    1.822810   -1.299367
     86          1           0      -12.214017    3.024925   -0.564391
     87          1           0      -12.377116   -1.746965   -1.114329
     88          1           0      -13.168184   -0.292846   -1.410600
     89          1           0      -13.443303   -1.820672   -3.417387
     90          1           0      -12.318660   -0.376312   -3.649682
     91          1           0      -11.452681   -1.752565   -3.492227
     92          1           0       -9.073296   -4.783917   -1.839332
     93          1           0       -7.893702   -5.616916   -0.644757
     94          1           0       -9.456957   -5.092315    0.160571
     95          1           0       -3.410889   -3.791170   -0.083504
     96          1           0       -1.598911   -4.155365    3.729684
     97          1           0       -2.647548   -5.212047    3.917090
     98          1           0       -1.256628   -5.737215    3.110800
     99          1           0        2.633061   -1.689235   -1.461347
    100          1           0        2.608769   -0.047497   -2.082933
    101          1           0        4.471953   -1.155241    0.230680
    102          1           0        3.909102    1.375016   -2.469895
    103          1           0        5.567832    1.962235   -2.110951
    104          1           0        5.223265    0.482166   -3.352745
    105          1           0        6.693749    1.420469    0.054345
    106          1           0        6.328127   -0.390026    0.434881
    107          1           0        7.495549   -1.351538   -1.336579
    108          1           0        7.698406    0.191353   -2.088871
    109          1           0        8.987799    0.831843    0.171262
    110          1           0        8.706941   -0.868698    0.535597
    111          1           0       10.074546   -0.028793   -1.786443
    112          1           0        9.220031   -2.181085   -1.905601
    113          1           0       11.161454   -2.564334   -1.612601
    114          1           0       10.054219   -2.534879   -0.288235
    115          1           0       11.435420    0.750927    0.316918
    116          1           0       11.297393   -0.720976    0.888435
    117          1           0       12.857368   -1.546477   -0.761502
    118          1           0       12.984085   -0.036335   -1.621929
    119          1           0       13.655275    1.013038    0.403722
    120          1           0       13.946644   -0.639755    1.268066
    121          1           0       15.121566    0.540883   -1.247198
    122          1           0       15.685312   -2.352826   -0.171680
    123          1           0       14.667306   -1.867624   -1.654552
    124          1           0       16.656218   -1.639275   -1.421628
    125          1           0       16.158837    1.364555    0.724645
    126          1           0       16.206004   -0.245545    1.238503
    127          1           0       18.146947   -0.621053   -0.163866
    128          1           0       17.809358    0.818902   -1.228266
    129          1           0       18.482469    2.304628    0.751841
    130          1           0       18.714541    0.749582    1.800455
    131          1           0       20.583060    0.332801    0.219999
    132          1           0       19.728798    2.995252   -1.044453
    133          1           0       21.459289    2.421299   -1.299365
    134          1           0       19.976927    1.399365   -1.846898
    135          1           0       21.059525    1.392598    2.286875
    136          1           0       22.185179    1.843506    0.969963
    137          1           0       20.926782    2.957907    1.598605
 ---------------------------------------------------------------------

 SCF Done:  E(RCAM-B3LYP) =  -2932.72110714     A.U. after   17 cycles

 Excitation energies and oscillator strengths:

 Excited State   1:      Singlet-A      2.1611 eV  573.72 nm  f=0.2101  <S**2>=0.000
     240 -> 243        0.24514
     241 -> 242        0.65129
 This state for optimization and/or second-order correction.
 Total Energy, E(TD-HF/TD-KS) =  -2932.64168964
 Copying the excited state density for this state as the 1-particle RhoCI density.

 The electronic state is 1-A.
 Alpha  occ. eigenvalues --  -46.84731 -19.28039 -19.27013 -19.19570 -19.19226
 Alpha  occ. eigenvalues --  -19.18840 -14.41480 -14.39078 -14.39040 -14.38948
 Alpha  occ. eigenvalues --  -10.38592 -10.38367 -10.34582 -10.32073 -10.30531
 Alpha  occ. eigenvalues --  -10.30467 -10.30075 -10.29880 -10.29800 -10.29011
 Alpha  occ. eigenvalues --  -10.28385 -10.28332 -10.28243 -10.28110 -10.28042
 Alpha  occ. eigenvalues --  -10.28007 -10.27833 -10.27742 -10.27680 -10.27396
 Alpha  occ. eigenvalues --  -10.27310 -10.27267 -10.27053 -10.26971 -10.26960
 Alpha  occ. eigenvalues --  -10.26941 -10.26756 -10.26738 -10.26624 -10.26606
 Alpha  occ. eigenvalues --  -10.26444 -10.26351 -10.26318 -10.26101 -10.25847
 Alpha  occ. eigenvalues --  -10.25783 -10.25724 -10.25716 -10.25664 -10.25652
 Alpha  occ. eigenvalues --  -10.25594 -10.25467 -10.25417 -10.25358 -10.25289
 Alpha  occ. eigenvalues --  -10.25234 -10.25232 -10.25122 -10.24996 -10.24536
 Alpha  occ. eigenvalues --  -10.24353 -10.24321 -10.24178 -10.23537 -10.23317
 Alpha  occ. eigenvalues --   -3.13682  -1.88395  -1.87906  -1.87867  -1.21049
 Alpha  occ. eigenvalues --   -1.19498  -1.09510  -1.08390  -1.06693  -1.05365
 Alpha  occ. eigenvalues --   -1.04811  -1.03967  -1.02363  -0.92687  -0.91653
 Alpha  occ. eigenvalues --   -0.91391  -0.90551  -0.89752  -0.89682  -0.88629
 Alpha  occ. eigenvalues --   -0.88538  -0.87929  -0.87756  -0.86925  -0.86724
 Alpha  occ. eigenvalues --   -0.85548  -0.84917  -0.83914  -0.83640  -0.82841
 Alpha  occ. eigenvalues --   -0.81830  -0.81429  -0.80601  -0.80284  -0.78281
 Alpha  occ. eigenvalues --   -0.77755  -0.76945  -0.76771  -0.76133  -0.75704
 Alpha  occ. eigenvalues --   -0.74931  -0.74776  -0.74756  -0.74046  -0.72732
 Alpha  occ. eigenvalues --   -0.72138  -0.71075  -0.70314  -0.69515  -0.68716
 Alpha  occ. eigenvalues --   -0.68035  -0.67436  -0.65905  -0.65351  -0.65104
 Alpha  occ. eigenvalues --   -0.64606  -0.64014  -0.63705  -0.63015  -0.62585
 Alpha  occ. eigenvalues --   -0.62102  -0.61413  -0.60600  -0.60420  -0.59442
 Alpha  occ. eigenvalues --   -0.58565  -0.58431  -0.58120  -0.57387  -0.56999
 Alpha  occ. eigenvalues --   -0.56258  -0.55675  -0.55370  -0.55199  -0.54997
 Alpha  occ. eigenvalues --   -0.54902  -0.54529  -0.54077  -0.53764  -0.53466
 Alpha  occ. eigenvalues --   -0.53339  -0.52969  -0.52394  -0.52148  -0.51998
 Alpha  occ. eigenvalues --   -0.51655  -0.51289  -0.51156  -0.50495  -0.50418
 Alpha  occ. eigenvalues --   -0.50308  -0.50013  -0.49946  -0.49737  -0.49509
 Alpha  occ. eigenvalues --   -0.49217  -0.49067  -0.48838  -0.48635  -0.48404
 Alpha  occ. eigenvalues --   -0.48106  -0.47829  -0.47457  -0.47199  -0.47106
 Alpha  occ. eigenvalues --   -0.46841  -0.46768  -0.46624  -0.46241  -0.46083
 Alpha  occ. eigenvalues --   -0.45909  -0.45754  -0.45338  -0.45217  -0.45086
 Alpha  occ. eigenvalues --   -0.44930  -0.44868  -0.44657  -0.44349  -0.44248
 Alpha  occ. eigenvalues --   -0.44102  -0.43904  -0.43843  -0.43413  -0.43229
 Alpha  occ. eigenvalues --   -0.43149  -0.42722  -0.42638  -0.42577  -0.42494
 Alpha  occ. eigenvalues --   -0.42327  -0.42101  -0.41974  -0.41755  -0.41410
 Alpha  occ. eigenvalues --   -0.41203  -0.41106  -0.40932  -0.40696  -0.40560
 Alpha  occ. eigenvalues --   -0.40454  -0.40201  -0.40136  -0.40047  -0.39898
 Alpha  occ. eigenvalues --   -0.39790  -0.39159  -0.38819  -0.38326  -0.37844
 Alpha  occ. eigenvalues --   -0.37675  -0.37610  -0.36658  -0.36177  -0.35979
 Alpha  occ. eigenvalues --   -0.35743  -0.35722  -0.35661  -0.35360  -0.35290
 Alpha  occ. eigenvalues --   -0.35020  -0.34330  -0.34250  -0.33192  -0.32729
 Alpha  occ. eigenvalues --   -0.32190  -0.32102  -0.31645  -0.31096  -0.29762
 Alpha  occ. eigenvalues --   -0.29199  -0.28830  -0.27777  -0.27257  -0.22940
 Alpha  occ. eigenvalues --   -0.21945
 Alpha virt. eigenvalues --   -0.06655  -0.02823   0.02094   0.03474   0.04426
 Alpha virt. eigenvalues --    0.05277   0.06165   0.07068   0.07290   0.07717
 Alpha virt. eigenvalues --    0.08874   0.10834   0.11140   0.11377   0.12189

 Mulliken charges:
               1
     1  Mg   0.830550
     2  C    0.150616
     3  C   -0.213578
     4  C   -0.189494
     5  C   -0.171631
     6  N   -0.653685
     7  C    0.203141
     8  C   -0.136234
     9  C   -0.156775
    10  C    0.406269
    11  C   -0.312947
    12  C   -0.201284
    13  C   -0.254218
    14  C    0.573407
    15  O   -0.515914
    16  O   -0.415688
    17  N   -0.707923
    18  C    0.346556
    19  C    0.013067
    20  C    0.005827
    21  C    0.302392
    22  C   -0.378681
    23  C   -0.072265
    24  C   -0.232147
    25  N   -0.684952
    26  C    0.319508
    27  C    0.024305
    28  C   -0.006794
    29  C    0.301508
    30  C   -0.388078
    31  C   -0.223881
    32  C   -0.310716
    33  N   -0.732989
    34  C    0.249444
    35  C    0.011482
    36  C    0.056551
    37  C    0.254233
    38  C   -0.365329
    39  C    0.333362
    40  O   -0.480375
    41  C   -0.348610
    42  C    0.649746
    43  O   -0.495617
    44  O   -0.423357
    45  C   -0.107763
    46  C    0.001318
    47  C   -0.131407
    48  C    0.130989
    49  C   -0.353573
    50  C   -0.237636
    51  C   -0.221977
    52  C   -0.148581
    53  C   -0.081529
    54  C   -0.315674
    55  C   -0.188586
    56  C   -0.159188
    57  C   -0.172591
    58  C   -0.066973
    59  C   -0.312300
    60  C   -0.159283
    61  C   -0.187996
    62  C   -0.169797
    63  C   -0.060710
    64  C   -0.299981
    65  C   -0.307032
    66  H    0.075548
    67  H    0.093675
    68  H    0.100725
    69  H    0.123602
    70  H    0.103123
    71  H    0.102815
    72  H    0.116637
    73  H    0.134650
    74  H    0.127028
    75  H    0.114222
    76  H    0.133352
    77  H    0.135813
    78  H    0.119419
    79  H    0.129753
    80  H    0.109135
    81  H    0.096951
    82  H    0.092255
    83  H    0.110481
    84  H    0.095332
    85  H    0.099904
    86  H    0.132301
    87  H    0.110753
    88  H    0.106730
    89  H    0.103168
    90  H    0.128766
    91  H    0.102606
    92  H    0.124582
    93  H    0.156636
    94  H    0.107043
    95  H    0.146481
    96  H    0.115094
    97  H    0.141216
    98  H    0.127237
    99  H    0.130784
   100  H    0.122056
   101  H    0.096656
   102  H    0.121944
   103  H    0.115880
   104  H    0.133741
   105  H    0.101551
   106  H    0.111623
   107  H    0.087538
   108  H    0.091480
   109  H    0.101398
   110  H    0.095462
   111  H    0.081436
   112  H    0.082895
   113  H    0.113590
   114  H    0.105553
   115  H    0.081192
   116  H    0.083052
   117  H    0.088744
   118  H    0.104827
   119  H    0.079680
   120  H    0.050158
   121  H    0.082942
   122  H    0.104760
   123  H    0.102073
   124  H    0.087983
   125  H    0.095104
   126  H    0.090087
   127  H    0.096204
   128  H    0.084526
   129  H    0.095574
   130  H    0.081081
   131  H    0.089758
   132  H    0.113057
   133  H    0.090929
   134  H    0.091110
   135  H    0.093761
   136  H    0.092445
   137  H    0.101800
 Sum of Mulliken charges =   0.00000

 Dipole moment (field-independent basis, Debye):
    X=              2.3965    Y=              5.3635    Z=              0.3778  Tot=              5.8867
 Quadrupole moment (field-independent basis, Debye-Ang):
   XX=           -340.2133   YY=           -396.4437   ZZ=           -396.1088
   XY=            -24.6681   XZ=             11.1987   YZ=             -1.5172

 Normal termination of Gaussian 09 at Sat Jul  6 09:18:33 2019.
