 Gaussian 16, Revision A.03,
 Gaussian 16:  ES64L-G16RevA.03 25-Dec-2016

 ----------------------------------------------------------------------
 # td=(NStates=1) iop(3/107=0140000000,3/108=0140000000) CAM-B3LYP/6-31
 G(d,p)
 ----------------------------------------------------------------------

 --
 TD
 --
 Symbolic Z-matrix:
 Charge =  0 Multiplicity = 1

                         Standard orientation:
 ---------------------------------------------------------------------
 Center     Atomic      Atomic             Coordinates (Angstroms)
 Number     Number       Type             X           Y           Z
 ---------------------------------------------------------------------
      1         12           0       -7.149513    0.621998   -0.112777
      2          6           0       -4.873428   -1.999058    0.474674
      3          6           0       -4.846261    2.891306    1.288357
      4          6           0       -9.359059    3.118032   -0.521057
      5          6           0       -9.577454   -1.795377   -0.852666
      6          7           0       -5.095729    0.469670    0.724463
      7          6           0       -4.373420   -0.742697    0.863925
      8          6           0       -2.973860   -0.400186    1.354421
      9          6           0       -3.061498    1.052997    1.790824
     10          6           0       -4.477505    1.547221    1.262880
     11          6           0       -2.931975    1.166424    3.368953
     12          6           0       -1.936511   -0.639588    0.237343
     13          6           0       -0.434050   -0.415511    0.642552
     14          6           0        0.596785   -0.692320   -0.415381
     15          8           0        0.203952   -1.080532   -1.520081
     16          8           0        1.761932   -0.546588   -0.022968
     17          7           0       -7.175443    2.670683    0.363068
     18          6           0       -6.106529    3.435017    0.845951
     19          6           0       -6.488057    4.869665    0.890506
     20          6           0       -7.695338    4.981014    0.388953
     21          6           0       -8.119111    3.574927    0.021385
     22          6           0       -5.483604    5.847401    1.196493
     23          6           0       -8.543391    6.088645    0.039185
     24          6           0       -8.400746    7.298166    0.661711
     25          7           0       -9.153248    0.720869   -0.598097
     26          6           0       -9.940615    1.884927   -0.743897
     27          6           0      -11.153827    1.525985   -1.266397
     28          6           0      -11.254981    0.163982   -1.353177
     29          6           0       -9.977636   -0.412907   -0.838324
     30          6           0      -12.235322    2.500764   -1.602857
     31          6           0      -12.351904   -0.739043   -1.775170
     32          6           0      -12.081893   -1.334139   -3.191834
     33          7           0       -7.259380   -1.357656   -0.194609
     34          6           0       -8.277477   -2.175926   -0.536635
     35          6           0       -7.853744   -3.607540   -0.502497
     36          6           0       -6.555922   -3.506883   -0.069839
     37          6           0       -6.195361   -2.197653    0.105355
     38          6           0       -8.746790   -4.824680   -0.861351
     39          6           0       -5.451897   -4.330855    0.220610
     40          8           0       -5.240509   -5.585689    0.206815
     41          6           0       -4.157186   -3.351407    0.542894
     42          6           0       -3.577715   -3.660637    1.895563
     43          8           0       -3.700635   -3.092353    2.916396
     44          8           0       -2.797246   -4.757240    1.727747
     45          6           0       -2.073865   -5.259214    2.856736
     46          6           0        2.783958   -0.854457   -1.083632
     47          6           0        4.136457   -0.537000   -0.619995
     48          6           0        5.108850    0.304966   -0.992729
     49          6           0        4.942590    1.175647   -2.158867
     50          6           0        6.393041    0.361194   -0.211604
     51          6           0        7.595216   -0.210563   -0.947511
     52          6           0        8.967671   -0.216697   -0.227259
     53          6           0       10.182080   -0.586388   -0.957374
     54          6           0       10.215692   -1.996480   -1.429081
     55          6           0       11.400229   -0.251324   -0.018630
     56          6           0       12.769169   -0.472247   -0.709865
     57          6           0       14.021041   -0.129135    0.248588
     58          6           0       15.302528   -0.208892   -0.543296
     59          6           0       15.749553   -1.548949   -0.902342
     60          6           0       16.513281    0.423527    0.377941
     61          6           0       17.927260    0.498800   -0.252673
     62          6           0       18.834752    1.234527    0.683546
     63          6           0       20.279858    1.410423    0.229224
     64          6           0       20.269110    2.173165   -1.102088
     65          6           0       21.136664    2.095507    1.230058
     66          1           0       -4.015122    3.540375    1.623356
     67          1           0      -10.097894    3.888524   -0.823460
     68          1           0      -10.354697   -2.424397   -0.769601
     69          1           0       -2.542612   -1.022390    2.174221
     70          1           0       -2.240963    1.683225    1.358835
     71          1           0       -1.898627    0.587846    3.653651
     72          1           0       -2.808632    2.254874    3.659702
     73          1           0       -3.913101    0.663379    3.815279
     74          1           0       -2.119706   -1.566652   -0.254614
     75          1           0       -2.217060    0.087508   -0.598964
     76          1           0       -0.355020    0.678664    1.001026
     77          1           0       -0.137105   -0.831956    1.541258
     78          1           0       -5.573534    6.721777    0.866288
     79          1           0       -5.601429    6.024078    2.253447
     80          1           0       -4.396279    5.509622    0.942984
     81          1           0       -9.197325    5.980029   -0.950895
     82          1           0       -8.851916    8.220301    0.165134
     83          1           0       -7.680542    7.458717    1.643503
     84          1           0      -11.936791    3.256405   -2.427521
     85          1           0      -13.111717    1.673846   -1.693648
     86          1           0      -12.358670    3.105447   -0.737864
     87          1           0      -12.380268   -1.781988   -0.980686
     88          1           0      -13.250101   -0.063769   -1.901667
     89          1           0      -12.804345   -2.116910   -3.348837
     90          1           0      -12.160529   -0.485025   -3.949110
     91          1           0      -11.045109   -1.793010   -3.288378
     92          1           0       -9.129028   -4.878683   -2.016129
     93          1           0       -8.196694   -5.813267   -0.625561
     94          1           0       -9.629895   -4.712176   -0.177958
     95          1           0       -3.529775   -3.451394   -0.362369
     96          1           0       -1.577143   -4.413165    3.239580
     97          1           0       -2.676848   -5.990777    3.570441
     98          1           0       -1.174560   -6.058845    2.702431
     99          1           0        2.510060   -1.800432   -1.393867
    100          1           0        2.548742   -0.286909   -1.825279
    101          1           0        4.446850   -0.971575    0.293672
    102          1           0        3.753374    1.482613   -2.386883
    103          1           0        5.205158    2.162467   -1.924521
    104          1           0        5.525925    0.697818   -2.958608
    105          1           0        6.657346    1.346754    0.133816
    106          1           0        6.197228   -0.042522    0.787606
    107          1           0        7.368544   -1.151395   -1.174016
    108          1           0        7.640793    0.406513   -1.871931
    109          1           0        9.078818    0.656386    0.148733
    110          1           0        8.789650   -0.889394    0.756005
    111          1           0       10.440832    0.048068   -1.766425
    112          1           0        9.452172   -2.267855   -2.175998
    113          1           0       11.231605   -2.364511   -1.752195
    114          1           0        9.894892   -2.636559   -0.530183
    115          1           0       11.376060    0.680613    0.510849
    116          1           0       11.409969   -0.890416    0.762503
    117          1           0       12.863965   -1.527483   -1.128380
    118          1           0       12.830152    0.281177   -1.433000
    119          1           0       13.868539    0.920937    0.458346
    120          1           0       14.299910   -0.868481    1.013424
    121          1           0       15.408673    0.348978   -1.354843
    122          1           0       15.883707   -2.217517   -0.002939
    123          1           0       14.954817   -1.941993   -1.585812
    124          1           0       16.761751   -1.546090   -1.419945
    125          1           0       16.302965    1.480723    0.754832
    126          1           0       16.691330   -0.098142    1.326992
    127          1           0       18.352562   -0.471010   -0.314167
    128          1           0       17.962842    0.929482   -1.208179
    129          1           0       18.503694    2.192887    0.885053
    130          1           0       18.875142    0.667645    1.700586
    131          1           0       20.381332    0.263930    0.225588
    132          1           0       19.859932    3.088114   -1.014900
    133          1           0       21.258730    2.368223   -1.787129
    134          1           0       19.628366    1.586707   -1.771633
    135          1           0       21.130970    1.696345    2.312402
    136          1           0       22.270379    1.982729    0.772112
    137          1           0       20.758963    3.104364    1.277108
 ---------------------------------------------------------------------

 SCF Done:  E(RCAM-B3LYP) =  -2933.51821641     A.U. after   16 cycles

 Excitation energies and oscillator strengths:

 Excited State   1:      Singlet-A      1.9696 eV  629.48 nm  f=0.2479  <S**2>=0.000
     240 -> 243       -0.24298
     241 -> 242        0.66117
 This state for optimization and/or second-order correction.
 Total Energy, E(TD-HF/TD-DFT) =  -2933.44583380
 Copying the excited state density for this state as the 1-particle RhoCI density.

 The electronic state is 1-A.
 Alpha  occ. eigenvalues --  -46.80329 -19.23145 -19.20904 -19.16621 -19.15608
 Alpha  occ. eigenvalues --  -19.14232 -14.37710 -14.35926 -14.35565 -14.34248
 Alpha  occ. eigenvalues --  -10.34103 -10.33152 -10.30300 -10.27659 -10.26590
 Alpha  occ. eigenvalues --  -10.26468 -10.26386 -10.26060 -10.25492 -10.24993
 Alpha  occ. eigenvalues --  -10.24608 -10.24412 -10.24347 -10.24238 -10.24150
 Alpha  occ. eigenvalues --  -10.24128 -10.23962 -10.23898 -10.23680 -10.23593
 Alpha  occ. eigenvalues --  -10.23481 -10.23070 -10.22823 -10.22642 -10.22530
 Alpha  occ. eigenvalues --  -10.22523 -10.22509 -10.22439 -10.22288 -10.22279
 Alpha  occ. eigenvalues --  -10.22251 -10.22181 -10.21925 -10.21687 -10.21570
 Alpha  occ. eigenvalues --  -10.21551 -10.21420 -10.21416 -10.21330 -10.21261
 Alpha  occ. eigenvalues --  -10.21224 -10.21112 -10.20981 -10.20904 -10.20860
 Alpha  occ. eigenvalues --  -10.20857 -10.20781 -10.20636 -10.20490 -10.20483
 Alpha  occ. eigenvalues --  -10.20455 -10.20197 -10.19878 -10.19648 -10.19646
 Alpha  occ. eigenvalues --   -3.08771  -1.83713  -1.83219  -1.83183  -1.16314
 Alpha  occ. eigenvalues --   -1.13245  -1.05125  -1.02528  -1.02522  -0.99221
 Alpha  occ. eigenvalues --   -0.98193  -0.96829  -0.95549  -0.87827  -0.87741
 Alpha  occ. eigenvalues --   -0.86344  -0.85846  -0.85387  -0.84411  -0.83895
 Alpha  occ. eigenvalues --   -0.83212  -0.82718  -0.82269  -0.82039  -0.81599
 Alpha  occ. eigenvalues --   -0.79820  -0.79476  -0.78832  -0.78571  -0.77673
 Alpha  occ. eigenvalues --   -0.77249  -0.76263  -0.76062  -0.75318  -0.73817
 Alpha  occ. eigenvalues --   -0.73029  -0.72562  -0.71533  -0.71146  -0.71109
 Alpha  occ. eigenvalues --   -0.70893  -0.70279  -0.69765  -0.69181  -0.67992
 Alpha  occ. eigenvalues --   -0.66562  -0.66072  -0.65121  -0.64508  -0.64052
 Alpha  occ. eigenvalues --   -0.63453  -0.62321  -0.61324  -0.60988  -0.60869
 Alpha  occ. eigenvalues --   -0.60284  -0.59893  -0.59543  -0.59180  -0.58092
 Alpha  occ. eigenvalues --   -0.57657  -0.57043  -0.55809  -0.55412  -0.55190
 Alpha  occ. eigenvalues --   -0.54542  -0.54293  -0.54112  -0.53590  -0.52978
 Alpha  occ. eigenvalues --   -0.52411  -0.51943  -0.51811  -0.51378  -0.50874
 Alpha  occ. eigenvalues --   -0.50717  -0.50538  -0.50279  -0.49948  -0.49499
 Alpha  occ. eigenvalues --   -0.48602  -0.48515  -0.48366  -0.48028  -0.47900
 Alpha  occ. eigenvalues --   -0.47856  -0.47491  -0.47404  -0.47322  -0.47212
 Alpha  occ. eigenvalues --   -0.47137  -0.46697  -0.46593  -0.46334  -0.46227
 Alpha  occ. eigenvalues --   -0.45822  -0.45662  -0.45246  -0.45016  -0.44905
 Alpha  occ. eigenvalues --   -0.44760  -0.44686  -0.44322  -0.43757  -0.43253
 Alpha  occ. eigenvalues --   -0.43174  -0.42953  -0.42532  -0.42505  -0.42320
 Alpha  occ. eigenvalues --   -0.42063  -0.41889  -0.41788  -0.41520  -0.41436
 Alpha  occ. eigenvalues --   -0.41263  -0.41044  -0.40727  -0.40700  -0.40652
 Alpha  occ. eigenvalues --   -0.40473  -0.40182  -0.40096  -0.39706  -0.39552
 Alpha  occ. eigenvalues --   -0.39407  -0.39389  -0.39109  -0.38781  -0.38549
 Alpha  occ. eigenvalues --   -0.38440  -0.38215  -0.38099  -0.37976  -0.37767
 Alpha  occ. eigenvalues --   -0.37526  -0.37394  -0.37135  -0.37109  -0.36933
 Alpha  occ. eigenvalues --   -0.36739  -0.36541  -0.36433  -0.36288  -0.36117
 Alpha  occ. eigenvalues --   -0.35695  -0.35593  -0.35494  -0.35344  -0.35180
 Alpha  occ. eigenvalues --   -0.35163  -0.35051  -0.34468  -0.34382  -0.34270
 Alpha  occ. eigenvalues --   -0.33857  -0.33364  -0.32916  -0.32750  -0.32721
 Alpha  occ. eigenvalues --   -0.32067  -0.31788  -0.31606  -0.30573  -0.29950
 Alpha  occ. eigenvalues --   -0.29691  -0.29620  -0.29159  -0.28385  -0.27621
 Alpha  occ. eigenvalues --   -0.27318  -0.26072  -0.25641  -0.24806  -0.21611
 Alpha  occ. eigenvalues --   -0.19608
 Alpha virt. eigenvalues --   -0.07023  -0.04150  -0.00719   0.02044   0.02657
 Alpha virt. eigenvalues --    0.03432   0.04522   0.05189   0.05763   0.06279
 Alpha virt. eigenvalues --    0.07216   0.07687   0.09011   0.09678   0.09902

 Mulliken charges:
               1
     1  Mg   0.832524
     2  C    0.033616
     3  C   -0.189497
     4  C   -0.210735
     5  C   -0.139085
     6  N   -0.647331
     7  C    0.294620
     8  C   -0.138821
     9  C   -0.156096
    10  C    0.350947
    11  C   -0.289892
    12  C   -0.165142
    13  C   -0.282731
    14  C    0.614482
    15  O   -0.523655
    16  O   -0.424257
    17  N   -0.674480
    18  C    0.286026
    19  C    0.023941
    20  C    0.065036
    21  C    0.293123
    22  C   -0.360270
    23  C   -0.078095
    24  C   -0.249379
    25  N   -0.700647
    26  C    0.326492
    27  C    0.034514
    28  C    0.051218
    29  C    0.256747
    30  C   -0.362368
    31  C   -0.253102
    32  C   -0.299713
    33  N   -0.753840
    34  C    0.279681
    35  C    0.023888
    36  C    0.102448
    37  C    0.309603
    38  C   -0.373927
    39  C    0.291934
    40  O   -0.489495
    41  C   -0.314511
    42  C    0.634236
    43  O   -0.444540
    44  O   -0.442250
    45  C   -0.074512
    46  C    0.025949
    47  C   -0.129403
    48  C    0.121009
    49  C   -0.366788
    50  C   -0.242709
    51  C   -0.175718
    52  C   -0.149848
    53  C   -0.045350
    54  C   -0.313339
    55  C   -0.189089
    56  C   -0.201947
    57  C   -0.157875
    58  C   -0.058891
    59  C   -0.301096
    60  C   -0.191526
    61  C   -0.179378
    62  C   -0.182486
    63  C   -0.047987
    64  C   -0.309221
    65  C   -0.283402
    66  H    0.084268
    67  H    0.057214
    68  H    0.081844
    69  H    0.118848
    70  H    0.095933
    71  H    0.086768
    72  H    0.100549
    73  H    0.120192
    74  H    0.118217
    75  H    0.099601
    76  H    0.109059
    77  H    0.127279
    78  H    0.122364
    79  H    0.125544
    80  H    0.106224
    81  H    0.101036
    82  H    0.101006
    83  H    0.091214
    84  H    0.115056
    85  H    0.088793
    86  H    0.133449
    87  H    0.073599
    88  H    0.095568
    89  H    0.109785
    90  H    0.104161
    91  H    0.111035
    92  H    0.114939
    93  H    0.145131
    94  H    0.127774
    95  H    0.174241
    96  H    0.127997
    97  H    0.115539
    98  H    0.098647
    99  H    0.147036
   100  H    0.126479
   101  H    0.074344
   102  H    0.089263
   103  H    0.127792
   104  H    0.133574
   105  H    0.100375
   106  H    0.096742
   107  H    0.111978
   108  H    0.086417
   109  H    0.096327
   110  H    0.063394
   111  H    0.089513
   112  H    0.105362
   113  H    0.099189
   114  H    0.088265
   115  H    0.086487
   116  H    0.102380
   117  H    0.091746
   118  H    0.099678
   119  H    0.097049
   120  H    0.093036
   121  H    0.091714
   122  H    0.090680
   123  H    0.090910
   124  H    0.100398
   125  H    0.071158
   126  H    0.083320
   127  H    0.096961
   128  H    0.097979
   129  H    0.084378
   130  H    0.071881
   131  H    0.073397
   132  H    0.116467
   133  H    0.074768
   134  H    0.104131
   135  H    0.089375
   136  H    0.082783
   137  H    0.102788
 Sum of Mulliken charges =  -0.00000

 Dipole moment (field-independent basis, Debye):
    X=              3.6401    Y=              5.3805    Z=             -0.6187  Tot=              6.5256
 Quadrupole moment (field-independent basis, Debye-Ang):
   XX=           -369.6598   YY=           -391.5093   ZZ=           -399.0246
   XY=            -15.3527   XZ=             11.9930   YZ=             -3.5871

 Normal termination of Gaussian 16 at Thu Sep 12 11:46:29 2019.
