 Gaussian 09, Revision D.01,
 Gaussian 09:  ES64L-G09RevD.01 24-Apr-2013

 -------------------------------------
 # td=(NStates=1) CAM-B3LYP/6-31G(d,p)
 -------------------------------------

 --
 TD
 --
 Symbolic Z-matrix:
 Charge =  0 Multiplicity = 1

                         Standard orientation:
 ---------------------------------------------------------------------
 Center     Atomic      Atomic             Coordinates (Angstroms)
 Number     Number       Type             X           Y           Z
 ---------------------------------------------------------------------
      1         12           0       -7.149616    0.561682    0.067711
      2          6           0       -4.862650   -1.968541    0.445346
      3          6           0       -4.728495    2.818572    1.203000
      4          6           0       -9.325143    3.121066   -0.361534
      5          6           0       -9.551823   -1.692702   -1.018483
      6          7           0       -5.146772    0.383512    0.736359
      7          6           0       -4.352678   -0.695900    0.835813
      8          6           0       -2.896255   -0.470698    1.242467
      9          6           0       -3.023682    1.067245    1.641584
     10          6           0       -4.378532    1.502126    1.102006
     11          6           0       -2.893344    1.323563    3.098332
     12          6           0       -1.867858   -0.674308    0.085226
     13          6           0       -0.478535   -0.440063    0.495749
     14          6           0        0.500637   -0.598365   -0.674251
     15          8           0        0.242403   -0.986052   -1.860668
     16          8           0        1.738929   -0.496700   -0.186868
     17          7           0       -7.075241    2.617952    0.335162
     18          6           0       -5.988406    3.356724    0.754558
     19          6           0       -6.301094    4.781409    0.717459
     20          6           0       -7.672645    4.941863    0.388241
     21          6           0       -8.112171    3.483098    0.003335
     22          6           0       -5.497263    5.905675    1.214179
     23          6           0       -8.498513    6.038710    0.152085
     24          6           0       -8.282068    7.156243    0.950500
     25          7           0       -9.157080    0.679692   -0.375160
     26          6           0       -9.903829    1.853576   -0.546636
     27          6           0      -11.190414    1.541422   -1.064255
     28          6           0      -11.263107    0.160581   -1.201771
     29          6           0       -9.898879   -0.287004   -0.836580
     30          6           0      -12.214936    2.538917   -1.422828
     31          6           0      -12.462825   -0.630532   -1.680605
     32          6           0      -12.405794   -0.991790   -3.200313
     33          7           0       -7.257631   -1.385349   -0.186607
     34          6           0       -8.342364   -2.175493   -0.683005
     35          6           0       -7.888896   -3.597995   -0.590031
     36          6           0       -6.609210   -3.538619   -0.111931
     37          6           0       -6.202603   -2.143708    0.002193
     38          6           0       -8.623947   -4.707708   -0.968192
     39          6           0       -5.476884   -4.408979    0.245417
     40          8           0       -5.353394   -5.631203    0.156356
     41          6           0       -4.267639   -3.304853    0.601571
     42          6           0       -3.596449   -3.818846    1.852602
     43          8           0       -3.808789   -3.359110    2.969733
     44          8           0       -2.787290   -4.818564    1.692817
     45          6           0       -2.276965   -5.414613    2.945724
     46          6           0        2.811537   -0.717358   -1.198793
     47          6           0        4.140774   -0.429424   -0.458642
     48          6           0        5.103406    0.305737   -1.004347
     49          6           0        5.088700    1.169749   -2.227206
     50          6           0        6.452444    0.316915   -0.157018
     51          6           0        7.691947   -0.064050   -0.945326
     52          6           0        8.997044   -0.129207   -0.068111
     53          6           0       10.181820   -0.493065   -0.840311
     54          6           0       10.157326   -1.945028   -1.273688
     55          6           0       11.437797   -0.318536    0.088365
     56          6           0       12.763359   -0.513581   -0.628525
     57          6           0       13.954128   -0.161403    0.322586
     58          6           0       15.419119   -0.266025   -0.336409
     59          6           0       15.652429   -1.730837   -0.677558
     60          6           0       16.435980    0.413683    0.526568
     61          6           0       17.847005    0.568834   -0.194889
     62          6           0       18.843355    1.398594    0.723399
     63          6           0       20.240811    1.457992    0.044040
     64          6           0       20.294783    2.235551   -1.196302
     65          6           0       21.316587    1.795942    1.052518
     66          1           0       -4.067124    3.524192    1.649200
     67          1           0      -10.009401    4.007571   -0.489353
     68          1           0      -10.409449   -2.461615   -1.334177
     69          1           0       -2.749869   -1.049403    2.077765
     70          1           0       -2.266787    1.735465    0.944498
     71          1           0       -1.913136    1.332734    3.394704
     72          1           0       -3.242632    2.396705    3.370659
     73          1           0       -3.684580    0.552001    3.664203
     74          1           0       -1.998973   -1.761485   -0.428298
     75          1           0       -2.219892    0.127810   -0.696252
     76          1           0       -0.279502    0.550507    0.857463
     77          1           0       -0.293388   -1.131302    1.210060
     78          1           0       -5.728869    6.870012    0.659474
     79          1           0       -5.531769    5.930716    2.350834
     80          1           0       -4.553559    5.656933    0.824195
     81          1           0       -9.429824    5.861989   -0.654670
     82          1           0       -8.824170    8.052459    0.942856
     83          1           0       -7.451921    7.338240    1.804612
     84          1           0      -11.870531    3.235886   -2.142231
     85          1           0      -13.256077    2.084398   -1.745391
     86          1           0      -12.433682    3.175778   -0.517787
     87          1           0      -12.514153   -1.517805   -1.117293
     88          1           0      -13.450166   -0.119111   -1.663854
     89          1           0      -13.255201   -1.724918   -3.412611
     90          1           0      -12.570878    0.000031   -3.571041
     91          1           0      -11.413859   -1.465149   -3.630727
     92          1           0       -8.943033   -4.914623   -1.982485
     93          1           0       -8.067596   -5.510320   -0.322292
     94          1           0       -9.679750   -4.623341   -0.418659
     95          1           0       -3.443876   -3.478542   -0.332231
     96          1           0       -1.883241   -4.696510    3.470193
     97          1           0       -3.168605   -5.779728    3.452681
     98          1           0       -1.619048   -6.249509    2.508904
     99          1           0        2.677592   -1.869272   -1.491316
    100          1           0        2.666965   -0.090406   -2.144070
    101          1           0        4.420033   -0.862926    0.447228
    102          1           0        4.191039    1.026700   -2.911923
    103          1           0        5.404800    2.300442   -1.783983
    104          1           0        5.971665    0.925887   -2.961550
    105          1           0        6.535433    1.399478    0.135310
    106          1           0        6.465283   -0.294630    0.660596
    107          1           0        7.501679   -1.094636   -1.361465
    108          1           0        7.978914    0.476229   -1.877646
    109          1           0        8.870066    0.916428    0.459375
    110          1           0        8.872496   -0.763637    0.808359
    111          1           0       10.211392    0.158247   -1.714612
    112          1           0        9.442554   -2.030855   -1.877130
    113          1           0       11.133811   -2.276152   -1.860222
    114          1           0       10.161848   -2.741570   -0.570644
    115          1           0       11.496523    0.712714    0.322243
    116          1           0       11.231782   -0.757403    0.973845
    117          1           0       12.904778   -1.626981   -1.012909
    118          1           0       12.936463    0.185474   -1.485945
    119          1           0       13.812324    0.940101    0.511923
    120          1           0       13.861555   -0.718775    1.212331
    121          1           0       15.381252    0.340357   -1.282222
    122          1           0       15.750297   -2.507809    0.136188
    123          1           0       14.901409   -2.066349   -1.522979
    124          1           0       16.762576   -2.162355   -1.070810
    125          1           0       16.118222    1.361058    0.864794
    126          1           0       16.618005   -0.203909    1.489643
    127          1           0       18.381076   -0.323470   -0.402328
    128          1           0       17.796713    1.234107   -1.138232
    129          1           0       18.694709    2.485506    1.085397
    130          1           0       18.859989    0.883800    1.617269
    131          1           0       20.303988    0.250496   -0.188755
    132          1           0       19.914389    3.157529   -0.971736
    133          1           0       21.202852    2.247798   -1.499119
    134          1           0       19.798815    1.859375   -2.022047
    135          1           0       21.486733    1.042514    1.928672
    136          1           0       22.343865    1.691061    0.717938
    137          1           0       21.187700    2.820660    1.501836
 ---------------------------------------------------------------------

 SCF Done:  E(RCAM-B3LYP) =  -2932.69922004     A.U. after   17 cycles

 Excitation energies and oscillator strengths:

 Excited State   1:      Singlet-A      2.0977 eV  591.06 nm  f=0.2281  <S**2>=0.000
     240 -> 243       -0.25324
     241 -> 242        0.64488
 This state for optimization and/or second-order correction.
 Total Energy, E(TD-HF/TD-KS) =  -2932.62213225
 Copying the excited state density for this state as the 1-particle RhoCI density.

 The electronic state is 1-A.
 Alpha  occ. eigenvalues --  -46.83829 -19.26895 -19.25964 -19.21511 -19.20504
 Alpha  occ. eigenvalues --  -19.18989 -14.41802 -14.39644 -14.39418 -14.38971
 Alpha  occ. eigenvalues --  -10.39436 -10.38281 -10.36302 -10.33932 -10.31529
 Alpha  occ. eigenvalues --  -10.30908 -10.30519 -10.30354 -10.29680 -10.29640
 Alpha  occ. eigenvalues --  -10.29317 -10.29189 -10.29186 -10.28695 -10.28565
 Alpha  occ. eigenvalues --  -10.28472 -10.28444 -10.28211 -10.28169 -10.28009
 Alpha  occ. eigenvalues --  -10.27665 -10.27502 -10.27323 -10.27119 -10.26995
 Alpha  occ. eigenvalues --  -10.26839 -10.26768 -10.26685 -10.26559 -10.26555
 Alpha  occ. eigenvalues --  -10.26447 -10.26326 -10.26241 -10.26208 -10.25971
 Alpha  occ. eigenvalues --  -10.25956 -10.25931 -10.25925 -10.25825 -10.25741
 Alpha  occ. eigenvalues --  -10.25736 -10.25689 -10.25661 -10.25645 -10.25628
 Alpha  occ. eigenvalues --  -10.25530 -10.25322 -10.25094 -10.25034 -10.24997
 Alpha  occ. eigenvalues --  -10.24976 -10.24277 -10.23642 -10.23136 -10.21284
 Alpha  occ. eigenvalues --   -3.12968  -1.87670  -1.87204  -1.87155  -1.18888
 Alpha  occ. eigenvalues --   -1.17315  -1.10721  -1.07212  -1.06189  -1.04370
 Alpha  occ. eigenvalues --   -1.03369  -1.02900  -1.01244  -0.91728  -0.91675
 Alpha  occ. eigenvalues --   -0.90751  -0.90208  -0.89793  -0.89524  -0.89144
 Alpha  occ. eigenvalues --   -0.88586  -0.88418  -0.87860  -0.87486  -0.86138
 Alpha  occ. eigenvalues --   -0.85118  -0.84197  -0.83641  -0.82965  -0.82507
 Alpha  occ. eigenvalues --   -0.81917  -0.80952  -0.80373  -0.79845  -0.78446
 Alpha  occ. eigenvalues --   -0.77294  -0.77088  -0.76647  -0.76171  -0.75790
 Alpha  occ. eigenvalues --   -0.75231  -0.74878  -0.74462  -0.73535  -0.71807
 Alpha  occ. eigenvalues --   -0.71583  -0.69646  -0.68688  -0.68434  -0.67976
 Alpha  occ. eigenvalues --   -0.66863  -0.66651  -0.65155  -0.64641  -0.64471
 Alpha  occ. eigenvalues --   -0.64433  -0.63925  -0.62886  -0.62813  -0.61945
 Alpha  occ. eigenvalues --   -0.61560  -0.59936  -0.59747  -0.59232  -0.58884
 Alpha  occ. eigenvalues --   -0.58350  -0.57670  -0.57450  -0.56976  -0.56462
 Alpha  occ. eigenvalues --   -0.55967  -0.55541  -0.55140  -0.55028  -0.54672
 Alpha  occ. eigenvalues --   -0.54517  -0.54245  -0.54084  -0.53412  -0.53193
 Alpha  occ. eigenvalues --   -0.52753  -0.52526  -0.52202  -0.52109  -0.51747
 Alpha  occ. eigenvalues --   -0.51659  -0.51161  -0.51145  -0.50962  -0.50896
 Alpha  occ. eigenvalues --   -0.50388  -0.49923  -0.49879  -0.49753  -0.49416
 Alpha  occ. eigenvalues --   -0.49291  -0.49157  -0.48921  -0.48727  -0.48329
 Alpha  occ. eigenvalues --   -0.47919  -0.47756  -0.47529  -0.47279  -0.47125
 Alpha  occ. eigenvalues --   -0.46990  -0.46730  -0.46567  -0.46556  -0.45992
 Alpha  occ. eigenvalues --   -0.45812  -0.45455  -0.45380  -0.45295  -0.45031
 Alpha  occ. eigenvalues --   -0.44784  -0.44759  -0.44711  -0.44322  -0.44176
 Alpha  occ. eigenvalues --   -0.44143  -0.43688  -0.43665  -0.43452  -0.43053
 Alpha  occ. eigenvalues --   -0.42783  -0.42649  -0.42262  -0.42212  -0.42046
 Alpha  occ. eigenvalues --   -0.41793  -0.41663  -0.41356  -0.41253  -0.41193
 Alpha  occ. eigenvalues --   -0.41056  -0.40823  -0.40452  -0.40411  -0.40226
 Alpha  occ. eigenvalues --   -0.40064  -0.39835  -0.39660  -0.39345  -0.39204
 Alpha  occ. eigenvalues --   -0.39100  -0.39037  -0.38735  -0.38553  -0.37955
 Alpha  occ. eigenvalues --   -0.37657  -0.37374  -0.37280  -0.36984  -0.36442
 Alpha  occ. eigenvalues --   -0.36163  -0.36093  -0.35730  -0.35606  -0.35292
 Alpha  occ. eigenvalues --   -0.34884  -0.34875  -0.34077  -0.33301  -0.33028
 Alpha  occ. eigenvalues --   -0.32752  -0.32504  -0.32185  -0.30657  -0.30351
 Alpha  occ. eigenvalues --   -0.30074  -0.29528  -0.27570  -0.26240  -0.23173
 Alpha  occ. eigenvalues --   -0.20672
 Alpha virt. eigenvalues --   -0.05618  -0.03351   0.01237   0.03490   0.05469
 Alpha virt. eigenvalues --    0.05887   0.06152   0.06784   0.07247   0.07796
 Alpha virt. eigenvalues --    0.08083   0.10447   0.10841   0.11156   0.11395

 Mulliken charges:
               1
     1  Mg   0.815571
     2  C    0.076822
     3  C   -0.198658
     4  C   -0.166801
     5  C   -0.182226
     6  N   -0.638481
     7  C    0.323264
     8  C   -0.136864
     9  C   -0.157778
    10  C    0.346374
    11  C   -0.289798
    12  C   -0.164893
    13  C   -0.238626
    14  C    0.595882
    15  O   -0.508455
    16  O   -0.465329
    17  N   -0.701980
    18  C    0.330879
    19  C   -0.028341
    20  C    0.072929
    21  C    0.277152
    22  C   -0.373147
    23  C   -0.111180
    24  C   -0.249809
    25  N   -0.679635
    26  C    0.253567
    27  C    0.044135
    28  C    0.010930
    29  C    0.290230
    30  C   -0.382447
    31  C   -0.251427
    32  C   -0.299436
    33  N   -0.764579
    34  C    0.294652
    35  C    0.079983
    36  C   -0.002747
    37  C    0.329818
    38  C   -0.419140
    39  C    0.371691
    40  O   -0.455089
    41  C   -0.341310
    42  C    0.607792
    43  O   -0.518017
    44  O   -0.442200
    45  C   -0.074168
    46  C    0.006185
    47  C   -0.125681
    48  C    0.135987
    49  C   -0.355685
    50  C   -0.222383
    51  C   -0.191037
    52  C   -0.165749
    53  C   -0.072163
    54  C   -0.296322
    55  C   -0.161210
    56  C   -0.182424
    57  C   -0.182810
    58  C   -0.044489
    59  C   -0.300367
    60  C   -0.168887
    61  C   -0.183491
    62  C   -0.174426
    63  C   -0.055095
    64  C   -0.287039
    65  C   -0.316149
    66  H    0.087692
    67  H    0.073099
    68  H    0.105555
    69  H    0.132036
    70  H    0.083998
    71  H    0.120744
    72  H    0.098495
    73  H    0.108612
    74  H    0.110024
    75  H    0.103448
    76  H    0.137157
    77  H    0.149673
    78  H    0.120816
    79  H    0.122639
    80  H    0.113651
    81  H    0.106721
    82  H    0.105324
    83  H    0.109143
    84  H    0.127613
    85  H    0.096902
    86  H    0.114007
    87  H    0.105418
    88  H    0.106914
    89  H    0.093084
    90  H    0.116603
    91  H    0.094215
    92  H    0.150681
    93  H    0.145898
    94  H    0.104828
    95  H    0.127566
    96  H    0.146225
    97  H    0.143661
    98  H    0.127097
    99  H    0.124055
   100  H    0.131567
   101  H    0.092398
   102  H    0.115833
   103  H    0.102897
   104  H    0.116429
   105  H    0.092901
   106  H    0.110141
   107  H    0.090288
   108  H    0.089648
   109  H    0.073101
   110  H    0.088758
   111  H    0.084637
   112  H    0.108197
   113  H    0.080745
   114  H    0.106444
   115  H    0.091514
   116  H    0.097730
   117  H    0.077248
   118  H    0.090751
   119  H    0.079414
   120  H    0.099031
   121  H    0.083553
   122  H    0.103062
   123  H    0.099225
   124  H    0.058168
   125  H    0.103322
   126  H    0.075782
   127  H    0.108783
   128  H    0.085814
   129  H    0.065715
   130  H    0.099046
   131  H    0.042474
   132  H    0.103983
   133  H    0.110089
   134  H    0.107648
   135  H    0.088460
   136  H    0.101659
   137  H    0.094077
 Sum of Mulliken charges =   0.00000

 Dipole moment (field-independent basis, Debye):
    X=              2.9347    Y=              3.7232    Z=              0.6238  Tot=              4.7816
 Quadrupole moment (field-independent basis, Debye-Ang):
   XX=           -358.2840   YY=           -387.3152   ZZ=           -398.9436
   XY=            -16.3962   XZ=             11.6868   YZ=             -2.1333

 Normal termination of Gaussian 09 at Fri Jul  5 01:15:15 2019.
