 Gaussian 16, Revision A.03,
 Gaussian 16:  ES64L-G16RevA.03 25-Dec-2016

 ----------------------------------------------------------------------
 # td=(NStates=1) iop(3/107=0140000000,3/108=0140000000) CAM-B3LYP/6-31
 G(d,p)
 ----------------------------------------------------------------------

 --
 TD
 --
 Symbolic Z-matrix:
 Charge =  0 Multiplicity = 1

                         Standard orientation:
 ---------------------------------------------------------------------
 Center     Atomic      Atomic             Coordinates (Angstroms)
 Number     Number       Type             X           Y           Z
 ---------------------------------------------------------------------
      1         12           0       -7.120559    0.565023    0.027460
      2          6           0       -4.813964   -2.026233    0.425210
      3          6           0       -4.730718    2.848800    1.102365
      4          6           0       -9.411511    3.153836   -0.323036
      5          6           0       -9.577924   -1.636119   -0.889645
      6          7           0       -5.059223    0.431502    0.728691
      7          6           0       -4.400332   -0.719011    0.811251
      8          6           0       -2.892521   -0.387746    1.270517
      9          6           0       -3.020076    1.050025    1.814000
     10          6           0       -4.326938    1.478086    1.167187
     11          6           0       -2.876029    1.179782    3.263990
     12          6           0       -1.931347   -0.573795    0.074541
     13          6           0       -0.538323   -0.424697    0.600196
     14          6           0        0.489493   -0.741221   -0.479692
     15          8           0        0.118511   -1.037456   -1.623049
     16          8           0        1.732683   -0.570853   -0.063151
     17          7           0       -7.012309    2.697924    0.252193
     18          6           0       -5.966570    3.372075    0.610714
     19          6           0       -6.244208    4.769565    0.679318
     20          6           0       -7.606772    4.935335    0.209844
     21          6           0       -8.052361    3.538614    0.042147
     22          6           0       -5.322637    5.865402    1.166821
     23          6           0       -8.385940    6.088499    0.091514
     24          6           0       -8.225784    7.374165    0.707076
     25          7           0       -9.013098    0.730882   -0.591054
     26          6           0       -9.752429    1.818454   -0.639508
     27          6           0      -11.158303    1.474022   -1.004375
     28          6           0      -11.220822    0.126095   -1.239018
     29          6           0       -9.926383   -0.334276   -0.919185
     30          6           0      -12.280396    2.490733   -1.259488
     31          6           0      -12.414987   -0.683514   -1.606018
     32          6           0      -12.423045   -1.105758   -3.161685
     33          7           0       -7.219278   -1.401527   -0.289508
     34          6           0       -8.269421   -2.153757   -0.618732
     35          6           0       -7.885852   -3.664780   -0.607835
     36          6           0       -6.592035   -3.588713   -0.175922
     37          6           0       -6.216460   -2.170768    0.038097
     38          6           0       -8.818695   -4.750310   -0.988871
     39          6           0       -5.383851   -4.357020    0.108422
     40          8           0       -5.337354   -5.520972    0.173392
     41          6           0       -4.168264   -3.243198    0.525840
     42          6           0       -3.556775   -3.660810    1.937638
     43          8           0       -3.883156   -3.065967    2.997667
     44          8           0       -2.819136   -4.783096    1.935912
     45          6           0       -2.194681   -5.215489    3.104597
     46          6           0        2.804767   -0.602207   -1.098690
     47          6           0        4.122948   -0.458279   -0.568729
     48          6           0        5.224022    0.338579   -0.983943
     49          6           0        5.107062    1.209771   -2.206738
     50          6           0        6.497516    0.417197   -0.208715
     51          6           0        7.632317   -0.324927   -0.959822
     52          6           0        8.979139   -0.307375   -0.150609
     53          6           0       10.210542   -0.712182   -0.933851
     54          6           0       10.202613   -2.210681   -1.315745
     55          6           0       11.538909   -0.391012   -0.109962
     56          6           0       12.757877   -0.751749   -0.808642
     57          6           0       13.990556   -0.301234    0.166916
     58          6           0       15.391111   -0.214498   -0.497639
     59          6           0       15.719510   -1.604000   -1.148722
     60          6           0       16.433948    0.337725    0.498613
     61          6           0       17.831717    0.548719   -0.170837
     62          6           0       18.677406    1.406528    0.728203
     63          6           0       20.156959    1.488499    0.230333
     64          6           0       20.236471    2.253410   -1.054216
     65          6           0       20.996291    2.201495    1.391041
     66          1           0       -3.845776    3.460211    1.252821
     67          1           0       -9.897118    4.076637   -0.266670
     68          1           0      -10.105343   -2.516375   -1.162168
     69          1           0       -2.614724   -1.127122    2.125719
     70          1           0       -2.255854    1.722454    1.268484
     71          1           0       -1.837976    1.005659    3.638060
     72          1           0       -3.129613    2.181062    3.665861
     73          1           0       -3.699218    0.392988    3.630176
     74          1           0       -2.238137   -1.494352   -0.323891
     75          1           0       -2.102801    0.184140   -0.680052
     76          1           0       -0.355974    0.655838    0.915481
     77          1           0       -0.506360   -1.010350    1.590796
     78          1           0       -5.351338    6.903494    0.644421
     79          1           0       -5.445760    6.190146    2.107519
     80          1           0       -4.264519    5.366659    1.106122
     81          1           0       -9.217824    6.054720   -0.432595
     82          1           0       -8.981396    8.082577    0.595988
     83          1           0       -7.546855    7.611239    1.315591
     84          1           0      -12.065678    3.265529   -2.098524
     85          1           0      -13.214037    1.945934   -1.675585
     86          1           0      -12.773685    2.952268   -0.447424
     87          1           0      -12.302661   -1.556650   -0.901086
     88          1           0      -13.269451   -0.012292   -1.551645
     89          1           0      -13.503392   -1.598226   -3.494757
     90          1           0      -12.408582    0.037042   -3.622725
     91          1           0      -11.689910   -1.722051   -3.475620
     92          1           0       -9.439443   -4.641155   -1.871657
     93          1           0       -8.462133   -5.970530   -1.034135
     94          1           0       -9.652092   -5.037653   -0.284836
     95          1           0       -3.442749   -3.543606   -0.162842
     96          1           0       -1.495982   -4.403294    3.386350
     97          1           0       -3.114262   -5.526914    3.964374
     98          1           0       -1.755478   -6.109751    2.732862
     99          1           0        2.824861   -1.605004   -1.674978
    100          1           0        2.255979    0.066861   -1.960188
    101          1           0        4.267250   -0.849227    0.359281
    102          1           0        4.103873    1.255606   -2.725060
    103          1           0        5.386616    2.303348   -2.105036
    104          1           0        5.666703    0.808319   -2.980663
    105          1           0        6.714672    1.385924    0.016120
    106          1           0        6.186489    0.034595    0.716098
    107          1           0        7.477923   -1.477649   -1.328714
    108          1           0        7.616229    0.205882   -1.769846
    109          1           0        9.157867    0.666103    0.429952
    110          1           0        8.853387   -1.163172    0.745404
    111          1           0       10.157152   -0.030031   -1.708690
    112          1           0        9.244051   -2.538126   -1.880377
    113          1           0       11.315027   -2.700714   -1.556847
    114          1           0       10.076443   -2.684816   -0.292899
    115          1           0       11.582418    0.662339    0.333052
    116          1           0       11.206547   -1.084090    0.851053
    117          1           0       12.626119   -1.772598   -0.982190
    118          1           0       12.556298   -0.346236   -1.807454
    119          1           0       13.627375    0.703020    0.397609
    120          1           0       14.063438   -0.784845    1.117161
    121          1           0       15.397795    0.537832   -1.345348
    122          1           0       15.622322   -2.383761   -0.265933
    123          1           0       14.867902   -1.717630   -1.974023
    124          1           0       16.789763   -1.495471   -1.451783
    125          1           0       16.203551    1.135365    1.006906
    126          1           0       16.478083   -0.557313    1.342107
    127          1           0       18.297104   -0.514024   -0.269251
    128          1           0       17.527659    1.126288   -1.035764
    129          1           0       18.316450    2.393577    0.886286
    130          1           0       18.600781    0.860737    1.621359
    131          1           0       20.804983    0.620013    0.054961
    132          1           0       19.890895    3.219058   -0.954853
    133          1           0       21.317966    2.317483   -1.630407
    134          1           0       19.510369    1.657490   -1.873606
    135          1           0       21.056759    1.831161    2.335677
    136          1           0       22.215456    1.924143    1.133822
    137          1           0       20.714327    3.305990    1.555583
 ---------------------------------------------------------------------

 SCF Done:  E(RCAM-B3LYP) =  -2933.41689727     A.U. after   16 cycles

 Excitation energies and oscillator strengths:

 Excited State   1:      Singlet-A      1.9769 eV  627.16 nm  f=0.2934  <S**2>=0.000
     240 -> 243        0.22282
     241 -> 242        0.66441
 This state for optimization and/or second-order correction.
 Total Energy, E(TD-HF/TD-DFT) =  -2933.34424683
 Copying the excited state density for this state as the 1-particle RhoCI density.

 The electronic state is 1-A.
 Alpha  occ. eigenvalues --  -46.80858 -19.22890 -19.22487 -19.16942 -19.16178
 Alpha  occ. eigenvalues --  -19.15990 -14.37809 -14.35892 -14.35573 -14.34841
 Alpha  occ. eigenvalues --  -10.34874 -10.34443 -10.30611 -10.29374 -10.28444
 Alpha  occ. eigenvalues --  -10.26263 -10.26183 -10.25285 -10.25207 -10.24975
 Alpha  occ. eigenvalues --  -10.24916 -10.24872 -10.24668 -10.24424 -10.24142
 Alpha  occ. eigenvalues --  -10.23893 -10.23848 -10.23512 -10.23112 -10.22992
 Alpha  occ. eigenvalues --  -10.22980 -10.22952 -10.22892 -10.22872 -10.22779
 Alpha  occ. eigenvalues --  -10.22502 -10.22412 -10.22307 -10.22212 -10.22194
 Alpha  occ. eigenvalues --  -10.22132 -10.22100 -10.22093 -10.22085 -10.22000
 Alpha  occ. eigenvalues --  -10.21946 -10.21869 -10.21859 -10.21846 -10.21758
 Alpha  occ. eigenvalues --  -10.21745 -10.21663 -10.21499 -10.21481 -10.21366
 Alpha  occ. eigenvalues --  -10.21341 -10.21261 -10.21206 -10.21205 -10.21061
 Alpha  occ. eigenvalues --  -10.20851 -10.20582 -10.20549 -10.20238 -10.20191
 Alpha  occ. eigenvalues --   -3.09398  -1.84343  -1.83869  -1.83799  -1.13300
 Alpha  occ. eigenvalues --   -1.12902  -1.09375  -1.03328  -1.02361  -1.00582
 Alpha  occ. eigenvalues --   -0.99834  -0.99110  -0.98026  -0.87576  -0.86611
 Alpha  occ. eigenvalues --   -0.85519  -0.85040  -0.84804  -0.84548  -0.83518
 Alpha  occ. eigenvalues --   -0.82795  -0.82646  -0.82207  -0.82010  -0.81391
 Alpha  occ. eigenvalues --   -0.80478  -0.79135  -0.78341  -0.77791  -0.77014
 Alpha  occ. eigenvalues --   -0.76942  -0.76788  -0.75563  -0.75272  -0.73215
 Alpha  occ. eigenvalues --   -0.73026  -0.72430  -0.71712  -0.71502  -0.70336
 Alpha  occ. eigenvalues --   -0.70135  -0.69787  -0.69124  -0.68763  -0.67759
 Alpha  occ. eigenvalues --   -0.66835  -0.66363  -0.65685  -0.65371  -0.64372
 Alpha  occ. eigenvalues --   -0.63641  -0.62308  -0.61062  -0.60990  -0.60180
 Alpha  occ. eigenvalues --   -0.60062  -0.59117  -0.59067  -0.58912  -0.58144
 Alpha  occ. eigenvalues --   -0.57588  -0.57245  -0.57144  -0.56265  -0.55535
 Alpha  occ. eigenvalues --   -0.55279  -0.54033  -0.53720  -0.53427  -0.52779
 Alpha  occ. eigenvalues --   -0.51934  -0.51544  -0.51369  -0.51244  -0.50896
 Alpha  occ. eigenvalues --   -0.50760  -0.50626  -0.50193  -0.49831  -0.49701
 Alpha  occ. eigenvalues --   -0.49443  -0.49348  -0.49241  -0.48457  -0.47661
 Alpha  occ. eigenvalues --   -0.47567  -0.47241  -0.47099  -0.46986  -0.46818
 Alpha  occ. eigenvalues --   -0.46642  -0.46307  -0.46119  -0.46067  -0.46045
 Alpha  occ. eigenvalues --   -0.45711  -0.45331  -0.45066  -0.44895  -0.44817
 Alpha  occ. eigenvalues --   -0.44298  -0.43949  -0.43819  -0.43518  -0.43396
 Alpha  occ. eigenvalues --   -0.43289  -0.43067  -0.42831  -0.42750  -0.42493
 Alpha  occ. eigenvalues --   -0.42488  -0.42150  -0.42078  -0.42015  -0.41697
 Alpha  occ. eigenvalues --   -0.41347  -0.41313  -0.41186  -0.40912  -0.40660
 Alpha  occ. eigenvalues --   -0.40619  -0.40496  -0.40148  -0.40105  -0.39996
 Alpha  occ. eigenvalues --   -0.39832  -0.39441  -0.39209  -0.39135  -0.38712
 Alpha  occ. eigenvalues --   -0.38679  -0.38534  -0.38410  -0.38300  -0.38146
 Alpha  occ. eigenvalues --   -0.37695  -0.37478  -0.37317  -0.37059  -0.37017
 Alpha  occ. eigenvalues --   -0.36865  -0.36808  -0.36601  -0.36432  -0.36111
 Alpha  occ. eigenvalues --   -0.35964  -0.35343  -0.35186  -0.35071  -0.34659
 Alpha  occ. eigenvalues --   -0.34626  -0.34597  -0.33807  -0.33684  -0.33299
 Alpha  occ. eigenvalues --   -0.33099  -0.33058  -0.32967  -0.32689  -0.32610
 Alpha  occ. eigenvalues --   -0.32087  -0.31868  -0.31636  -0.30249  -0.29882
 Alpha  occ. eigenvalues --   -0.29740  -0.29550  -0.28852  -0.28198  -0.27957
 Alpha  occ. eigenvalues --   -0.26388  -0.26091  -0.25799  -0.23489  -0.21222
 Alpha  occ. eigenvalues --   -0.19520
 Alpha virt. eigenvalues --   -0.07032  -0.03514   0.00106   0.01449   0.02401
 Alpha virt. eigenvalues --    0.03141   0.03933   0.04590   0.04721   0.05220
 Alpha virt. eigenvalues --    0.06771   0.08504   0.08567   0.09676   0.10008

 Mulliken charges:
               1
     1  Mg   0.831476
     2  C    0.138168
     3  C   -0.180382
     4  C   -0.119064
     5  C   -0.160100
     6  N   -0.613969
     7  C    0.307340
     8  C   -0.193339
     9  C   -0.124970
    10  C    0.299597
    11  C   -0.293086
    12  C   -0.132547
    13  C   -0.274603
    14  C    0.621458
    15  O   -0.489412
    16  O   -0.463256
    17  N   -0.691789
    18  C    0.346282
    19  C    0.006927
    20  C    0.038245
    21  C    0.243340
    22  C   -0.375943
    23  C   -0.119533
    24  C   -0.220410
    25  N   -0.704604
    26  C    0.343831
    27  C   -0.013308
    28  C    0.101188
    29  C    0.283678
    30  C   -0.390252
    31  C   -0.240771
    32  C   -0.289658
    33  N   -0.720062
    34  C    0.201281
    35  C    0.071220
    36  C    0.008488
    37  C    0.288018
    38  C   -0.418586
    39  C    0.334009
    40  O   -0.401349
    41  C   -0.359868
    42  C    0.594154
    43  O   -0.492459
    44  O   -0.420017
    45  C   -0.066358
    46  C    0.015707
    47  C   -0.136430
    48  C    0.097556
    49  C   -0.377804
    50  C   -0.228111
    51  C   -0.157601
    52  C   -0.168549
    53  C   -0.055571
    54  C   -0.314937
    55  C   -0.174488
    56  C   -0.173941
    57  C   -0.174317
    58  C   -0.068846
    59  C   -0.292863
    60  C   -0.166136
    61  C   -0.178472
    62  C   -0.167668
    63  C   -0.053043
    64  C   -0.284258
    65  C   -0.305811
    66  H    0.079053
    67  H    0.079303
    68  H    0.072580
    69  H    0.106387
    70  H    0.082592
    71  H    0.109703
    72  H    0.108190
    73  H    0.113288
    74  H    0.120430
    75  H    0.115287
    76  H    0.126894
    77  H    0.118364
    78  H    0.109046
    79  H    0.142101
    80  H    0.091764
    81  H    0.079211
    82  H    0.097799
    83  H    0.086262
    84  H    0.115898
    85  H    0.091294
    86  H    0.131305
    87  H    0.107332
    88  H    0.110285
    89  H    0.080322
    90  H    0.088738
    91  H    0.128756
    92  H    0.134161
    93  H    0.114590
    94  H    0.131936
    95  H    0.152250
    96  H    0.126175
    97  H    0.102138
    98  H    0.137745
    99  H    0.132207
   100  H    0.118531
   101  H    0.095291
   102  H    0.104132
   103  H    0.109748
   104  H    0.132847
   105  H    0.117045
   106  H    0.103958
   107  H    0.080114
   108  H    0.113609
   109  H    0.085229
   110  H    0.056300
   111  H    0.091906
   112  H    0.102468
   113  H    0.092949
   114  H    0.102178
   115  H    0.078143
   116  H    0.052641
   117  H    0.102464
   118  H    0.099832
   119  H    0.089735
   120  H    0.102902
   121  H    0.071370
   122  H    0.085999
   123  H    0.102550
   124  H    0.104038
   125  H    0.101363
   126  H    0.044723
   127  H    0.097508
   128  H    0.100610
   129  H    0.096446
   130  H    0.103783
   131  H    0.094616
   132  H    0.111421
   133  H    0.079055
   134  H    0.073431
   135  H    0.118971
   136  H    0.048279
   137  H    0.087008
 Sum of Mulliken charges =  -0.00000

 Dipole moment (field-independent basis, Debye):
    X=              2.1468    Y=              3.0617    Z=              0.4405  Tot=              3.7652
 Quadrupole moment (field-independent basis, Debye-Ang):
   XX=           -356.5071   YY=           -393.3920   ZZ=           -402.0622
   XY=             -5.9963   XZ=             15.3198   YZ=              1.4122

 Normal termination of Gaussian 16 at Sun Sep 22 20:57:02 2019.
