 Gaussian 09, Revision D.01,
 Gaussian 09:  ES64L-G09RevD.01 24-Apr-2013

 -------------------------------------
 # td=(NStates=1) CAM-B3LYP/6-31G(d,p)
 -------------------------------------

 --
 TD
 --
 Symbolic Z-matrix:
 Charge =  0 Multiplicity = 1

                         Standard orientation:
 ---------------------------------------------------------------------
 Center     Atomic      Atomic             Coordinates (Angstroms)
 Number     Number       Type             X           Y           Z
 ---------------------------------------------------------------------
      1         12           0       -7.116431    0.543121    0.090361
      2          6           0       -4.881429   -1.906170    0.378747
      3          6           0       -4.801340    2.814454    1.064764
      4          6           0       -9.398340    3.021797   -0.375913
      5          6           0       -9.445389   -1.809738   -0.896355
      6          7           0       -5.049088    0.522247    0.693815
      7          6           0       -4.360935   -0.572763    0.622248
      8          6           0       -2.868832   -0.364217    1.010271
      9          6           0       -3.002036    1.159077    1.430360
     10          6           0       -4.378684    1.569393    1.065826
     11          6           0       -2.796985    1.245092    3.047210
     12          6           0       -1.891882   -0.473494   -0.041931
     13          6           0       -0.472236   -0.485118    0.575332
     14          6           0        0.581671   -0.572787   -0.666286
     15          8           0        0.279409   -0.820379   -1.904990
     16          8           0        1.852348   -0.341098   -0.306412
     17          7           0       -7.104152    2.643898    0.398403
     18          6           0       -6.040688    3.375304    0.741066
     19          6           0       -6.503909    4.753377    0.704394
     20          6           0       -7.832594    4.769100    0.370405
     21          6           0       -8.145372    3.391053    0.070554
     22          6           0       -5.616962    5.982325    1.067253
     23          6           0       -8.615931    6.009520    0.266022
     24          6           0       -8.630323    7.206644    0.843497
     25          7           0       -9.109442    0.592039   -0.478797
     26          6           0       -9.903816    1.736777   -0.679514
     27          6           0      -11.253424    1.433258   -1.028994
     28          6           0      -11.219137   -0.054470   -1.150495
     29          6           0       -9.925369   -0.424792   -0.744144
     30          6           0      -12.414292    2.419989   -1.286447
     31          6           0      -12.429830   -0.834661   -1.650700
     32          6           0      -12.300350   -1.152453   -3.026126
     33          7           0       -7.199099   -1.380905   -0.245447
     34          6           0       -8.256734   -2.282281   -0.563402
     35          6           0       -7.866689   -3.642294   -0.526780
     36          6           0       -6.569267   -3.543804   -0.023574
     37          6           0       -6.127253   -2.140580    0.040459
     38          6           0       -8.619355   -4.831223   -0.690262
     39          6           0       -5.312997   -4.389509    0.220487
     40          8           0       -5.186580   -5.602879    0.333846
     41          6           0       -4.233179   -3.252570    0.483789
     42          6           0       -3.551852   -3.631684    1.770732
     43          8           0       -3.624701   -3.101394    2.841269
     44          8           0       -2.754696   -4.730703    1.687354
     45          6           0       -2.191023   -5.262366    2.885228
     46          6           0        2.810676   -0.668601   -1.308698
     47          6           0        4.179326   -0.417730   -0.559708
     48          6           0        5.200523    0.319102   -0.995973
     49          6           0        5.278668    1.148121   -2.245949
     50          6           0        6.443899    0.399965   -0.087665
     51          6           0        7.708580   -0.153657   -0.945830
     52          6           0        8.928915    0.052977   -0.060325
     53          6           0       10.235179   -0.499762   -0.675516
     54          6           0       10.064250   -2.068328   -0.994995
     55          6           0       11.486514   -0.127116    0.124799
     56          6           0       12.750654   -0.455711   -0.612145
     57          6           0       13.980836   -0.011539    0.195904
     58          6           0       15.287924   -0.169362   -0.391289
     59          6           0       15.649569   -1.631251   -0.719173
     60          6           0       16.351108    0.484091    0.531223
     61          6           0       17.783777    0.323827   -0.149243
     62          6           0       18.821168    1.164056    0.634718
     63          6           0       20.204547    1.182239    0.131137
     64          6           0       20.354933    2.112571   -1.129110
     65          6           0       21.077855    1.852394    1.212373
     66          1           0       -4.011646    3.512451    1.360383
     67          1           0      -10.056718    3.755602   -0.806577
     68          1           0      -10.421007   -2.365620   -1.281822
     69          1           0       -2.684352   -0.953206    2.060830
     70          1           0       -2.214290    1.941355    0.933842
     71          1           0       -1.857760    0.937669    3.185772
     72          1           0       -3.194396    2.241343    3.355469
     73          1           0       -3.402382    0.401595    3.638578
     74          1           0       -2.191780   -1.387967   -0.608692
     75          1           0       -1.985251    0.236500   -0.834230
     76          1           0       -0.122651    0.365632    0.957243
     77          1           0       -0.601157   -1.259535    1.431991
     78          1           0       -5.998375    6.886661    0.729496
     79          1           0       -5.507690    5.725358    2.270751
     80          1           0       -4.680610    5.973310    0.735134
     81          1           0       -9.554206    5.560684   -0.339565
     82          1           0       -9.213748    8.086212    0.621421
     83          1           0       -7.877227    7.537821    1.497991
     84          1           0      -12.119120    2.872841   -2.297469
     85          1           0      -13.301339    1.751038   -1.340658
     86          1           0      -12.334613    2.998700   -0.326487
     87          1           0      -12.644878   -1.769997   -0.941169
     88          1           0      -13.316125   -0.287058   -1.455083
     89          1           0      -13.023327   -1.914301   -3.264781
     90          1           0      -12.029250   -0.279686   -3.689693
     91          1           0      -11.281331   -1.610975   -3.306892
     92          1           0       -8.947961   -5.022213   -1.709497
     93          1           0       -7.989121   -5.757433   -0.397631
     94          1           0       -9.624501   -4.902350   -0.070650
     95          1           0       -3.309567   -3.222618   -0.212849
     96          1           0       -1.830604   -4.412152    3.423910
     97          1           0       -3.010289   -5.670060    3.455684
     98          1           0       -1.377445   -5.954955    2.266411
     99          1           0        2.965108   -1.692562   -1.335711
    100          1           0        2.657677   -0.024310   -2.042392
    101          1           0        4.106722   -0.958388    0.458946
    102          1           0        4.357315    1.259173   -2.865894
    103          1           0        5.635827    2.173403   -2.077499
    104          1           0        5.984334    0.647207   -3.019599
    105          1           0        6.479847    1.494559    0.255605
    106          1           0        6.415134   -0.215218    0.975846
    107          1           0        7.621760   -1.252370   -1.212305
    108          1           0        7.842011    0.538858   -1.954463
    109          1           0        8.870389    1.145149    0.152081
    110          1           0        8.796904   -0.405253    0.954744
    111          1           0       10.256654    0.144265   -1.731083
    112          1           0        9.266997   -2.261827   -1.917875
    113          1           0       11.002799   -2.321555   -1.482360
    114          1           0        9.948407   -2.560210    0.115113
    115          1           0       11.439935    1.000635    0.243647
    116          1           0       11.482252   -0.522521    1.067612
    117          1           0       12.447636   -1.549601   -0.962416
    118          1           0       12.919788   -0.027781   -1.706009
    119          1           0       13.732313    0.948565    0.415922
    120          1           0       13.844046   -0.506491    1.236919
    121          1           0       15.297956    0.413020   -1.256784
    122          1           0       15.481610   -2.306493    0.160435
    123          1           0       14.784443   -2.018715   -1.535312
    124          1           0       16.609827   -1.692406   -1.071570
    125          1           0       16.288983    1.560589    0.669649
    126          1           0       16.410922    0.007789    1.386406
    127          1           0       18.015719   -0.665440   -0.360793
    128          1           0       17.685384    0.788494   -1.275221
    129          1           0       18.533232    2.139669    0.703724
    130          1           0       18.821393    0.692049    1.474323
    131          1           0       20.496759    0.187628   -0.120569
    132          1           0       20.320810    3.109401   -0.772306
    133          1           0       21.370726    1.865619   -1.633704
    134          1           0       19.654466    1.925579   -1.824134
    135          1           0       21.265507    1.247268    2.239819
    136          1           0       22.039563    1.787330    0.757261
    137          1           0       20.734160    2.924627    1.406566
 ---------------------------------------------------------------------

 SCF Done:  E(RCAM-B3LYP) =  -2932.58941772     A.U. after   16 cycles

 Excitation energies and oscillator strengths:

 Excited State   1:      Singlet-A      2.2720 eV  545.71 nm  f=0.1362  <S**2>=0.000
     240 -> 242        0.12919
     240 -> 243        0.31953
     241 -> 242        0.58850
     241 -> 243       -0.15258
 This state for optimization and/or second-order correction.
 Total Energy, E(TD-HF/TD-KS) =  -2932.50592418
 Copying the excited state density for this state as the 1-particle RhoCI density.

 The electronic state is 1-A.
 Alpha  occ. eigenvalues --  -46.84600 -19.27242 -19.24314 -19.21900 -19.20812
 Alpha  occ. eigenvalues --  -19.20467 -14.41795 -14.39246 -14.38909 -14.38212
 Alpha  occ. eigenvalues --  -10.40714 -10.38669 -10.36826 -10.32375 -10.31401
 Alpha  occ. eigenvalues --  -10.30559 -10.29857 -10.29348 -10.29283 -10.29077
 Alpha  occ. eigenvalues --  -10.29003 -10.28900 -10.28763 -10.28436 -10.28359
 Alpha  occ. eigenvalues --  -10.28287 -10.28196 -10.28035 -10.27933 -10.27828
 Alpha  occ. eigenvalues --  -10.27555 -10.27502 -10.27489 -10.27454 -10.27425
 Alpha  occ. eigenvalues --  -10.27413 -10.27295 -10.27259 -10.27088 -10.26558
 Alpha  occ. eigenvalues --  -10.26554 -10.26489 -10.26391 -10.26362 -10.26347
 Alpha  occ. eigenvalues --  -10.26320 -10.26111 -10.25956 -10.25801 -10.25543
 Alpha  occ. eigenvalues --  -10.25497 -10.25334 -10.25278 -10.25229 -10.25191
 Alpha  occ. eigenvalues --  -10.25116 -10.25095 -10.25023 -10.24938 -10.24665
 Alpha  occ. eigenvalues --  -10.24590 -10.24130 -10.23709 -10.23612 -10.21903
 Alpha  occ. eigenvalues --   -3.13612  -1.88323  -1.87877  -1.87758  -1.18458
 Alpha  occ. eigenvalues --   -1.18168  -1.11453  -1.08530  -1.07694  -1.05661
 Alpha  occ. eigenvalues --   -1.04930  -1.03786  -1.01801  -0.93638  -0.91448
 Alpha  occ. eigenvalues --   -0.91209  -0.90318  -0.89862  -0.89678  -0.88986
 Alpha  occ. eigenvalues --   -0.88666  -0.88576  -0.87987  -0.87493  -0.85581
 Alpha  occ. eigenvalues --   -0.84970  -0.84239  -0.83710  -0.82765  -0.82247
 Alpha  occ. eigenvalues --   -0.81749  -0.81407  -0.80643  -0.79182  -0.78629
 Alpha  occ. eigenvalues --   -0.78026  -0.76894  -0.76329  -0.75761  -0.75615
 Alpha  occ. eigenvalues --   -0.75357  -0.75159  -0.74656  -0.73294  -0.72626
 Alpha  occ. eigenvalues --   -0.72487  -0.71027  -0.69210  -0.69145  -0.68363
 Alpha  occ. eigenvalues --   -0.67747  -0.66448  -0.65896  -0.65142  -0.64493
 Alpha  occ. eigenvalues --   -0.64002  -0.63853  -0.63534  -0.63356  -0.61825
 Alpha  occ. eigenvalues --   -0.61622  -0.61142  -0.60557  -0.60182  -0.59309
 Alpha  occ. eigenvalues --   -0.58857  -0.58381  -0.57645  -0.57558  -0.56595
 Alpha  occ. eigenvalues --   -0.56461  -0.55714  -0.55615  -0.55257  -0.54823
 Alpha  occ. eigenvalues --   -0.54453  -0.54353  -0.53874  -0.53345  -0.53165
 Alpha  occ. eigenvalues --   -0.52955  -0.52657  -0.52138  -0.51924  -0.51584
 Alpha  occ. eigenvalues --   -0.51350  -0.51192  -0.51101  -0.50980  -0.50599
 Alpha  occ. eigenvalues --   -0.50502  -0.50379  -0.50193  -0.50038  -0.49941
 Alpha  occ. eigenvalues --   -0.49500  -0.49048  -0.48910  -0.48720  -0.48473
 Alpha  occ. eigenvalues --   -0.48404  -0.48090  -0.47742  -0.47594  -0.47499
 Alpha  occ. eigenvalues --   -0.47107  -0.46905  -0.46694  -0.46470  -0.46170
 Alpha  occ. eigenvalues --   -0.45920  -0.45827  -0.45749  -0.45596  -0.45229
 Alpha  occ. eigenvalues --   -0.45090  -0.44960  -0.44740  -0.44641  -0.44460
 Alpha  occ. eigenvalues --   -0.44220  -0.44107  -0.43992  -0.43502  -0.43265
 Alpha  occ. eigenvalues --   -0.43170  -0.43012  -0.42942  -0.42791  -0.41982
 Alpha  occ. eigenvalues --   -0.41916  -0.41879  -0.41620  -0.41331  -0.41210
 Alpha  occ. eigenvalues --   -0.41081  -0.40707  -0.40490  -0.40353  -0.40323
 Alpha  occ. eigenvalues --   -0.40210  -0.39322  -0.38849  -0.38829  -0.38395
 Alpha  occ. eigenvalues --   -0.38239  -0.38089  -0.38069  -0.37723  -0.37407
 Alpha  occ. eigenvalues --   -0.37321  -0.36818  -0.36772  -0.36398  -0.36316
 Alpha  occ. eigenvalues --   -0.36009  -0.35902  -0.35780  -0.35645  -0.35353
 Alpha  occ. eigenvalues --   -0.35082  -0.34996  -0.34080  -0.33544  -0.33339
 Alpha  occ. eigenvalues --   -0.32950  -0.32714  -0.32636  -0.31220  -0.30705
 Alpha  occ. eigenvalues --   -0.29726  -0.29681  -0.26992  -0.26498  -0.23211
 Alpha  occ. eigenvalues --   -0.21623
 Alpha virt. eigenvalues --   -0.05499  -0.03958   0.00972   0.04017   0.04636
 Alpha virt. eigenvalues --    0.05873   0.06205   0.06856   0.07418   0.07822
 Alpha virt. eigenvalues --    0.08658   0.10686   0.11108   0.11143   0.11358

 Mulliken charges:
               1
     1  Mg   0.813879
     2  C    0.118176
     3  C   -0.212783
     4  C   -0.161917
     5  C   -0.197703
     6  N   -0.634078
     7  C    0.299816
     8  C   -0.180654
     9  C   -0.178545
    10  C    0.407901
    11  C   -0.311721
    12  C   -0.154176
    13  C   -0.246231
    14  C    0.576540
    15  O   -0.506761
    16  O   -0.458262
    17  N   -0.711967
    18  C    0.328478
    19  C   -0.044509
    20  C   -0.001548
    21  C    0.339983
    22  C   -0.338130
    23  C   -0.027818
    24  C   -0.279245
    25  N   -0.667517
    26  C    0.246685
    27  C   -0.029408
    28  C   -0.033746
    29  C    0.296299
    30  C   -0.347239
    31  C   -0.223687
    32  C   -0.299500
    33  N   -0.777880
    34  C    0.292171
    35  C    0.132587
    36  C   -0.078693
    37  C    0.327619
    38  C   -0.413953
    39  C    0.404960
    40  O   -0.446574
    41  C   -0.361213
    42  C    0.600046
    43  O   -0.476515
    44  O   -0.464184
    45  C   -0.072942
    46  C    0.055359
    47  C   -0.187682
    48  C    0.138954
    49  C   -0.373706
    50  C   -0.220018
    51  C   -0.170873
    52  C   -0.156208
    53  C   -0.065577
    54  C   -0.305558
    55  C   -0.165491
    56  C   -0.168941
    57  C   -0.155039
    58  C   -0.057115
    59  C   -0.299440
    60  C   -0.171445
    61  C   -0.214288
    62  C   -0.124829
    63  C   -0.084212
    64  C   -0.306468
    65  C   -0.299108
    66  H    0.076473
    67  H    0.099743
    68  H    0.097592
    69  H    0.132809
    70  H    0.088014
    71  H    0.122086
    72  H    0.111008
    73  H    0.108411
    74  H    0.111223
    75  H    0.130831
    76  H    0.146729
    77  H    0.133232
    78  H    0.121409
    79  H    0.096379
    80  H    0.121595
    81  H    0.054064
    82  H    0.111902
    83  H    0.104597
    84  H    0.131934
    85  H    0.118615
    86  H    0.135802
    87  H    0.082904
    88  H    0.108826
    89  H    0.107707
    90  H    0.112716
    91  H    0.095341
    92  H    0.135414
    93  H    0.147886
    94  H    0.123581
    95  H    0.160931
    96  H    0.132076
    97  H    0.138220
    98  H    0.120750
    99  H    0.140401
   100  H    0.122690
   101  H    0.096170
   102  H    0.112730
   103  H    0.122546
   104  H    0.117434
   105  H    0.098298
   106  H    0.083646
   107  H    0.105186
   108  H    0.076194
   109  H    0.087879
   110  H    0.075666
   111  H    0.052548
   112  H    0.095212
   113  H    0.116837
   114  H    0.095284
   115  H    0.085059
   116  H    0.103175
   117  H    0.067801
   118  H    0.067881
   119  H    0.102948
   120  H    0.065737
   121  H    0.091594
   122  H    0.099630
   123  H    0.075165
   124  H    0.113203
   125  H    0.092709
   126  H    0.102482
   127  H    0.100142
   128  H    0.048761
   129  H    0.085467
   130  H    0.100618
   131  H    0.085065
   132  H    0.103690
   133  H    0.085332
   134  H    0.111446
   135  H    0.074719
   136  H    0.106607
   137  H    0.096895
 Sum of Mulliken charges =   0.00000

 Dipole moment (field-independent basis, Debye):
    X=              2.5836    Y=              2.7556    Z=              0.2418  Tot=              3.7851
 Quadrupole moment (field-independent basis, Debye-Ang):
   XX=           -354.6889   YY=           -397.8268   ZZ=           -399.8047
   XY=             -4.4524   XZ=             14.9362   YZ=             -1.9667

 Normal termination of Gaussian 09 at Thu Jul  4 03:04:53 2019.
