 Gaussian 16, Revision A.03,
 Gaussian 16:  ES64L-G16RevA.03 25-Dec-2016

 ----------------------------------------------------------------------
 # td=(NStates=1) iop(3/107=0140000000,3/108=0140000000) CAM-B3LYP/6-31
 G(d,p)
 ----------------------------------------------------------------------

 --
 TD
 --
 Symbolic Z-matrix:
 Charge =  0 Multiplicity = 1

                         Standard orientation:
 ---------------------------------------------------------------------
 Center     Atomic      Atomic             Coordinates (Angstroms)
 Number     Number       Type             X           Y           Z
 ---------------------------------------------------------------------
      1         12           0       -7.055836    0.551503    0.014197
      2          6           0       -4.904323   -1.934299    0.551828
      3          6           0       -4.839753    2.940928    1.293611
      4          6           0       -9.406585    3.220327   -0.536112
      5          6           0       -9.634485   -1.703226   -1.032723
      6          7           0       -5.046432    0.499827    0.706641
      7          6           0       -4.327315   -0.698631    0.824512
      8          6           0       -2.920363   -0.414844    1.304519
      9          6           0       -3.062476    1.062378    1.831306
     10          6           0       -4.406108    1.570601    1.242067
     11          6           0       -3.082211    1.121872    3.347566
     12          6           0       -1.921574   -0.522846    0.086316
     13          6           0       -0.444855   -0.421578    0.648675
     14          6           0        0.515595   -0.769496   -0.501395
     15          8           0        0.263690   -1.261576   -1.544899
     16          8           0        1.761807   -0.347699   -0.075497
     17          7           0       -7.154455    2.610940    0.202184
     18          6           0       -6.104405    3.365489    0.769396
     19          6           0       -6.438375    4.737979    0.845133
     20          6           0       -7.742812    4.884655    0.395649
     21          6           0       -8.113155    3.574908   -0.008710
     22          6           0       -5.576228    5.918082    1.291464
     23          6           0       -8.550663    6.029072    0.178561
     24          6           0       -8.509534    7.219109    0.878738
     25          7           0       -9.178550    0.689407   -0.589285
     26          6           0       -9.838483    1.841503   -0.820818
     27          6           0      -11.246684    1.540060   -1.369063
     28          6           0      -11.237168    0.082601   -1.425385
     29          6           0      -10.008607   -0.415161   -0.987378
     30          6           0      -12.268616    2.597586   -1.674870
     31          6           0      -12.454349   -0.632387   -1.914000
     32          6           0      -12.093356   -1.329339   -3.348056
     33          7           0       -7.293997   -1.359550   -0.170735
     34          6           0       -8.324177   -2.209673   -0.594640
     35          6           0       -7.923150   -3.537831   -0.460966
     36          6           0       -6.633899   -3.549467   -0.144993
     37          6           0       -6.211248   -2.206265    0.053800
     38          6           0       -8.618009   -4.828788   -0.839907
     39          6           0       -5.312590   -4.410256    0.247581
     40          8           0       -5.159224   -5.576384    0.206409
     41          6           0       -4.196799   -3.294351    0.688219
     42          6           0       -3.514099   -3.653703    1.950277
     43          8           0       -3.716325   -3.113281    2.972800
     44          8           0       -2.785963   -4.775145    1.823399
     45          6           0       -2.338733   -5.276967    3.121200
     46          6           0        2.808906   -0.541407   -1.070134
     47          6           0        4.123211   -0.438908   -0.333139
     48          6           0        5.122423    0.215219   -0.849919
     49          6           0        5.131746    1.237509   -2.154579
     50          6           0        6.472625    0.116382   -0.087464
     51          6           0        7.716064   -0.188534   -0.911768
     52          6           0        8.896088   -0.081584   -0.123006
     53          6           0       10.264447   -0.669397   -0.914220
     54          6           0       10.206477   -2.153216   -1.343583
     55          6           0       11.578389   -0.402072   -0.123055
     56          6           0       12.868046   -0.654042   -0.809133
     57          6           0       14.008226   -0.181636    0.107814
     58          6           0       15.395279   -0.262412   -0.504150
     59          6           0       15.778510   -1.667436   -1.073447
     60          6           0       16.407608    0.333485    0.483258
     61          6           0       17.874804    0.597952   -0.264125
     62          6           0       18.775947    1.401620    0.622024
     63          6           0       20.139904    1.492196    0.156955
     64          6           0       20.308557    2.398116   -1.028080
     65          6           0       21.100069    2.073141    1.219126
     66          1           0       -4.068225    3.549119    1.563943
     67          1           0      -10.197120    3.906308   -0.590941
     68          1           0      -10.384628   -2.552312   -1.279353
     69          1           0       -2.757699   -1.139378    2.166060
     70          1           0       -2.221511    1.824570    1.527228
     71          1           0       -2.179380    0.756038    3.934816
     72          1           0       -3.451473    2.122825    3.686863
     73          1           0       -3.938861    0.671291    3.772479
     74          1           0       -1.825451   -1.565798   -0.349642
     75          1           0       -2.110111    0.310442   -0.590230
     76          1           0       -0.187766    0.530154    1.182154
     77          1           0       -0.246489   -1.081806    1.554004
     78          1           0       -5.694966    6.723814    0.526915
     79          1           0       -5.817802    6.229835    2.428795
     80          1           0       -4.543505    5.670950    1.171678
     81          1           0       -9.238973    5.889443   -0.600766
     82          1           0       -9.006005    7.921418    0.583347
     83          1           0       -7.938746    7.507315    1.772006
     84          1           0      -11.879850    3.379268   -2.556542
     85          1           0      -13.310930    2.238514   -2.186602
     86          1           0      -12.508133    3.174559   -0.802808
     87          1           0      -12.600685   -1.580481   -1.166491
     88          1           0      -13.376268   -0.236248   -1.945407
     89          1           0      -12.755982   -2.104046   -3.642122
     90          1           0      -11.959090   -0.583018   -4.137323
     91          1           0      -11.241519   -1.870258   -3.305381
     92          1           0       -9.443277   -4.725058   -1.774528
     93          1           0       -7.870266   -5.552411   -0.993242
     94          1           0       -9.069321   -5.202609    0.094408
     95          1           0       -3.422661   -3.428753   -0.070743
     96          1           0       -1.854863   -4.333462    3.718676
     97          1           0       -2.995658   -5.494350    3.761558
     98          1           0       -1.690707   -6.082060    2.766386
     99          1           0        2.647997   -1.663081   -1.459207
    100          1           0        2.844551    0.103751   -1.900875
    101          1           0        4.188225   -0.875402    0.660127
    102          1           0        4.059290    1.736724   -2.444033
    103          1           0        5.832827    2.146520   -1.914977
    104          1           0        5.504584    0.845607   -3.147718
    105          1           0        6.738124    1.197437    0.477228
    106          1           0        6.604992   -0.450245    0.728789
    107          1           0        7.875204   -1.142071   -1.380741
    108          1           0        7.876410    0.202090   -1.763337
    109          1           0        9.135750    1.058123    0.251181
    110          1           0        9.111545   -0.816050    0.681413
    111          1           0       10.331411   -0.307056   -1.994374
    112          1           0        9.333202   -2.234064   -2.032018
    113          1           0       11.176887   -2.522862   -1.900895
    114          1           0        9.956831   -2.901475   -0.379576
    115          1           0       11.531952    0.646313   -0.246571
    116          1           0       11.412414   -0.846742    0.859129
    117          1           0       13.104001   -1.828459   -0.922113
    118          1           0       12.797167   -0.150599   -1.846409
    119          1           0       13.870376    0.817789    0.461347
    120          1           0       13.886206   -1.050463    0.739349
    121          1           0       15.396077    0.513397   -1.135579
    122          1           0       15.673726   -2.415641   -0.234539
    123          1           0       15.086292   -2.104432   -1.729375
    124          1           0       16.903925   -1.493331   -1.403163
    125          1           0       16.101361    1.211989    0.900004
    126          1           0       16.866178   -0.552320    1.093106
    127          1           0       18.483023   -0.396843   -0.518246
    128          1           0       17.637080    1.380417   -1.093301
    129          1           0       18.440643    2.502626    0.506205
    130          1           0       18.752316    1.023163    1.706472
    131          1           0       20.487097    0.488805    0.035522
    132          1           0       20.014957    3.455984   -0.607562
    133          1           0       21.292368    2.592367   -1.381993
    134          1           0       19.644013    2.106738   -1.905587
    135          1           0       21.188433    1.324186    2.081047
    136          1           0       22.068293    2.214560    0.757567
    137          1           0       20.677970    3.060866    1.570145
 ---------------------------------------------------------------------

 SCF Done:  E(RCAM-B3LYP) =  -2933.44293877     A.U. after   16 cycles

 Excitation energies and oscillator strengths:

 Excited State   1:      Singlet-A      2.0466 eV  605.81 nm  f=0.2259  <S**2>=0.000
     240 -> 242       -0.10299
     240 -> 243        0.23600
     241 -> 242        0.65319
 This state for optimization and/or second-order correction.
 Total Energy, E(TD-HF/TD-DFT) =  -2933.36772856
 Copying the excited state density for this state as the 1-particle RhoCI density.

 The electronic state is 1-A.
 Alpha  occ. eigenvalues --  -46.79981 -19.22156 -19.21532 -19.17989 -19.17891
 Alpha  occ. eigenvalues --  -19.16764 -14.37749 -14.35618 -14.34829 -14.34764
 Alpha  occ. eigenvalues --  -10.34616 -10.33965 -10.32302 -10.27310 -10.26994
 Alpha  occ. eigenvalues --  -10.26470 -10.26067 -10.25890 -10.25471 -10.25231
 Alpha  occ. eigenvalues --  -10.25172 -10.24361 -10.24332 -10.24327 -10.24104
 Alpha  occ. eigenvalues --  -10.24037 -10.24036 -10.23896 -10.23771 -10.23675
 Alpha  occ. eigenvalues --  -10.23648 -10.23379 -10.23330 -10.22780 -10.22724
 Alpha  occ. eigenvalues --  -10.22709 -10.22665 -10.22464 -10.22450 -10.22419
 Alpha  occ. eigenvalues --  -10.22362 -10.22326 -10.22309 -10.22275 -10.22152
 Alpha  occ. eigenvalues --  -10.22089 -10.22031 -10.21922 -10.21789 -10.21639
 Alpha  occ. eigenvalues --  -10.21330 -10.21192 -10.21100 -10.21047 -10.20664
 Alpha  occ. eigenvalues --  -10.20596 -10.20576 -10.20458 -10.20367 -10.20170
 Alpha  occ. eigenvalues --  -10.19978 -10.19960 -10.19735 -10.19405 -10.18946
 Alpha  occ. eigenvalues --   -3.08488  -1.83431  -1.82952  -1.82902  -1.14430
 Alpha  occ. eigenvalues --   -1.13075  -1.09307  -1.05723  -1.05584  -0.98321
 Alpha  occ. eigenvalues --   -0.97665  -0.97184  -0.95523  -0.86364  -0.86249
 Alpha  occ. eigenvalues --   -0.86007  -0.85147  -0.84270  -0.83925  -0.83388
 Alpha  occ. eigenvalues --   -0.83183  -0.82338  -0.81908  -0.81573  -0.80994
 Alpha  occ. eigenvalues --   -0.80223  -0.78996  -0.78056  -0.77751  -0.76742
 Alpha  occ. eigenvalues --   -0.76497  -0.75845  -0.75294  -0.74408  -0.73146
 Alpha  occ. eigenvalues --   -0.72586  -0.72339  -0.71375  -0.70874  -0.70655
 Alpha  occ. eigenvalues --   -0.69970  -0.69928  -0.69839  -0.68382  -0.67845
 Alpha  occ. eigenvalues --   -0.66306  -0.65985  -0.65673  -0.65103  -0.64464
 Alpha  occ. eigenvalues --   -0.63130  -0.62530  -0.60840  -0.60534  -0.60021
 Alpha  occ. eigenvalues --   -0.59808  -0.58982  -0.58288  -0.58151  -0.57624
 Alpha  occ. eigenvalues --   -0.56919  -0.56718  -0.56041  -0.55600  -0.54784
 Alpha  occ. eigenvalues --   -0.54610  -0.53960  -0.53366  -0.53175  -0.52355
 Alpha  occ. eigenvalues --   -0.52228  -0.52142  -0.51853  -0.51106  -0.51013
 Alpha  occ. eigenvalues --   -0.50775  -0.50245  -0.50087  -0.49971  -0.49814
 Alpha  occ. eigenvalues --   -0.49180  -0.48913  -0.48353  -0.48117  -0.47656
 Alpha  occ. eigenvalues --   -0.47115  -0.46957  -0.46903  -0.46669  -0.46566
 Alpha  occ. eigenvalues --   -0.46387  -0.46290  -0.46003  -0.45703  -0.45476
 Alpha  occ. eigenvalues --   -0.45169  -0.45084  -0.44947  -0.44508  -0.44435
 Alpha  occ. eigenvalues --   -0.44333  -0.44158  -0.44088  -0.43877  -0.43299
 Alpha  occ. eigenvalues --   -0.43131  -0.43033  -0.42626  -0.42506  -0.42344
 Alpha  occ. eigenvalues --   -0.42240  -0.42069  -0.42029  -0.41940  -0.41639
 Alpha  occ. eigenvalues --   -0.41513  -0.41338  -0.41242  -0.41180  -0.40699
 Alpha  occ. eigenvalues --   -0.40596  -0.40277  -0.40118  -0.40048  -0.39919
 Alpha  occ. eigenvalues --   -0.39569  -0.39514  -0.39312  -0.39090  -0.38956
 Alpha  occ. eigenvalues --   -0.38914  -0.38718  -0.38512  -0.38403  -0.38313
 Alpha  occ. eigenvalues --   -0.38161  -0.37976  -0.37810  -0.37563  -0.37327
 Alpha  occ. eigenvalues --   -0.37036  -0.36884  -0.36855  -0.36505  -0.36137
 Alpha  occ. eigenvalues --   -0.36088  -0.35087  -0.34774  -0.34709  -0.34474
 Alpha  occ. eigenvalues --   -0.34356  -0.34200  -0.33444  -0.33397  -0.33314
 Alpha  occ. eigenvalues --   -0.33117  -0.32984  -0.32878  -0.32571  -0.32338
 Alpha  occ. eigenvalues --   -0.32219  -0.31435  -0.31231  -0.30790  -0.30495
 Alpha  occ. eigenvalues --   -0.29810  -0.29653  -0.29146  -0.28488  -0.27564
 Alpha  occ. eigenvalues --   -0.27169  -0.26868  -0.24847  -0.24102  -0.21310
 Alpha  occ. eigenvalues --   -0.20001
 Alpha virt. eigenvalues --   -0.07009  -0.03837   0.00395   0.02109   0.03816
 Alpha virt. eigenvalues --    0.04079   0.04513   0.04858   0.05145   0.05842
 Alpha virt. eigenvalues --    0.06259   0.08897   0.09499   0.09782   0.09975

 Mulliken charges:
               1
     1  Mg   0.822592
     2  C    0.100401
     3  C   -0.166977
     4  C   -0.172197
     5  C   -0.176991
     6  N   -0.640361
     7  C    0.274485
     8  C   -0.162838
     9  C   -0.149752
    10  C    0.318522
    11  C   -0.318998
    12  C   -0.159247
    13  C   -0.288679
    14  C    0.621819
    15  O   -0.443160
    16  O   -0.485129
    17  N   -0.695804
    18  C    0.312810
    19  C   -0.000319
    20  C    0.079365
    21  C    0.287271
    22  C   -0.364693
    23  C   -0.114645
    24  C   -0.209464
    25  N   -0.674787
    26  C    0.295107
    27  C    0.028576
    28  C    0.030495
    29  C    0.335168
    30  C   -0.384165
    31  C   -0.233397
    32  C   -0.330424
    33  N   -0.747838
    34  C    0.259852
    35  C   -0.040868
    36  C    0.017051
    37  C    0.249401
    38  C   -0.368777
    39  C    0.390663
    40  O   -0.403785
    41  C   -0.328380
    42  C    0.616739
    43  O   -0.456056
    44  O   -0.451609
    45  C   -0.079266
    46  C    0.014663
    47  C   -0.115979
    48  C    0.128633
    49  C   -0.371096
    50  C   -0.212878
    51  C   -0.137550
    52  C   -0.169809
    53  C   -0.119384
    54  C   -0.295170
    55  C   -0.134842
    56  C   -0.190205
    57  C   -0.159543
    58  C   -0.026488
    59  C   -0.329378
    60  C   -0.174804
    61  C   -0.192514
    62  C   -0.141552
    63  C   -0.047436
    64  C   -0.305537
    65  C   -0.302878
    66  H    0.080156
    67  H    0.081208
    68  H    0.101627
    69  H    0.128382
    70  H    0.087325
    71  H    0.108451
    72  H    0.097679
    73  H    0.131364
    74  H    0.127571
    75  H    0.123043
    76  H    0.129653
    77  H    0.130175
    78  H    0.127558
    79  H    0.111681
    80  H    0.112529
    81  H    0.096033
    82  H    0.090455
    83  H    0.101386
    84  H    0.097274
    85  H    0.099399
    86  H    0.137283
    87  H    0.072773
    88  H    0.111009
    89  H    0.099509
    90  H    0.111431
    91  H    0.118096
    92  H    0.089838
    93  H    0.147194
    94  H    0.127943
    95  H    0.159758
    96  H    0.102432
    97  H    0.149616
    98  H    0.128152
    99  H    0.111693
   100  H    0.116566
   101  H    0.098942
   102  H    0.101934
   103  H    0.115896
   104  H    0.125844
   105  H    0.060244
   106  H    0.112833
   107  H    0.088846
   108  H    0.100499
   109  H    0.065418
   110  H    0.098350
   111  H    0.067191
   112  H    0.097447
   113  H    0.102950
   114  H    0.057867
   115  H    0.105485
   116  H    0.090740
   117  H    0.061597
   118  H    0.075369
   119  H    0.082361
   120  H    0.095400
   121  H    0.089034
   122  H    0.093393
   123  H    0.118832
   124  H    0.098623
   125  H    0.099247
   126  H    0.084129
   127  H    0.081374
   128  H    0.084175
   129  H    0.067467
   130  H    0.076658
   131  H    0.082663
   132  H    0.080351
   133  H    0.109088
   134  H    0.095245
   135  H    0.085798
   136  H    0.101852
   137  H    0.092650
 Sum of Mulliken charges =  -0.00000

 Dipole moment (field-independent basis, Debye):
    X=              2.0170    Y=              4.1203    Z=              0.5106  Tot=              4.6158
 Quadrupole moment (field-independent basis, Debye-Ang):
   XX=           -364.7233   YY=           -387.7863   ZZ=           -394.9801
   XY=            -18.7346   XZ=              2.9279   YZ=             -6.3636

 Normal termination of Gaussian 16 at Tue Sep 10 05:59:27 2019.
