 Gaussian 09, Revision D.01,
 Gaussian 09:  ES64L-G09RevD.01 24-Apr-2013

 -------------------------------------
 # td=(NStates=1) CAM-B3LYP/6-31G(d,p)
 -------------------------------------

 --
 TD
 --
 Symbolic Z-matrix:
 Charge =  0 Multiplicity = 1

                         Standard orientation:
 ---------------------------------------------------------------------
 Center     Atomic      Atomic             Coordinates (Angstroms)
 Number     Number       Type             X           Y           Z
 ---------------------------------------------------------------------
      1         12           0       -7.165069    0.587445    0.068161
      2          6           0       -4.832785   -1.953643    0.440476
      3          6           0       -4.837559    2.833751    1.046147
      4          6           0       -9.423857    3.144160   -0.447221
      5          6           0       -9.529707   -1.734475   -0.806237
      6          7           0       -5.143443    0.407692    0.752780
      7          6           0       -4.363318   -0.648419    0.800407
      8          6           0       -2.846766   -0.271496    1.173786
      9          6           0       -3.015325    1.129353    1.532781
     10          6           0       -4.457379    1.557997    1.079056
     11          6           0       -2.826847    1.473142    2.994446
     12          6           0       -1.982687   -0.633985    0.036355
     13          6           0       -0.543790   -0.417486    0.550881
     14          6           0        0.494961   -0.768953   -0.473032
     15          8           0        0.252728   -1.094029   -1.655907
     16          8           0        1.735385   -0.531734   -0.027969
     17          7           0       -7.167170    2.668113    0.109877
     18          6           0       -6.046440    3.382236    0.656633
     19          6           0       -6.415771    4.739453    0.816322
     20          6           0       -7.738010    4.850466    0.367020
     21          6           0       -8.150460    3.466882    0.007375
     22          6           0       -5.463459    5.851767    1.053456
     23          6           0       -8.663773    5.962726    0.165410
     24          6           0       -8.464635    7.138749    0.875692
     25          7           0       -9.155908    0.606882   -0.509683
     26          6           0       -9.830215    1.737522   -0.658515
     27          6           0      -11.194601    1.387698   -1.080844
     28          6           0      -11.312243    0.121712   -1.217520
     29          6           0       -9.978022   -0.399653   -0.892468
     30          6           0      -12.352017    2.429233   -1.413535
     31          6           0      -12.474351   -0.701117   -1.679105
     32          6           0      -12.330398   -1.049181   -3.151502
     33          7           0       -7.159150   -1.361048   -0.159083
     34          6           0       -8.185626   -2.165122   -0.499679
     35          6           0       -7.827702   -3.554561   -0.368017
     36          6           0       -6.446758   -3.554525   -0.032834
     37          6           0       -6.156366   -2.190464    0.064196
     38          6           0       -8.681801   -4.780552   -0.652467
     39          6           0       -5.268144   -4.299795    0.233138
     40          8           0       -5.135533   -5.554644    0.378087
     41          6           0       -4.136648   -3.341068    0.549139
     42          6           0       -3.500626   -3.630992    1.898919
     43          8           0       -3.793648   -3.138790    2.985480
     44          8           0       -2.586200   -4.635423    1.677428
     45          6           0       -2.115661   -5.215009    2.871122
     46          6           0        2.852044   -0.810104   -1.014497
     47          6           0        4.169437   -0.615801   -0.406693
     48          6           0        5.189474    0.222619   -0.926243
     49          6           0        5.090037    0.952140   -2.267990
     50          6           0        6.476066    0.275937   -0.179312
     51          6           0        7.623035   -0.312987   -0.923554
     52          6           0        8.904337   -0.294470   -0.186848
     53          6           0       10.169302   -0.554780   -0.997502
     54          6           0       10.187246   -2.033474   -1.495189
     55          6           0       11.512986   -0.267401   -0.187116
     56          6           0       12.810922   -0.555398   -0.778784
     57          6           0       13.908832   -0.119659    0.195420
     58          6           0       15.372543   -0.242604   -0.483575
     59          6           0       15.717600   -1.712156   -0.842908
     60          6           0       16.443097    0.407843    0.447701
     61          6           0       17.823718    0.791334   -0.155236
     62          6           0       18.728886    1.299704    0.851575
     63          6           0       20.164368    1.523502    0.283833
     64          6           0       20.279340    2.211961   -1.043935
     65          6           0       21.079193    2.169231    1.318440
     66          1           0       -4.136727    3.602802    1.247475
     67          1           0      -10.088429    3.929659   -0.492546
     68          1           0      -10.187094   -2.533572   -1.082682
     69          1           0       -2.839425   -0.765543    2.187165
     70          1           0       -2.273340    1.665995    0.897145
     71          1           0       -1.747182    1.377422    3.367511
     72          1           0       -2.978419    2.558710    3.101020
     73          1           0       -3.420573    0.966703    3.805550
     74          1           0       -2.139694   -1.666319   -0.437475
     75          1           0       -2.234020   -0.019730   -0.789314
     76          1           0       -0.357550    0.734776    0.911567
     77          1           0       -0.445879   -1.092673    1.378330
     78          1           0       -6.096061    6.813889    0.626982
     79          1           0       -5.460303    6.246909    2.116354
     80          1           0       -4.394461    5.667816    0.686972
     81          1           0       -9.593451    5.722614   -0.402205
     82          1           0       -9.187253    8.080741    0.599997
     83          1           0       -7.575240    7.299001    1.449474
     84          1           0      -11.978271    3.148302   -2.264415
     85          1           0      -13.171970    1.708578   -1.776410
     86          1           0      -12.468689    3.053069   -0.549023
     87          1           0      -12.302591   -1.603020   -1.227992
     88          1           0      -13.388988   -0.082366   -1.889428
     89          1           0      -13.294284   -1.861262   -3.366162
     90          1           0      -12.622807   -0.213591   -3.773945
     91          1           0      -11.412578   -1.341181   -3.274562
     92          1           0       -9.145902   -4.654031   -1.672851
     93          1           0       -8.111102   -5.687779   -0.683618
     94          1           0       -9.355079   -4.844372    0.238065
     95          1           0       -3.241005   -3.216728   -0.432604
     96          1           0       -1.385317   -4.422418    3.344279
     97          1           0       -2.960187   -5.504241    3.549951
     98          1           0       -1.350795   -6.050334    2.644068
     99          1           0        2.714102   -1.772741   -1.535943
    100          1           0        2.640454    0.098983   -1.733706
    101          1           0        4.393037   -1.101891    0.526250
    102          1           0        3.907351    0.982450   -2.489009
    103          1           0        5.714831    1.880034   -2.434929
    104          1           0        5.664321    0.406398   -3.036483
    105          1           0        6.740325    1.292883    0.078639
    106          1           0        6.431240   -0.307734    0.704244
    107          1           0        7.362618   -1.460076   -1.316034
    108          1           0        7.652834   -0.105654   -1.751914
    109          1           0        9.040776    0.713538    0.043123
    110          1           0        8.854456   -0.937965    0.794750
    111          1           0       10.283430    0.250596   -1.879899
    112          1           0        9.216102   -2.180271   -2.111379
    113          1           0       11.084284   -2.493409   -2.083828
    114          1           0       10.203752   -2.506457   -0.628820
    115          1           0       11.708921    0.878075    0.055341
    116          1           0       11.396948   -0.838549    0.679857
    117          1           0       12.875868   -1.639138   -0.935387
    118          1           0       12.743494    0.032524   -1.835896
    119          1           0       13.926990    0.908245    0.517940
    120          1           0       14.074005   -0.704221    0.981637
    121          1           0       15.317342    0.430502   -1.427268
    122          1           0       15.683540   -2.222995    0.083533
    123          1           0       14.988983   -2.228804   -1.529609
    124          1           0       16.733851   -1.861709   -1.302872
    125          1           0       16.053294    1.328449    0.730829
    126          1           0       16.584753   -0.289593    1.240852
    127          1           0       18.247804   -0.241370   -0.524933
    128          1           0       17.857545    1.552889   -1.170141
    129          1           0       18.477526    2.377568    1.079416
    130          1           0       18.833810    0.895546    1.709014
    131          1           0       20.409936    0.444508    0.308061
    132          1           0       19.950946    3.387150   -0.937664
    133          1           0       21.273962    2.193076   -1.572466
    134          1           0       19.538969    1.878507   -1.785402
    135          1           0       20.910909    1.590725    2.287560
    136          1           0       21.971914    2.088068    1.175892
    137          1           0       20.836010    3.209469    1.673679
 ---------------------------------------------------------------------

 SCF Done:  E(RCAM-B3LYP) =  -2932.58222867     A.U. after   18 cycles

 Excitation energies and oscillator strengths:

 Excited State   1:      Singlet-A      1.9353 eV  640.64 nm  f=0.3572  <S**2>=0.000
     240 -> 242       -0.10946
     240 -> 243        0.21151
     241 -> 242        0.65981
 This state for optimization and/or second-order correction.
 Total Energy, E(TD-HF/TD-KS) =  -2932.51110652
 Copying the excited state density for this state as the 1-particle RhoCI density.

 The electronic state is 1-A.
 Alpha  occ. eigenvalues --  -46.84840 -19.26367 -19.26106 -19.21981 -19.20016
 Alpha  occ. eigenvalues --  -19.19067 -14.42087 -14.39902 -14.39417 -14.39079
 Alpha  occ. eigenvalues --  -10.40121 -10.38850 -10.34493 -10.33025 -10.32002
 Alpha  occ. eigenvalues --  -10.30661 -10.30650 -10.30336 -10.29937 -10.29806
 Alpha  occ. eigenvalues --  -10.29178 -10.29140 -10.29135 -10.28732 -10.28624
 Alpha  occ. eigenvalues --  -10.28564 -10.28371 -10.28251 -10.28108 -10.28071
 Alpha  occ. eigenvalues --  -10.27885 -10.27607 -10.27548 -10.27447 -10.27374
 Alpha  occ. eigenvalues --  -10.27199 -10.27142 -10.26906 -10.26848 -10.26836
 Alpha  occ. eigenvalues --  -10.26771 -10.26729 -10.26649 -10.26433 -10.26299
 Alpha  occ. eigenvalues --  -10.26142 -10.25930 -10.25856 -10.25759 -10.25751
 Alpha  occ. eigenvalues --  -10.25726 -10.25682 -10.25476 -10.25393 -10.25261
 Alpha  occ. eigenvalues --  -10.25057 -10.24947 -10.24767 -10.24679 -10.24617
 Alpha  occ. eigenvalues --  -10.24320 -10.24317 -10.24130 -10.23320 -10.22965
 Alpha  occ. eigenvalues --   -3.13912  -1.88616  -1.88148  -1.88096  -1.17739
 Alpha  occ. eigenvalues --   -1.16619  -1.09410  -1.07522  -1.06679  -1.05795
 Alpha  occ. eigenvalues --   -1.05015  -1.04722  -1.03931  -0.92633  -0.92559
 Alpha  occ. eigenvalues --   -0.91614  -0.90886  -0.90554  -0.90128  -0.89961
 Alpha  occ. eigenvalues --   -0.89095  -0.88516  -0.87225  -0.87171  -0.86537
 Alpha  occ. eigenvalues --   -0.85651  -0.84508  -0.83745  -0.83647  -0.82628
 Alpha  occ. eigenvalues --   -0.82056  -0.81035  -0.80831  -0.80029  -0.78292
 Alpha  occ. eigenvalues --   -0.77647  -0.76895  -0.76819  -0.76448  -0.75746
 Alpha  occ. eigenvalues --   -0.75661  -0.75139  -0.75072  -0.73626  -0.72643
 Alpha  occ. eigenvalues --   -0.71839  -0.71316  -0.69718  -0.69190  -0.68498
 Alpha  occ. eigenvalues --   -0.67908  -0.66982  -0.65590  -0.65451  -0.65035
 Alpha  occ. eigenvalues --   -0.64236  -0.62801  -0.62562  -0.62328  -0.62220
 Alpha  occ. eigenvalues --   -0.61595  -0.60895  -0.60378  -0.59988  -0.59766
 Alpha  occ. eigenvalues --   -0.59283  -0.58651  -0.58577  -0.57127  -0.56681
 Alpha  occ. eigenvalues --   -0.56271  -0.55968  -0.55618  -0.55241  -0.55203
 Alpha  occ. eigenvalues --   -0.55052  -0.54706  -0.54534  -0.54229  -0.53768
 Alpha  occ. eigenvalues --   -0.53227  -0.52876  -0.52691  -0.52418  -0.51860
 Alpha  occ. eigenvalues --   -0.51609  -0.51304  -0.50863  -0.50787  -0.50659
 Alpha  occ. eigenvalues --   -0.50580  -0.50317  -0.50099  -0.49962  -0.49594
 Alpha  occ. eigenvalues --   -0.49268  -0.49108  -0.48648  -0.48567  -0.48439
 Alpha  occ. eigenvalues --   -0.48207  -0.48059  -0.47797  -0.47610  -0.47360
 Alpha  occ. eigenvalues --   -0.47196  -0.47082  -0.46668  -0.46522  -0.46241
 Alpha  occ. eigenvalues --   -0.46177  -0.45837  -0.45653  -0.45583  -0.45383
 Alpha  occ. eigenvalues --   -0.45206  -0.45040  -0.44727  -0.44615  -0.44535
 Alpha  occ. eigenvalues --   -0.44461  -0.44326  -0.43977  -0.43824  -0.43500
 Alpha  occ. eigenvalues --   -0.43165  -0.43058  -0.42890  -0.42770  -0.42417
 Alpha  occ. eigenvalues --   -0.42343  -0.42011  -0.41884  -0.41624  -0.41514
 Alpha  occ. eigenvalues --   -0.41117  -0.40963  -0.40761  -0.40748  -0.40401
 Alpha  occ. eigenvalues --   -0.39971  -0.39765  -0.39454  -0.39410  -0.39100
 Alpha  occ. eigenvalues --   -0.38983  -0.38642  -0.38338  -0.37976  -0.37791
 Alpha  occ. eigenvalues --   -0.37409  -0.36952  -0.36917  -0.36830  -0.36784
 Alpha  occ. eigenvalues --   -0.36346  -0.35905  -0.35750  -0.35503  -0.35309
 Alpha  occ. eigenvalues --   -0.35285  -0.35173  -0.34343  -0.34249  -0.33626
 Alpha  occ. eigenvalues --   -0.32972  -0.32843  -0.32642  -0.30853  -0.29850
 Alpha  occ. eigenvalues --   -0.29740  -0.29271  -0.29164  -0.27362  -0.23063
 Alpha  occ. eigenvalues --   -0.20678
 Alpha virt. eigenvalues --   -0.07002  -0.02734   0.00931   0.03031   0.04295
 Alpha virt. eigenvalues --    0.05120   0.05725   0.05849   0.06332   0.07433
 Alpha virt. eigenvalues --    0.08664   0.09929   0.10651   0.10970   0.11102

 Mulliken charges:
               1
     1  Mg   0.828669
     2  C    0.004960
     3  C   -0.168819
     4  C   -0.151725
     5  C   -0.189206
     6  N   -0.618851
     7  C    0.261551
     8  C   -0.135227
     9  C   -0.140086
    10  C    0.335805
    11  C   -0.320466
    12  C   -0.169633
    13  C   -0.261567
    14  C    0.611347
    15  O   -0.506448
    16  O   -0.491089
    17  N   -0.707837
    18  C    0.261490
    19  C    0.046910
    20  C    0.005069
    21  C    0.341983
    22  C   -0.394659
    23  C   -0.067689
    24  C   -0.249830
    25  N   -0.682056
    26  C    0.310511
    27  C   -0.049188
    28  C    0.075805
    29  C    0.256796
    30  C   -0.343072
    31  C   -0.222096
    32  C   -0.289804
    33  N   -0.733514
    34  C    0.280330
    35  C   -0.033847
    36  C    0.085222
    37  C    0.297155
    38  C   -0.366069
    39  C    0.336457
    40  O   -0.501145
    41  C   -0.279914
    42  C    0.642388
    43  O   -0.473840
    44  O   -0.435335
    45  C   -0.077884
    46  C    0.013231
    47  C   -0.137838
    48  C    0.117473
    49  C   -0.363764
    50  C   -0.226140
    51  C   -0.119059
    52  C   -0.159969
    53  C   -0.087452
    54  C   -0.302189
    55  C   -0.160232
    56  C   -0.158586
    57  C   -0.173562
    58  C   -0.083342
    59  C   -0.316368
    60  C   -0.172135
    61  C   -0.169278
    62  C   -0.139479
    63  C   -0.061065
    64  C   -0.304346
    65  C   -0.289816
    66  H    0.080828
    67  H    0.072600
    68  H    0.086934
    69  H    0.139350
    70  H    0.098423
    71  H    0.097928
    72  H    0.108652
    73  H    0.126374
    74  H    0.116839
    75  H    0.129425
    76  H    0.125819
    77  H    0.147829
    78  H    0.102021
    79  H    0.122746
    80  H    0.121627
    81  H    0.104189
    82  H    0.092205
    83  H    0.107439
    84  H    0.107628
    85  H    0.096629
    86  H    0.130147
    87  H    0.116586
    88  H    0.113933
    89  H    0.064459
    90  H    0.110312
    91  H    0.119380
    92  H    0.119123
    93  H    0.151106
    94  H    0.129359
    95  H    0.134890
    96  H    0.099026
    97  H    0.140196
    98  H    0.119011
    99  H    0.150488
   100  H    0.116744
   101  H    0.100091
   102  H    0.103565
   103  H    0.116847
   104  H    0.130836
   105  H    0.105397
   106  H    0.107361
   107  H    0.045683
   108  H    0.082060
   109  H    0.106341
   110  H    0.081715
   111  H    0.058521
   112  H    0.092692
   113  H    0.092251
   114  H    0.117053
   115  H    0.067134
   116  H    0.088201
   117  H    0.093847
   118  H    0.071820
   119  H    0.095205
   120  H    0.103615
   121  H    0.067260
   122  H    0.100398
   123  H    0.100690
   124  H    0.101004
   125  H    0.098582
   126  H    0.090913
   127  H    0.069006
   128  H    0.071318
   129  H    0.075625
   130  H    0.096460
   131  H    0.085560
   132  H    0.072483
   133  H    0.103731
   134  H    0.104082
   135  H    0.073321
   136  H    0.109370
   137  H    0.092078
 Sum of Mulliken charges =   0.00000

 Dipole moment (field-independent basis, Debye):
    X=              2.5529    Y=              5.0826    Z=              0.4705  Tot=              5.7071
 Quadrupole moment (field-independent basis, Debye-Ang):
   XX=           -343.7350   YY=           -400.8416   ZZ=           -399.7267
   XY=            -28.7681   XZ=             18.1833   YZ=             -1.2580

 Normal termination of Gaussian 09 at Sat Jul  6 07:31:07 2019.
