 Gaussian 09, Revision D.01,
 Gaussian 09:  ES64L-G09RevD.01 24-Apr-2013

 -------------------------------------
 # td=(NStates=1) CAM-B3LYP/6-31G(d,p)
 -------------------------------------

 --
 TD
 --
 Symbolic Z-matrix:
 Charge =  0 Multiplicity = 1

                         Standard orientation:
 ---------------------------------------------------------------------
 Center     Atomic      Atomic             Coordinates (Angstroms)
 Number     Number       Type             X           Y           Z
 ---------------------------------------------------------------------
      1         12           0       -7.206481    0.630183    0.053207
      2          6           0       -4.907881   -1.970130    0.559869
      3          6           0       -4.748966    2.859653    1.233105
      4          6           0       -9.354131    3.099682   -0.490276
      5          6           0       -9.547608   -1.722181   -0.951466
      6          7           0       -5.176661    0.375218    0.708267
      7          6           0       -4.427400   -0.702949    0.940109
      8          6           0       -3.000931   -0.433000    1.402430
      9          6           0       -3.081123    1.066650    1.779593
     10          6           0       -4.471545    1.504782    1.194725
     11          6           0       -3.054967    1.266546    3.391129
     12          6           0       -1.968568   -0.675499    0.308836
     13          6           0       -0.503935   -0.619815    0.627229
     14          6           0        0.507900   -0.697482   -0.404660
     15          8           0        0.255531   -0.858447   -1.572712
     16          8           0        1.860030   -0.565108    0.008989
     17          7           0       -6.996149    2.650195    0.335006
     18          6           0       -5.989191    3.378784    0.781314
     19          6           0       -6.371076    4.801691    0.691461
     20          6           0       -7.642141    4.845857    0.319104
     21          6           0       -8.091059    3.520992    0.046275
     22          6           0       -5.483686    5.829815    1.258358
     23          6           0       -8.453123    6.054156    0.221874
     24          6           0       -8.525837    7.119769    0.938991
     25          7           0       -9.111794    0.599332   -0.621574
     26          6           0       -9.761348    1.799462   -0.786443
     27          6           0      -11.117393    1.555972   -1.238753
     28          6           0      -11.296345    0.203626   -1.493434
     29          6           0       -9.979687   -0.280304   -0.958739
     30          6           0      -12.220132    2.437474   -1.446585
     31          6           0      -12.463690   -0.652627   -2.018290
     32          6           0      -12.296364   -0.868855   -3.488273
     33          7           0       -7.227366   -1.326782   -0.167162
     34          6           0       -8.232464   -2.134326   -0.662837
     35          6           0       -7.779486   -3.626009   -0.647092
     36          6           0       -6.533045   -3.569348   -0.274775
     37          6           0       -6.259969   -2.211913    0.172671
     38          6           0       -8.795672   -4.672885   -0.862486
     39          6           0       -5.378389   -4.406459    0.197602
     40          8           0       -5.279529   -5.594515    0.116758
     41          6           0       -4.129416   -3.336073    0.588943
     42          6           0       -3.514156   -3.751313    1.954484
     43          8           0       -3.629237   -3.141306    3.016547
     44          8           0       -2.812408   -4.926495    1.753140
     45          6           0       -2.144649   -5.460196    2.924856
     46          6           0        2.791857   -0.736713   -1.061375
     47          6           0        4.160822   -0.486316   -0.392875
     48          6           0        5.071565    0.303895   -0.887969
     49          6           0        5.078825    1.154659   -2.063405
     50          6           0        6.406712    0.420755   -0.142517
     51          6           0        7.594351   -0.292784   -0.953917
     52          6           0        8.928243   -0.182755   -0.110673
     53          6           0       10.231060   -0.573498   -0.892145
     54          6           0       10.207048   -2.075911   -1.231289
     55          6           0       11.460305   -0.291439   -0.072499
     56          6           0       12.775863   -0.581514   -0.736698
     57          6           0       13.931946   -0.191972    0.140787
     58          6           0       15.421378   -0.180175   -0.574164
     59          6           0       15.832737   -1.498492   -1.123654
     60          6           0       16.460739    0.531056    0.309501
     61          6           0       17.828499    0.646310   -0.215791
     62          6           0       18.749150    1.431471    0.658258
     63          6           0       20.214062    1.309351    0.254762
     64          6           0       20.388109    2.049390   -1.203169
     65          6           0       21.151834    1.961016    1.178157
     66          1           0       -3.949426    3.582777    1.478136
     67          1           0      -10.059169    4.036854   -0.404851
     68          1           0      -10.391180   -2.404832   -1.121618
     69          1           0       -2.696022   -1.025264    2.363398
     70          1           0       -2.366986    1.671133    1.254607
     71          1           0       -1.971618    1.049028    3.997856
     72          1           0       -3.253523    2.332930    3.449520
     73          1           0       -3.773233    0.735396    3.915027
     74          1           0       -2.132344   -1.730030    0.092786
     75          1           0       -2.158385    0.059520   -0.626361
     76          1           0       -0.429207    0.322090    1.098016
     77          1           0       -0.255615   -1.297109    1.708176
     78          1           0       -5.539658    6.744524    0.657559
     79          1           0       -5.499265    5.913092    2.388777
     80          1           0       -4.423797    5.783597    0.955013
     81          1           0       -9.140727    5.992788   -0.537678
     82          1           0       -9.446312    7.772259    0.732759
     83          1           0       -7.799203    7.442737    1.700395
     84          1           0      -12.244225    2.973362   -2.563921
     85          1           0      -13.128550    1.881530   -1.146471
     86          1           0      -11.989679    3.345514   -0.772947
     87          1           0      -12.351346   -1.680935   -1.431402
     88          1           0      -13.405628   -0.282623   -1.931083
     89          1           0      -13.186552   -1.420959   -4.006242
     90          1           0      -12.155602    0.047932   -4.146934
     91          1           0      -11.269568   -1.380392   -3.656143
     92          1           0       -9.440220   -4.750070   -1.777360
     93          1           0       -8.355045   -5.648786   -0.918749
     94          1           0       -9.598078   -4.617285   -0.150395
     95          1           0       -3.423265   -3.524738   -0.111212
     96          1           0       -1.422055   -4.765400    3.324937
     97          1           0       -2.820682   -5.654219    3.673031
     98          1           0       -1.729913   -6.449009    2.473500
     99          1           0        2.700371   -1.722145   -1.387408
    100          1           0        2.845505    0.117220   -1.847627
    101          1           0        4.425912   -0.946400    0.733827
    102          1           0        3.960564    1.185306   -2.691354
    103          1           0        5.134561    2.293282   -1.782069
    104          1           0        5.816880    1.065098   -2.776507
    105          1           0        6.503341    1.489970    0.032107
    106          1           0        6.461151   -0.155547    0.888942
    107          1           0        7.209585   -1.244752   -1.171162
    108          1           0        7.790078    0.435561   -1.828046
    109          1           0        8.984728    0.910565    0.197204
    110          1           0        8.992354   -0.755020    0.789486
    111          1           0       10.128530    0.028919   -1.711158
    112          1           0        9.482324   -2.184225   -2.016316
    113          1           0       11.133437   -2.585140   -1.770972
    114          1           0       10.049237   -2.490457   -0.230344
    115          1           0       11.412945    0.866485    0.133527
    116          1           0       11.293245   -0.786491    0.781674
    117          1           0       12.776211   -1.489966   -0.963017
    118          1           0       12.902962   -0.081803   -1.583315
    119          1           0       13.946193    0.862018    0.671056
    120          1           0       13.837825   -0.997142    0.914014
    121          1           0       15.446799    0.469210   -1.365899
    122          1           0       16.040798   -2.068583   -0.106588
    123          1           0       15.107453   -2.068812   -1.737408
    124          1           0       16.780782   -1.575763   -1.563427
    125          1           0       16.141698    1.648752    0.357305
    126          1           0       16.421819   -0.052700    1.215221
    127          1           0       18.269086   -0.278810   -0.690601
    128          1           0       17.763529    1.174366   -1.133355
    129          1           0       18.589514    2.552230    0.652793
    130          1           0       18.797604    1.071238    1.827626
    131          1           0       20.394475    0.218203    0.154321
    132          1           0       19.906499    3.039797   -1.155766
    133          1           0       21.337976    2.082740   -1.390798
    134          1           0       19.863225    1.545077   -1.807842
    135          1           0       21.375951    1.517407    2.159214
    136          1           0       22.082576    2.175924    0.602697
    137          1           0       20.599023    3.098714    1.508753
 ---------------------------------------------------------------------

 SCF Done:  E(RCAM-B3LYP) =  -2932.63723434     A.U. after   15 cycles

 Excitation energies and oscillator strengths:

 Excited State   1:      Singlet-A      2.1411 eV  579.06 nm  f=0.1946  <S**2>=0.000
     240 -> 242       -0.17404
     240 -> 243       -0.23213
     241 -> 242        0.61535
     241 -> 243       -0.17227
 This state for optimization and/or second-order correction.
 Total Energy, E(TD-HF/TD-KS) =  -2932.55854893
 Copying the excited state density for this state as the 1-particle RhoCI density.

 The electronic state is 1-A.
 Alpha  occ. eigenvalues --  -46.84535 -19.26632 -19.25112 -19.22553 -19.21914
 Alpha  occ. eigenvalues --  -19.21192 -14.41978 -14.40288 -14.39905 -14.39349
 Alpha  occ. eigenvalues --  -10.40175 -10.39406 -10.37044 -10.31415 -10.31393
 Alpha  occ. eigenvalues --  -10.31187 -10.30633 -10.30453 -10.30414 -10.29677
 Alpha  occ. eigenvalues --  -10.29574 -10.29238 -10.28869 -10.28849 -10.28559
 Alpha  occ. eigenvalues --  -10.28425 -10.28385 -10.27818 -10.27677 -10.27648
 Alpha  occ. eigenvalues --  -10.27570 -10.27487 -10.27467 -10.27066 -10.26884
 Alpha  occ. eigenvalues --  -10.26655 -10.26564 -10.26558 -10.26494 -10.26488
 Alpha  occ. eigenvalues --  -10.26368 -10.26347 -10.26250 -10.26037 -10.25941
 Alpha  occ. eigenvalues --  -10.25843 -10.25830 -10.25819 -10.25665 -10.25621
 Alpha  occ. eigenvalues --  -10.25609 -10.25585 -10.25568 -10.25316 -10.25092
 Alpha  occ. eigenvalues --  -10.25013 -10.24768 -10.24762 -10.24740 -10.24458
 Alpha  occ. eigenvalues --  -10.24403 -10.24398 -10.23845 -10.21929 -10.21633
 Alpha  occ. eigenvalues --   -3.13686  -1.88379  -1.87962  -1.87849  -1.16921
 Alpha  occ. eigenvalues --   -1.16852  -1.13707  -1.09074  -1.08779  -1.05511
 Alpha  occ. eigenvalues --   -1.04414  -1.03384  -1.02504  -0.91450  -0.91239
 Alpha  occ. eigenvalues --   -0.90959  -0.90474  -0.90242  -0.89618  -0.89309
 Alpha  occ. eigenvalues --   -0.89031  -0.88223  -0.87687  -0.86680  -0.85695
 Alpha  occ. eigenvalues --   -0.85247  -0.84268  -0.83843  -0.83191  -0.82763
 Alpha  occ. eigenvalues --   -0.81581  -0.80972  -0.80659  -0.79926  -0.78761
 Alpha  occ. eigenvalues --   -0.77613  -0.76688  -0.76668  -0.76075  -0.75372
 Alpha  occ. eigenvalues --   -0.74950  -0.74745  -0.74465  -0.72950  -0.72283
 Alpha  occ. eigenvalues --   -0.71156  -0.70147  -0.69294  -0.68885  -0.68062
 Alpha  occ. eigenvalues --   -0.66750  -0.66518  -0.65457  -0.64694  -0.64558
 Alpha  occ. eigenvalues --   -0.64134  -0.63781  -0.62845  -0.62345  -0.61728
 Alpha  occ. eigenvalues --   -0.61695  -0.60843  -0.60364  -0.59223  -0.58895
 Alpha  occ. eigenvalues --   -0.58380  -0.58062  -0.57443  -0.57322  -0.56663
 Alpha  occ. eigenvalues --   -0.56587  -0.55771  -0.55623  -0.55296  -0.54960
 Alpha  occ. eigenvalues --   -0.54536  -0.54052  -0.53961  -0.53637  -0.53339
 Alpha  occ. eigenvalues --   -0.53052  -0.52918  -0.52856  -0.52297  -0.52019
 Alpha  occ. eigenvalues --   -0.51710  -0.51305  -0.51107  -0.51054  -0.50883
 Alpha  occ. eigenvalues --   -0.50349  -0.50237  -0.50099  -0.49954  -0.49741
 Alpha  occ. eigenvalues --   -0.49636  -0.49175  -0.48902  -0.48601  -0.48527
 Alpha  occ. eigenvalues --   -0.48251  -0.48153  -0.47968  -0.47741  -0.47266
 Alpha  occ. eigenvalues --   -0.47187  -0.47018  -0.46535  -0.46185  -0.46060
 Alpha  occ. eigenvalues --   -0.45950  -0.45736  -0.45500  -0.45404  -0.45185
 Alpha  occ. eigenvalues --   -0.44873  -0.44751  -0.44687  -0.44590  -0.44251
 Alpha  occ. eigenvalues --   -0.44225  -0.43923  -0.43597  -0.43372  -0.43115
 Alpha  occ. eigenvalues --   -0.43020  -0.42917  -0.42625  -0.42429  -0.42303
 Alpha  occ. eigenvalues --   -0.42083  -0.41965  -0.41950  -0.41740  -0.41395
 Alpha  occ. eigenvalues --   -0.41115  -0.40977  -0.40809  -0.40455  -0.40298
 Alpha  occ. eigenvalues --   -0.40289  -0.39774  -0.39610  -0.39083  -0.38563
 Alpha  occ. eigenvalues --   -0.38544  -0.38281  -0.38094  -0.37879  -0.37435
 Alpha  occ. eigenvalues --   -0.37412  -0.36813  -0.36688  -0.36538  -0.36517
 Alpha  occ. eigenvalues --   -0.36280  -0.35898  -0.35822  -0.35452  -0.35135
 Alpha  occ. eigenvalues --   -0.35076  -0.34708  -0.34419  -0.34247  -0.33809
 Alpha  occ. eigenvalues --   -0.33267  -0.33180  -0.32666  -0.31393  -0.30755
 Alpha  occ. eigenvalues --   -0.30385  -0.30038  -0.28487  -0.27800  -0.23235
 Alpha  occ. eigenvalues --   -0.20683
 Alpha virt. eigenvalues --   -0.05552  -0.02961   0.01554   0.04765   0.04997
 Alpha virt. eigenvalues --    0.05247   0.05915   0.06411   0.07173   0.07490
 Alpha virt. eigenvalues --    0.08002   0.10091   0.11138   0.11357   0.11419

 Mulliken charges:
               1
     1  Mg   0.832137
     2  C    0.001652
     3  C   -0.189709
     4  C   -0.162950
     5  C   -0.195705
     6  N   -0.613445
     7  C    0.325160
     8  C   -0.159038
     9  C   -0.154800
    10  C    0.309785
    11  C   -0.297258
    12  C   -0.157271
    13  C   -0.273215
    14  C    0.630790
    15  O   -0.455172
    16  O   -0.510122
    17  N   -0.706904
    18  C    0.318135
    19  C   -0.012819
    20  C    0.047356
    21  C    0.234833
    22  C   -0.388930
    23  C   -0.072747
    24  C   -0.237553
    25  N   -0.656298
    26  C    0.304290
    27  C    0.016422
    28  C    0.031191
    29  C    0.244424
    30  C   -0.371451
    31  C   -0.209406
    32  C   -0.303682
    33  N   -0.674924
    34  C    0.268604
    35  C    0.055547
    36  C   -0.009737
    37  C    0.275856
    38  C   -0.402711
    39  C    0.381118
    40  O   -0.411581
    41  C   -0.291849
    42  C    0.609368
    43  O   -0.476689
    44  O   -0.464126
    45  C   -0.083459
    46  C    0.046584
    47  C   -0.155327
    48  C    0.159144
    49  C   -0.370017
    50  C   -0.229277
    51  C   -0.175695
    52  C   -0.180758
    53  C   -0.082955
    54  C   -0.303114
    55  C   -0.156606
    56  C   -0.150019
    57  C   -0.179640
    58  C   -0.065955
    59  C   -0.308370
    60  C   -0.172986
    61  C   -0.187948
    62  C   -0.143383
    63  C   -0.068842
    64  C   -0.306915
    65  C   -0.277891
    66  H    0.095863
    67  H    0.105335
    68  H    0.085789
    69  H    0.134841
    70  H    0.107707
    71  H    0.072737
    72  H    0.109391
    73  H    0.136361
    74  H    0.110579
    75  H    0.109869
    76  H    0.150265
    77  H    0.104970
    78  H    0.114638
    79  H    0.125303
    80  H    0.104924
    81  H    0.084729
    82  H    0.090963
    83  H    0.103870
    84  H    0.099309
    85  H    0.120597
    86  H    0.097787
    87  H    0.094150
    88  H    0.114920
    89  H    0.090044
    90  H    0.110419
    91  H    0.102047
    92  H    0.126892
    93  H    0.141523
    94  H    0.143030
    95  H    0.168783
    96  H    0.128986
    97  H    0.143103
    98  H    0.125673
    99  H    0.127927
   100  H    0.103521
   101  H    0.078249
   102  H    0.078174
   103  H    0.110397
   104  H    0.140747
   105  H    0.097376
   106  H    0.082844
   107  H    0.116960
   108  H    0.086997
   109  H    0.088235
   110  H    0.088068
   111  H    0.083705
   112  H    0.108709
   113  H    0.085528
   114  H    0.100813
   115  H    0.065186
   116  H    0.088629
   117  H    0.101324
   118  H    0.096690
   119  H    0.077693
   120  H    0.080856
   121  H    0.084326
   122  H    0.071225
   123  H    0.103164
   124  H    0.107891
   125  H    0.083821
   126  H    0.094299
   127  H    0.087156
   128  H    0.100072
   129  H    0.086516
   130  H    0.060857
   131  H    0.085490
   132  H    0.093952
   133  H    0.105719
   134  H    0.108995
   135  H    0.105076
   136  H    0.097958
   137  H    0.046315
 Sum of Mulliken charges =   0.00000

 Dipole moment (field-independent basis, Debye):
    X=              0.1917    Y=              1.5127    Z=             -0.0663  Tot=              1.5262
 Quadrupole moment (field-independent basis, Debye-Ang):
   XX=           -349.0647   YY=           -390.0727   ZZ=           -397.8007
   XY=             -5.9035   XZ=             -3.1248   YZ=             -4.8593

 Normal termination of Gaussian 09 at Tue Jul  2 19:01:58 2019.
