 Gaussian 16, Revision A.03,
 Gaussian 16:  ES64L-G16RevA.03 25-Dec-2016

 ----------------------------------------------------------------------
 # td=(NStates=1) iop(3/107=0140000000,3/108=0140000000) CAM-B3LYP/6-31
 G(d,p)
 ----------------------------------------------------------------------

 --
 TD
 --
 Symbolic Z-matrix:
 Charge =  0 Multiplicity = 1

                         Standard orientation:
 ---------------------------------------------------------------------
 Center     Atomic      Atomic             Coordinates (Angstroms)
 Number     Number       Type             X           Y           Z
 ---------------------------------------------------------------------
      1         12           0       -7.086222    0.552231    0.091124
      2          6           0       -4.835257   -2.003646    0.519659
      3          6           0       -4.902342    2.784518    1.235293
      4          6           0       -9.374896    3.075269   -0.389939
      5          6           0       -9.438637   -1.775041   -0.899673
      6          7           0       -5.102635    0.327972    0.830062
      7          6           0       -4.274110   -0.766358    0.842141
      8          6           0       -2.905948   -0.444753    1.190693
      9          6           0       -3.070091    1.014780    1.752634
     10          6           0       -4.405790    1.473902    1.260923
     11          6           0       -2.929340    1.090193    3.265473
     12          6           0       -1.881596   -0.569336    0.026652
     13          6           0       -0.408855   -0.182192    0.400948
     14          6           0        0.481002   -0.436411   -0.721813
     15          8           0        0.105145   -0.795230   -1.872966
     16          8           0        1.768964   -0.274524   -0.355853
     17          7           0       -7.122306    2.554821    0.401813
     18          6           0       -6.111234    3.370357    0.887334
     19          6           0       -6.319605    4.717043    0.957615
     20          6           0       -7.654471    4.900518    0.374319
     21          6           0       -8.098075    3.501344    0.145465
     22          6           0       -5.559833    5.865388    1.367043
     23          6           0       -8.628169    6.004792    0.073140
     24          6           0       -8.460307    7.187222    0.787233
     25          7           0       -9.092564    0.616967   -0.594897
     26          6           0       -9.774173    1.789911   -0.812790
     27          6           0      -11.192653    1.378873   -1.099968
     28          6           0      -11.175353    0.044505   -1.297951
     29          6           0       -9.839858   -0.443571   -0.921813
     30          6           0      -12.252336    2.475738   -1.495752
     31          6           0      -12.335782   -0.819618   -1.827106
     32          6           0      -12.197526   -1.256177   -3.248080
     33          7           0       -7.197469   -1.473401   -0.184616
     34          6           0       -8.234798   -2.267528   -0.486598
     35          6           0       -7.871721   -3.611631   -0.427587
     36          6           0       -6.467098   -3.552071   -0.042707
     37          6           0       -6.127622   -2.202737    0.089999
     38          6           0       -8.707658   -4.747962   -0.899744
     39          6           0       -5.291226   -4.465338    0.295132
     40          8           0       -5.111158   -5.664485    0.375691
     41          6           0       -4.167131   -3.386739    0.570400
     42          6           0       -3.377742   -3.692926    1.837896
     43          8           0       -3.683219   -3.206562    2.911086
     44          8           0       -2.591494   -4.758205    1.823811
     45          6           0       -2.015533   -5.139803    3.059968
     46          6           0        2.777260   -0.372244   -1.417828
     47          6           0        4.160043   -0.214856   -0.720934
     48          6           0        5.172398    0.526888   -1.028610
     49          6           0        5.224653    1.561507   -2.193206
     50          6           0        6.412917    0.493614   -0.255116
     51          6           0        7.659281   -0.259878   -0.939419
     52          6           0        8.891820   -0.115266   -0.182701
     53          6           0       10.130539   -0.542844   -0.890996
     54          6           0       10.142046   -2.050930   -1.399213
     55          6           0       11.345753   -0.286886   -0.092636
     56          6           0       12.704256   -0.598897   -0.683983
     57          6           0       13.765751   -0.235830    0.239180
     58          6           0       15.206591   -0.227949   -0.444617
     59          6           0       15.709492   -1.569490   -1.021670
     60          6           0       16.391008    0.266540    0.543019
     61          6           0       17.752592    0.476400   -0.108971
     62          6           0       18.681432    1.108560    0.771339
     63          6           0       20.113706    1.384025    0.272306
     64          6           0       20.091632    2.090942   -1.098568
     65          6           0       20.980606    1.922090    1.317841
     66          1           0       -4.147816    3.475515    1.618609
     67          1           0      -10.198465    3.716366   -0.593616
     68          1           0      -10.394761   -2.557846   -1.239921
     69          1           0       -2.370832   -1.096642    1.866115
     70          1           0       -2.310695    1.513773    1.312317
     71          1           0       -2.149050    0.403624    3.753671
     72          1           0       -2.946444    2.150729    3.528460
     73          1           0       -3.576853    0.532179    3.675649
     74          1           0       -1.962928   -1.534242   -0.433770
     75          1           0       -2.239835    0.137916   -0.751149
     76          1           0       -0.205515    0.773482    0.884788
     77          1           0       -0.243661   -0.805309    1.319918
     78          1           0       -5.598885    6.762536    0.813349
     79          1           0       -5.867003    6.080625    2.356614
     80          1           0       -4.491508    5.825306    1.462866
     81          1           0       -9.331322    5.932886   -0.765905
     82          1           0       -8.888717    8.196233    0.492859
     83          1           0       -7.732402    7.461085    1.709054
     84          1           0      -11.837314    3.293613   -2.156161
     85          1           0      -13.234018    2.254920   -1.825772
     86          1           0      -12.588106    3.108078   -0.584939
     87          1           0      -12.576088   -1.590578   -1.155615
     88          1           0      -13.201957   -0.218524   -1.749326
     89          1           0      -13.060625   -2.063694   -3.354734
     90          1           0      -12.384287   -0.332146   -3.927864
     91          1           0      -11.330332   -1.814508   -3.369131
     92          1           0       -8.653284   -4.818280   -2.099612
     93          1           0       -8.434063   -5.773263   -0.753444
     94          1           0       -9.857111   -4.800622   -0.697994
     95          1           0       -3.437445   -3.409904   -0.360063
     96          1           0       -1.564574   -4.298776    3.703367
     97          1           0       -2.772556   -5.590392    3.728865
     98          1           0       -1.126991   -5.834903    2.945822
     99          1           0        2.821663   -1.343893   -1.935883
    100          1           0        2.596564    0.541749   -2.121327
    101          1           0        4.381825   -0.896735    0.172343
    102          1           0        4.157135    1.625447   -2.508116
    103          1           0        5.431399    2.476690   -1.733380
    104          1           0        6.075973    1.341869   -2.864254
    105          1           0        6.663345    1.596559   -0.165901
    106          1           0        6.472311   -0.266573    0.563698
    107          1           0        7.236087   -1.260171   -1.152997
    108          1           0        7.882012    0.390746   -2.082383
    109          1           0        8.985452    1.211702   -0.031978
    110          1           0        8.686435   -0.550464    0.763380
    111          1           0       10.271801    0.137303   -1.755128
    112          1           0        9.181123   -2.209063   -1.891987
    113          1           0       11.168156   -2.173020   -2.022123
    114          1           0       10.497795   -2.786949   -0.668372
    115          1           0       11.354438    0.581027    0.265934
    116          1           0       11.311204   -0.818752    0.860860
    117          1           0       12.878114   -1.691061   -0.997164
    118          1           0       12.862779    0.163906   -1.478091
    119          1           0       13.607106    0.708444    0.686546
    120          1           0       13.847214   -1.068696    1.089885
    121          1           0       15.038146    0.526359   -1.243101
    122          1           0       15.817827   -2.084787   -0.161392
    123          1           0       15.031153   -2.127549   -1.623796
    124          1           0       16.573706   -1.594964   -1.462721
    125          1           0       15.994745    1.385630    0.945326
    126          1           0       16.539474   -0.396491    1.376508
    127          1           0       18.150256   -0.562172   -0.418051
    128          1           0       17.471518    1.162901   -0.966353
    129          1           0       18.426969    2.112139    1.035598
    130          1           0       18.660307    0.699174    1.799426
    131          1           0       20.399993    0.325022    0.254182
    132          1           0       19.689104    3.056140   -0.864331
    133          1           0       21.188874    2.153533   -1.648437
    134          1           0       19.398270    1.442444   -1.666346
    135          1           0       21.026287    1.222664    2.216242
    136          1           0       22.048259    2.005040    1.017425
    137          1           0       20.576118    3.070308    1.546870
 ---------------------------------------------------------------------

 SCF Done:  E(RCAM-B3LYP) =  -2933.49433658     A.U. after   16 cycles

 Excitation energies and oscillator strengths:

 Excited State   1:      Singlet-A      2.0025 eV  619.14 nm  f=0.2653  <S**2>=0.000
     240 -> 243        0.24406
     241 -> 242        0.66019
 This state for optimization and/or second-order correction.
 Total Energy, E(TD-HF/TD-DFT) =  -2933.42074534
 Copying the excited state density for this state as the 1-particle RhoCI density.

 The electronic state is 1-A.
 Alpha  occ. eigenvalues --  -46.80237 -19.22843 -19.22303 -19.16630 -19.16538
 Alpha  occ. eigenvalues --  -19.15358 -14.37564 -14.35267 -14.34845 -14.34350
 Alpha  occ. eigenvalues --  -10.34969 -10.34065 -10.31160 -10.29343 -10.27386
 Alpha  occ. eigenvalues --  -10.26147 -10.25984 -10.25319 -10.24920 -10.24708
 Alpha  occ. eigenvalues --  -10.24606 -10.24569 -10.24363 -10.23950 -10.23932
 Alpha  occ. eigenvalues --  -10.23911 -10.23792 -10.23775 -10.23719 -10.23709
 Alpha  occ. eigenvalues --  -10.23639 -10.23002 -10.22909 -10.22841 -10.22653
 Alpha  occ. eigenvalues --  -10.22643 -10.22635 -10.22575 -10.22531 -10.22511
 Alpha  occ. eigenvalues --  -10.22422 -10.22360 -10.22230 -10.22128 -10.22080
 Alpha  occ. eigenvalues --  -10.21729 -10.21685 -10.21644 -10.21612 -10.21583
 Alpha  occ. eigenvalues --  -10.21523 -10.21488 -10.21475 -10.21428 -10.21358
 Alpha  occ. eigenvalues --  -10.21257 -10.21022 -10.20936 -10.20729 -10.20688
 Alpha  occ. eigenvalues --  -10.20675 -10.20085 -10.19450 -10.18343 -10.17728
 Alpha  occ. eigenvalues --   -3.08698  -1.83653  -1.83141  -1.83120  -1.14104
 Alpha  occ. eigenvalues --   -1.12388  -1.06139  -1.03330  -1.02456  -1.00360
 Alpha  occ. eigenvalues --   -0.98290  -0.97997  -0.97241  -0.87512  -0.87304
 Alpha  occ. eigenvalues --   -0.86275  -0.85862  -0.85171  -0.84113  -0.83709
 Alpha  occ. eigenvalues --   -0.83207  -0.82916  -0.82467  -0.81947  -0.81392
 Alpha  occ. eigenvalues --   -0.80930  -0.79632  -0.78735  -0.78348  -0.77677
 Alpha  occ. eigenvalues --   -0.77342  -0.76448  -0.76175  -0.75459  -0.73950
 Alpha  occ. eigenvalues --   -0.73280  -0.72426  -0.72197  -0.71563  -0.71383
 Alpha  occ. eigenvalues --   -0.71184  -0.70908  -0.70088  -0.69514  -0.68394
 Alpha  occ. eigenvalues --   -0.67634  -0.66516  -0.65198  -0.64873  -0.64054
 Alpha  occ. eigenvalues --   -0.62354  -0.62049  -0.61452  -0.60419  -0.59992
 Alpha  occ. eigenvalues --   -0.59979  -0.59427  -0.58882  -0.58156  -0.58155
 Alpha  occ. eigenvalues --   -0.57562  -0.57102  -0.56471  -0.55831  -0.55293
 Alpha  occ. eigenvalues --   -0.54683  -0.54319  -0.53943  -0.52948  -0.52922
 Alpha  occ. eigenvalues --   -0.52576  -0.52182  -0.51692  -0.51412  -0.51333
 Alpha  occ. eigenvalues --   -0.51083  -0.50849  -0.50638  -0.49809  -0.49557
 Alpha  occ. eigenvalues --   -0.49067  -0.48941  -0.48552  -0.48492  -0.48381
 Alpha  occ. eigenvalues --   -0.47979  -0.47957  -0.47705  -0.47451  -0.47383
 Alpha  occ. eigenvalues --   -0.47064  -0.46742  -0.46346  -0.46051  -0.45901
 Alpha  occ. eigenvalues --   -0.45537  -0.45360  -0.45305  -0.45073  -0.44877
 Alpha  occ. eigenvalues --   -0.44776  -0.44300  -0.43996  -0.43925  -0.43427
 Alpha  occ. eigenvalues --   -0.43374  -0.43318  -0.43047  -0.42645  -0.42557
 Alpha  occ. eigenvalues --   -0.42285  -0.42018  -0.41900  -0.41570  -0.41413
 Alpha  occ. eigenvalues --   -0.41289  -0.41100  -0.41047  -0.41003  -0.40716
 Alpha  occ. eigenvalues --   -0.40371  -0.39981  -0.39953  -0.39917  -0.39789
 Alpha  occ. eigenvalues --   -0.39716  -0.39459  -0.39399  -0.39312  -0.39032
 Alpha  occ. eigenvalues --   -0.39010  -0.38882  -0.38689  -0.38303  -0.38197
 Alpha  occ. eigenvalues --   -0.37762  -0.37521  -0.37194  -0.37073  -0.36866
 Alpha  occ. eigenvalues --   -0.36802  -0.36756  -0.36647  -0.36500  -0.35806
 Alpha  occ. eigenvalues --   -0.35686  -0.35243  -0.35065  -0.34906  -0.34651
 Alpha  occ. eigenvalues --   -0.34178  -0.34064  -0.33878  -0.33726  -0.33380
 Alpha  occ. eigenvalues --   -0.33198  -0.32951  -0.32892  -0.32808  -0.32499
 Alpha  occ. eigenvalues --   -0.32301  -0.32155  -0.31696  -0.30264  -0.30188
 Alpha  occ. eigenvalues --   -0.29974  -0.29874  -0.29186  -0.28273  -0.27600
 Alpha  occ. eigenvalues --   -0.26868  -0.26379  -0.25910  -0.24765  -0.21065
 Alpha  occ. eigenvalues --   -0.20251
 Alpha virt. eigenvalues --   -0.07527  -0.03542  -0.00232   0.01791   0.02436
 Alpha virt. eigenvalues --    0.03682   0.04814   0.05065   0.05244   0.05368
 Alpha virt. eigenvalues --    0.06625   0.07027   0.08541   0.09081   0.09880

 Mulliken charges:
               1
     1  Mg   0.809967
     2  C    0.077426
     3  C   -0.222343
     4  C   -0.162678
     5  C   -0.176476
     6  N   -0.659384
     7  C    0.363193
     8  C   -0.180181
     9  C   -0.143656
    10  C    0.329578
    11  C   -0.293547
    12  C   -0.181226
    13  C   -0.285296
    14  C    0.635638
    15  O   -0.499559
    16  O   -0.468658
    17  N   -0.697413
    18  C    0.351106
    19  C    0.059031
    20  C    0.007933
    21  C    0.280534
    22  C   -0.398317
    23  C   -0.092987
    24  C   -0.236809
    25  N   -0.680969
    26  C    0.245986
    27  C    0.026026
    28  C    0.005923
    29  C    0.344015
    30  C   -0.392234
    31  C   -0.243628
    32  C   -0.291778
    33  N   -0.765875
    34  C    0.320981
    35  C    0.054563
    36  C   -0.065512
    37  C    0.354516
    38  C   -0.399483
    39  C    0.398714
    40  O   -0.450872
    41  C   -0.332391
    42  C    0.604008
    43  O   -0.477517
    44  O   -0.415520
    45  C   -0.090943
    46  C    0.011137
    47  C   -0.157622
    48  C    0.153222
    49  C   -0.361042
    50  C   -0.215676
    51  C   -0.173240
    52  C   -0.124036
    53  C   -0.036084
    54  C   -0.325046
    55  C   -0.150249
    56  C   -0.162377
    57  C   -0.171803
    58  C   -0.066486
    59  C   -0.317153
    60  C   -0.180149
    61  C   -0.160016
    62  C   -0.163988
    63  C   -0.057868
    64  C   -0.297944
    65  C   -0.287384
    66  H    0.063193
    67  H    0.072285
    68  H    0.081105
    69  H    0.108625
    70  H    0.099803
    71  H    0.088666
    72  H    0.107592
    73  H    0.140583
    74  H    0.126166
    75  H    0.114246
    76  H    0.147406
    77  H    0.135811
    78  H    0.136126
    79  H    0.136067
    80  H    0.109011
    81  H    0.116103
    82  H    0.095941
    83  H    0.096813
    84  H    0.120875
    85  H    0.120191
    86  H    0.105744
    87  H    0.110510
    88  H    0.104853
    89  H    0.081961
    90  H    0.107845
    91  H    0.121971
    92  H    0.110085
    93  H    0.147174
    94  H    0.110720
    95  H    0.141849
    96  H    0.114376
    97  H    0.135367
    98  H    0.116864
    99  H    0.146195
   100  H    0.116068
   101  H    0.076298
   102  H    0.100535
   103  H    0.124079
   104  H    0.130658
   105  H    0.091469
   106  H    0.094547
   107  H    0.105472
   108  H    0.023836
   109  H    0.039639
   110  H    0.096600
   111  H    0.086148
   112  H    0.108820
   113  H    0.088671
   114  H    0.108776
   115  H    0.085759
   116  H    0.076180
   117  H    0.089270
   118  H    0.083657
   119  H    0.096366
   120  H    0.060568
   121  H    0.072060
   122  H    0.110401
   123  H    0.094155
   124  H    0.115224
   125  H    0.051604
   126  H    0.094423
   127  H    0.083578
   128  H    0.098170
   129  H    0.083982
   130  H    0.081705
   131  H    0.079130
   132  H    0.107374
   133  H    0.081254
   134  H    0.114688
   135  H    0.095861
   136  H    0.101091
   137  H    0.059683
 Sum of Mulliken charges =  -0.00000

 Dipole moment (field-independent basis, Debye):
    X=              2.4171    Y=              4.5741    Z=              0.4112  Tot=              5.1898
 Quadrupole moment (field-independent basis, Debye-Ang):
   XX=           -350.8231   YY=           -390.1388   ZZ=           -402.6570
   XY=            -31.1665   XZ=             16.7791   YZ=             -0.5242

 Normal termination of Gaussian 16 at Wed Sep  4 17:23:30 2019.
