 Gaussian 09, Revision D.01,
 Gaussian 09:  ES64L-G09RevD.01 24-Apr-2013

 -------------------------------------
 # td=(NStates=1) CAM-B3LYP/6-31G(d,p)
 -------------------------------------

 --
 TD
 --
 Symbolic Z-matrix:
 Charge =  0 Multiplicity = 1

                         Standard orientation:
 ---------------------------------------------------------------------
 Center     Atomic      Atomic             Coordinates (Angstroms)
 Number     Number       Type             X           Y           Z
 ---------------------------------------------------------------------
      1         12           0       -7.088062    0.672401    0.222838
      2          6           0       -4.896933   -1.956874    0.528884
      3          6           0       -4.671172    2.795493    0.969418
      4          6           0       -9.305227    3.147703   -0.357758
      5          6           0       -9.462675   -1.688420   -0.986227
      6          7           0       -5.160000    0.384077    0.796000
      7          6           0       -4.409758   -0.743180    0.873458
      8          6           0       -2.901650   -0.509163    1.382299
      9          6           0       -2.932088    0.958149    1.767434
     10          6           0       -4.350910    1.494159    1.181505
     11          6           0       -2.987524    1.266883    3.264383
     12          6           0       -1.926066   -0.718156    0.142943
     13          6           0       -0.411808   -0.652146    0.691048
     14          6           0        0.527567   -0.817883   -0.506023
     15          8           0        0.203961   -1.193948   -1.596892
     16          8           0        1.725492   -0.525507   -0.075054
     17          7           0       -6.971360    2.561081    0.325743
     18          6           0       -5.880805    3.455552    0.649357
     19          6           0       -6.298271    4.809937    0.659522
     20          6           0       -7.670411    4.848729    0.373343
     21          6           0       -8.056714    3.503951    0.129272
     22          6           0       -5.291761    5.845910    1.208731
     23          6           0       -8.490076    6.057084    0.110423
     24          6           0       -8.276525    7.167698    0.709421
     25          7           0       -9.108042    0.682154   -0.555793
     26          6           0       -9.772499    1.882534   -0.610548
     27          6           0      -11.159205    1.513203   -1.038920
     28          6           0      -11.219557    0.164980   -1.231832
     29          6           0       -9.936836   -0.307376   -0.908410
     30          6           0      -12.302908    2.507013   -1.429340
     31          6           0      -12.387686   -0.547650   -1.705889
     32          6           0      -12.264770   -1.070135   -3.167395
     33          7           0       -7.266660   -1.439996    0.000110
     34          6           0       -8.314588   -2.186313   -0.585990
     35          6           0       -7.857571   -3.566755   -0.708615
     36          6           0       -6.566840   -3.483502   -0.224151
     37          6           0       -6.260853   -2.199997    0.171980
     38          6           0       -8.749198   -4.659926   -1.100382
     39          6           0       -5.282901   -4.338268    0.033470
     40          8           0       -5.192643   -5.611804   -0.120302
     41          6           0       -4.207579   -3.368497    0.491415
     42          6           0       -3.701632   -3.722698    1.881154
     43          8           0       -4.025645   -3.311258    2.931710
     44          8           0       -2.819162   -4.746373    1.775723
     45          6           0       -2.361493   -5.288510    3.127320
     46          6           0        2.672988   -0.661065   -1.149590
     47          6           0        4.145981   -0.475176   -0.577702
     48          6           0        5.128069    0.284257   -1.020241
     49          6           0        4.993223    1.344732   -2.137536
     50          6           0        6.502639    0.386461   -0.239325
     51          6           0        7.643460   -0.009004   -1.011680
     52          6           0        8.865759   -0.069936   -0.196486
     53          6           0       10.189656   -0.526539   -0.940712
     54          6           0       10.166805   -1.969913   -1.268866
     55          6           0       11.466536   -0.197738   -0.056833
     56          6           0       12.775650   -0.345815   -0.755995
     57          6           0       13.991873    0.028308    0.149728
     58          6           0       15.386421   -0.205095   -0.486177
     59          6           0       15.723537   -1.690953   -0.904813
     60          6           0       16.412040    0.430120    0.362475
     61          6           0       17.849177    0.495661   -0.243335
     62          6           0       18.683552    1.264754    0.713344
     63          6           0       20.113420    1.257951    0.311605
     64          6           0       20.427442    2.002688   -0.977527
     65          6           0       21.165123    1.801537    1.307256
     66          1           0       -3.980536    3.632402    1.491259
     67          1           0      -10.093071    3.836044   -0.477717
     68          1           0      -10.429468   -2.345117   -1.274887
     69          1           0       -2.648744   -1.222827    2.241465
     70          1           0       -2.216391    1.623134    1.092875
     71          1           0       -2.011903    0.909621    3.693373
     72          1           0       -3.132849    2.234416    3.199963
     73          1           0       -3.844967    0.725254    3.714330
     74          1           0       -1.961787   -1.612579   -0.282094
     75          1           0       -2.100638    0.045177   -0.670099
     76          1           0       -0.347842    0.337087    1.086236
     77          1           0       -0.306345   -1.482193    1.423924
     78          1           0       -5.472336    6.811814    0.796464
     79          1           0       -5.416280    5.784906    2.426907
     80          1           0       -4.228681    5.605367    0.937009
     81          1           0       -9.326173    5.954755   -0.622502
     82          1           0       -8.980841    8.015188    0.267672
     83          1           0       -7.558339    7.501770    1.477298
     84          1           0      -12.167621    2.979458   -2.492717
     85          1           0      -13.127272    1.872386   -1.695203
     86          1           0      -12.660324    3.320247   -0.700961
     87          1           0      -12.564947   -1.448433   -0.952806
     88          1           0      -13.086505    0.042091   -1.556406
     89          1           0      -13.177782   -1.560244   -3.493067
     90          1           0      -12.349404    0.053080   -3.751370
     91          1           0      -11.450121   -1.795630   -3.434160
     92          1           0       -9.440922   -4.556317   -2.064569
     93          1           0       -8.205871   -5.679821   -1.237801
     94          1           0       -9.454213   -4.975541   -0.198551
     95          1           0       -3.347045   -3.307192   -0.137481
     96          1           0       -1.750246   -4.408973    3.580342
     97          1           0       -3.202591   -5.481077    3.825643
     98          1           0       -1.976411   -6.168394    2.799993
     99          1           0        2.565292   -1.522643   -1.702579
    100          1           0        2.084473    0.159724   -1.796121
    101          1           0        4.311508   -0.936385    0.427135
    102          1           0        3.999292    1.194598   -2.477281
    103          1           0        5.027640    2.381051   -1.441762
    104          1           0        5.906964    1.266875   -3.050993
    105          1           0        6.543395    1.531552   -0.008821
    106          1           0        6.443895   -0.217607    0.836297
    107          1           0        7.500254   -1.026342   -1.395248
    108          1           0        7.784853    0.533909   -1.971063
    109          1           0        8.941630    0.987237    0.177659
    110          1           0        8.596829   -0.561901    0.684242
    111          1           0       10.321863   -0.163956   -1.807906
    112          1           0        9.355614   -2.242714   -1.924516
    113          1           0       10.961096   -2.158181   -1.933868
    114          1           0       10.154161   -2.572943   -0.179231
    115          1           0       11.386827    1.006699    0.298397
    116          1           0       11.410519   -0.728255    0.895513
    117          1           0       12.856169   -1.395868   -1.233519
    118          1           0       12.790027    0.211897   -1.579623
    119          1           0       13.773393    0.923483    0.276652
    120          1           0       14.107872   -0.508719    1.064923
    121          1           0       15.498738    0.320748   -1.444824
    122          1           0       15.654100   -2.376239   -0.011804
    123          1           0       14.983662   -1.920523   -1.677371
    124          1           0       16.803357   -1.754345   -1.284541
    125          1           0       15.978548    1.459978    0.545225
    126          1           0       16.675038   -0.191167    1.307294
    127          1           0       18.205513   -0.386912   -0.574925
    128          1           0       17.609333    0.978045   -1.302326
    129          1           0       18.435745    2.374326    0.695794
    130          1           0       18.789838    0.871802    1.775217
    131          1           0       20.732486    0.273952    0.081351
    132          1           0       20.184864    3.128707   -0.976618
    133          1           0       21.547112    2.033984   -1.247733
    134          1           0       19.810849    1.579213   -1.854791
    135          1           0       21.256241    1.067022    2.181089
    136          1           0       22.034543    1.548108    0.998123
    137          1           0       20.871524    2.890444    1.684887
 ---------------------------------------------------------------------

 SCF Done:  E(RCAM-B3LYP) =  -2932.58937854     A.U. after   18 cycles

 Excitation energies and oscillator strengths:

 Excited State   1:      Singlet-A      2.1162 eV  585.89 nm  f=0.2460  <S**2>=0.000
     240 -> 242       -0.12963
     240 -> 243        0.22327
     241 -> 242        0.63770
     241 -> 243        0.12134
 This state for optimization and/or second-order correction.
 Total Energy, E(TD-HF/TD-KS) =  -2932.51161109
 Copying the excited state density for this state as the 1-particle RhoCI density.

 The electronic state is 1-A.
 Alpha  occ. eigenvalues --  -46.83213 -19.27315 -19.25234 -19.21449 -19.21135
 Alpha  occ. eigenvalues --  -19.20944 -14.40925 -14.38988 -14.38878 -14.38678
 Alpha  occ. eigenvalues --  -10.38988 -10.38677 -10.36491 -10.32884 -10.31661
 Alpha  occ. eigenvalues --  -10.30766 -10.30696 -10.29631 -10.29046 -10.28988
 Alpha  occ. eigenvalues --  -10.28979 -10.28849 -10.28581 -10.28580 -10.28471
 Alpha  occ. eigenvalues --  -10.28453 -10.28419 -10.28317 -10.28276 -10.27860
 Alpha  occ. eigenvalues --  -10.27854 -10.27839 -10.27494 -10.27394 -10.27171
 Alpha  occ. eigenvalues --  -10.27141 -10.27119 -10.27082 -10.27068 -10.26938
 Alpha  occ. eigenvalues --  -10.26802 -10.26461 -10.26394 -10.26253 -10.26118
 Alpha  occ. eigenvalues --  -10.26091 -10.25964 -10.25948 -10.25942 -10.25794
 Alpha  occ. eigenvalues --  -10.25477 -10.25295 -10.25180 -10.25104 -10.25095
 Alpha  occ. eigenvalues --  -10.24951 -10.24928 -10.24925 -10.24841 -10.24622
 Alpha  occ. eigenvalues --  -10.24550 -10.24499 -10.24432 -10.24121 -10.23229
 Alpha  occ. eigenvalues --   -3.12441  -1.87125  -1.86701  -1.86629  -1.20945
 Alpha  occ. eigenvalues --   -1.18330  -1.10982  -1.08867  -1.07590  -1.05431
 Alpha  occ. eigenvalues --   -1.03055  -1.01809  -1.00063  -0.92187  -0.91856
 Alpha  occ. eigenvalues --   -0.91103  -0.89904  -0.89742  -0.89354  -0.89116
 Alpha  occ. eigenvalues --   -0.88733  -0.88409  -0.87611  -0.87039  -0.86447
 Alpha  occ. eigenvalues --   -0.85364  -0.84296  -0.83820  -0.83432  -0.82115
 Alpha  occ. eigenvalues --   -0.81494  -0.81073  -0.80820  -0.79996  -0.77820
 Alpha  occ. eigenvalues --   -0.77471  -0.77037  -0.76252  -0.75524  -0.75345
 Alpha  occ. eigenvalues --   -0.75127  -0.74747  -0.74165  -0.73811  -0.72403
 Alpha  occ. eigenvalues --   -0.71231  -0.70899  -0.70197  -0.69475  -0.67628
 Alpha  occ. eigenvalues --   -0.67162  -0.66019  -0.65285  -0.64757  -0.64632
 Alpha  occ. eigenvalues --   -0.64319  -0.63761  -0.63017  -0.62387  -0.61741
 Alpha  occ. eigenvalues --   -0.60786  -0.60427  -0.60133  -0.59533  -0.58958
 Alpha  occ. eigenvalues --   -0.58443  -0.58154  -0.57712  -0.57610  -0.56890
 Alpha  occ. eigenvalues --   -0.55756  -0.55676  -0.55179  -0.54740  -0.54606
 Alpha  occ. eigenvalues --   -0.54459  -0.54266  -0.53895  -0.53510  -0.53463
 Alpha  occ. eigenvalues --   -0.53293  -0.52639  -0.52424  -0.52418  -0.51763
 Alpha  occ. eigenvalues --   -0.51295  -0.51108  -0.50876  -0.50588  -0.50447
 Alpha  occ. eigenvalues --   -0.50353  -0.50064  -0.49887  -0.49660  -0.49528
 Alpha  occ. eigenvalues --   -0.49465  -0.49281  -0.49085  -0.48742  -0.48305
 Alpha  occ. eigenvalues --   -0.48039  -0.47652  -0.47533  -0.47411  -0.47316
 Alpha  occ. eigenvalues --   -0.46993  -0.46292  -0.45712  -0.45671  -0.45636
 Alpha  occ. eigenvalues --   -0.45448  -0.45359  -0.45235  -0.45059  -0.44909
 Alpha  occ. eigenvalues --   -0.44863  -0.44451  -0.44329  -0.44223  -0.43936
 Alpha  occ. eigenvalues --   -0.43822  -0.43488  -0.43403  -0.43275  -0.43236
 Alpha  occ. eigenvalues --   -0.42958  -0.42705  -0.42651  -0.42545  -0.42357
 Alpha  occ. eigenvalues --   -0.42052  -0.41707  -0.41583  -0.41312  -0.41223
 Alpha  occ. eigenvalues --   -0.41122  -0.40886  -0.40688  -0.40609  -0.40434
 Alpha  occ. eigenvalues --   -0.40333  -0.39722  -0.39528  -0.39362  -0.39122
 Alpha  occ. eigenvalues --   -0.38979  -0.38247  -0.38220  -0.37803  -0.37306
 Alpha  occ. eigenvalues --   -0.37271  -0.37176  -0.37067  -0.36853  -0.36433
 Alpha  occ. eigenvalues --   -0.36320  -0.36129  -0.35984  -0.35963  -0.35589
 Alpha  occ. eigenvalues --   -0.35215  -0.34996  -0.34884  -0.34069  -0.33951
 Alpha  occ. eigenvalues --   -0.33307  -0.32893  -0.32436  -0.31002  -0.30771
 Alpha  occ. eigenvalues --   -0.30181  -0.29577  -0.28075  -0.27411  -0.23350
 Alpha  occ. eigenvalues --   -0.21380
 Alpha virt. eigenvalues --   -0.06385  -0.03156   0.01720   0.04832   0.06371
 Alpha virt. eigenvalues --    0.06523   0.06861   0.07053   0.07398   0.07710
 Alpha virt. eigenvalues --    0.08836   0.10201   0.10768   0.11256   0.11813

 Mulliken charges:
               1
     1  Mg   0.828289
     2  C    0.015176
     3  C   -0.223869
     4  C   -0.128081
     5  C   -0.177378
     6  N   -0.653116
     7  C    0.312496
     8  C   -0.142870
     9  C   -0.142533
    10  C    0.291759
    11  C   -0.281923
    12  C   -0.183541
    13  C   -0.282685
    14  C    0.609884
    15  O   -0.474771
    16  O   -0.444160
    17  N   -0.734151
    18  C    0.301985
    19  C    0.004363
    20  C    0.011224
    21  C    0.270683
    22  C   -0.362867
    23  C   -0.050982
    24  C   -0.238785
    25  N   -0.680920
    26  C    0.273530
    27  C   -0.015699
    28  C    0.055519
    29  C    0.269877
    30  C   -0.379929
    31  C   -0.212166
    32  C   -0.296834
    33  N   -0.719206
    34  C    0.280912
    35  C    0.074384
    36  C   -0.051981
    37  C    0.386328
    38  C   -0.402992
    39  C    0.403397
    40  O   -0.481048
    41  C   -0.291800
    42  C    0.613507
    43  O   -0.448896
    44  O   -0.483285
    45  C   -0.084691
    46  C   -0.003349
    47  C   -0.161458
    48  C    0.113140
    49  C   -0.322583
    50  C   -0.211612
    51  C   -0.156572
    52  C   -0.168500
    53  C   -0.049129
    54  C   -0.293766
    55  C   -0.158791
    56  C   -0.198649
    57  C   -0.142746
    58  C   -0.084385
    59  C   -0.310354
    60  C   -0.156084
    61  C   -0.179882
    62  C   -0.147493
    63  C   -0.069115
    64  C   -0.293143
    65  C   -0.287477
    66  H    0.059410
    67  H    0.091634
    68  H    0.095651
    69  H    0.115105
    70  H    0.101666
    71  H    0.100275
    72  H    0.121028
    73  H    0.126311
    74  H    0.125137
    75  H    0.115418
    76  H    0.134817
    77  H    0.134152
    78  H    0.121659
    79  H    0.108074
    80  H    0.117729
    81  H    0.106421
    82  H    0.077881
    83  H    0.117239
    84  H    0.109445
    85  H    0.112752
    86  H    0.114488
    87  H    0.079733
    88  H    0.102050
    89  H    0.110995
    90  H    0.076055
    91  H    0.117223
    92  H    0.115323
    93  H    0.141978
    94  H    0.127115
    95  H    0.174170
    96  H    0.125384
    97  H    0.143517
    98  H    0.143631
    99  H    0.155271
   100  H    0.109020
   101  H    0.099681
   102  H    0.123771
   103  H    0.100911
   104  H    0.094012
   105  H    0.086923
   106  H    0.073907
   107  H    0.097104
   108  H    0.089949
   109  H    0.077773
   110  H    0.094350
   111  H    0.084906
   112  H    0.100745
   113  H    0.104677
   114  H    0.074334
   115  H    0.044727
   116  H    0.094021
   117  H    0.077652
   118  H    0.104976
   119  H    0.099520
   120  H    0.095711
   121  H    0.072849
   122  H    0.095189
   123  H    0.107119
   124  H    0.093627
   125  H    0.086338
   126  H    0.073452
   127  H    0.110692
   128  H    0.073585
   129  H    0.097390
   130  H    0.099205
   131  H    0.067458
   132  H    0.079345
   133  H    0.088814
   134  H    0.087318
   135  H    0.069767
   136  H    0.113127
   137  H    0.087110
 Sum of Mulliken charges =   0.00000

 Dipole moment (field-independent basis, Debye):
    X=              1.2544    Y=              3.4345    Z=              0.6539  Tot=              3.7144
 Quadrupole moment (field-independent basis, Debye-Ang):
   XX=           -346.8050   YY=           -395.8737   ZZ=           -395.1637
   XY=            -19.7654   XZ=              6.2430   YZ=             -5.1850

 Normal termination of Gaussian 09 at Tue Jul  2 14:28:46 2019.
