 Gaussian 09, Revision D.01,
 Gaussian 09:  ES64L-G09RevD.01 24-Apr-2013

 -------------------------------------
 # td=(NStates=1) CAM-B3LYP/6-31G(d,p)
 -------------------------------------

 --
 TD
 --
 Symbolic Z-matrix:
 Charge =  0 Multiplicity = 1

                         Standard orientation:
 ---------------------------------------------------------------------
 Center     Atomic      Atomic             Coordinates (Angstroms)
 Number     Number       Type             X           Y           Z
 ---------------------------------------------------------------------
      1         12           0       -7.003015    0.657085    0.053657
      2          6           0       -4.896416   -2.019990    0.507819
      3          6           0       -4.750495    2.818632    1.216040
      4          6           0       -9.374154    3.186522   -0.438298
      5          6           0       -9.447845   -1.641161   -0.896902
      6          7           0       -5.011910    0.438513    0.765775
      7          6           0       -4.272097   -0.740292    0.780699
      8          6           0       -2.879718   -0.506275    1.263693
      9          6           0       -2.976825    1.071300    1.577560
     10          6           0       -4.323541    1.543310    1.161303
     11          6           0       -2.894081    1.340719    3.113596
     12          6           0       -1.828548   -0.837350    0.244843
     13          6           0       -0.387441   -0.604897    0.615490
     14          6           0        0.477681   -0.710416   -0.639735
     15          8           0        0.215341   -1.018438   -1.734330
     16          8           0        1.779440   -0.419106   -0.216981
     17          7           0       -7.029671    2.636155    0.401360
     18          6           0       -5.949820    3.354047    0.744002
     19          6           0       -6.354303    4.722048    0.817284
     20          6           0       -7.731313    4.805558    0.392881
     21          6           0       -8.074495    3.436309    0.094415
     22          6           0       -5.494822    5.903759    1.224102
     23          6           0       -8.546631    6.025923    0.037136
     24          6           0       -8.563516    7.215607    0.757891
     25          7           0       -9.007459    0.736147   -0.602974
     26          6           0       -9.827738    1.912232   -0.722304
     27          6           0      -11.168314    1.497657   -1.083633
     28          6           0      -11.227588    0.150532   -1.107814
     29          6           0       -9.878010   -0.239906   -0.958402
     30          6           0      -12.273286    2.513249   -1.364303
     31          6           0      -12.408558   -0.662932   -1.692720
     32          6           0      -12.358325   -1.066470   -3.247112
     33          7           0       -7.286194   -1.311803   -0.088683
     34          6           0       -8.304492   -2.114700   -0.536748
     35          6           0       -7.966031   -3.573803   -0.476841
     36          6           0       -6.576370   -3.552729   -0.124289
     37          6           0       -6.281766   -2.171683    0.132038
     38          6           0       -8.760007   -4.765061   -0.851665
     39          6           0       -5.383082   -4.352847    0.134562
     40          8           0       -5.230473   -5.550303    0.064843
     41          6           0       -4.277368   -3.337818    0.533642
     42          6           0       -3.695616   -3.745249    1.854146
     43          8           0       -4.017740   -3.304721    2.901407
     44          8           0       -2.791329   -4.758670    1.736803
     45          6           0       -2.340227   -5.375332    2.976969
     46          6           0        2.792869   -0.659258   -1.215795
     47          6           0        4.152160   -0.504249   -0.500229
     48          6           0        5.114608    0.333941   -0.914792
     49          6           0        5.068859    1.075073   -2.222930
     50          6           0        6.424488    0.313206   -0.158995
     51          6           0        7.690524   -0.265064   -0.947948
     52          6           0        8.895677   -0.058101   -0.239422
     53          6           0       10.275872   -0.541585   -0.810064
     54          6           0       10.194434   -1.959794   -1.413407
     55          6           0       11.512545   -0.222146   -0.028141
     56          6           0       12.841688   -0.425024   -0.773827
     57          6           0       14.006776   -0.016362    0.118483
     58          6           0       15.351580   -0.189969   -0.529945
     59          6           0       15.683872   -1.677092   -0.828092
     60          6           0       16.426355    0.395668    0.351775
     61          6           0       17.874564    0.526164   -0.225656
     62          6           0       18.769608    1.385421    0.744541
     63          6           0       20.199906    1.327512    0.255489
     64          6           0       20.469442    2.146177   -0.945216
     65          6           0       21.167774    1.897794    1.376544
     66          1           0       -4.009669    3.538949    1.609282
     67          1           0      -10.078390    4.051104   -0.265170
     68          1           0      -10.234060   -2.530645   -1.188790
     69          1           0       -2.600357   -1.158029    2.252081
     70          1           0       -2.250358    1.559089    1.040535
     71          1           0       -1.939705    0.688625    3.282432
     72          1           0       -2.661661    2.390809    3.398409
     73          1           0       -3.775540    0.819461    3.561102
     74          1           0       -2.064023   -1.700063   -0.378002
     75          1           0       -2.336578   -0.166254   -0.454159
     76          1           0       -0.020196    0.506160    0.806258
     77          1           0        0.172621   -1.075642    1.431336
     78          1           0       -5.813029    6.811102    0.665470
     79          1           0       -5.453929    6.133722    2.348525
     80          1           0       -4.629016    5.515308    0.742955
     81          1           0       -9.307770    5.789741   -0.783040
     82          1           0       -9.385295    7.841110    0.779125
     83          1           0       -7.776479    7.418699    1.449033
     84          1           0      -12.201769    3.307954   -2.169151
     85          1           0      -13.089000    2.011384   -1.593617
     86          1           0      -12.598956    3.064287   -0.458906
     87          1           0      -12.483474   -1.812917   -1.197033
     88          1           0      -13.409992   -0.136582   -1.392894
     89          1           0      -13.169667   -1.632679   -3.572809
     90          1           0      -12.316300   -0.177064   -3.870311
     91          1           0      -11.471236   -1.659362   -3.408732
     92          1           0       -9.260574   -4.419292   -1.734736
     93          1           0       -8.088803   -5.611951   -1.027093
     94          1           0       -9.448884   -5.055250   -0.086758
     95          1           0       -3.430639   -3.725797   -0.002197
     96          1           0       -1.945447   -4.782286    3.660789
     97          1           0       -3.273208   -5.831513    3.479722
     98          1           0       -1.607022   -6.025280    3.017727
     99          1           0        2.569866   -1.673783   -1.438889
    100          1           0        2.668410   -0.114158   -1.831287
    101          1           0        4.281539   -1.150752    0.286906
    102          1           0        4.116265    1.122609   -2.762958
    103          1           0        5.177217    2.306247   -1.958551
    104          1           0        5.581166    0.859836   -3.139345
    105          1           0        6.668881    1.340007    0.112115
    106          1           0        6.392098   -0.158419    0.906377
    107          1           0        7.404111   -1.138494   -1.536293
    108          1           0        7.692397    0.323905   -1.906502
    109          1           0        8.825590    1.127954   -0.037086
    110          1           0        8.783500   -0.504370    0.679941
    111          1           0       10.216801    0.315502   -1.687695
    112          1           0        9.461794   -2.009194   -2.242602
    113          1           0       10.931122   -2.253899   -1.934874
    114          1           0        9.934123   -2.667423   -0.600717
    115          1           0       11.533015    0.806370    0.320610
    116          1           0       11.653584   -0.793513    0.844011
    117          1           0       12.796659   -1.367618   -0.964852
    118          1           0       12.707923    0.109350   -1.803614
    119          1           0       13.994691    0.946154    0.280112
    120          1           0       14.069288   -0.623789    1.295308
    121          1           0       15.175549    0.417450   -1.426312
    122          1           0       15.500122   -2.265313    0.099671
    123          1           0       14.918242   -2.157244   -1.379150
    124          1           0       16.631976   -2.067968   -1.058881
    125          1           0       16.077558    1.369036    0.798810
    126          1           0       16.549285   -0.200897    1.198906
    127          1           0       18.177457   -0.634106   -0.361937
    128          1           0       17.800412    0.876990   -1.203233
    129          1           0       18.398685    2.376506    0.836490
    130          1           0       18.422405    0.998375    1.665520
    131          1           0       20.327761    0.278774    0.185938
    132          1           0       20.440162    3.030551   -0.794077
    133          1           0       21.581276    2.023329   -1.408160
    134          1           0       19.719249    1.790929   -1.843946
    135          1           0       21.114610    1.317235    2.385531
    136          1           0       22.163075    2.061827    0.955692
    137          1           0       20.730771    2.902069    1.751155
 ---------------------------------------------------------------------

 SCF Done:  E(RCAM-B3LYP) =  -2932.54477855     A.U. after   17 cycles

 Excitation energies and oscillator strengths:

 Excited State   1:      Singlet-A      2.0965 eV  591.39 nm  f=0.1970  <S**2>=0.000
     240 -> 242       -0.17110
     240 -> 243       -0.22664
     241 -> 242        0.61491
     241 -> 243       -0.17547
 This state for optimization and/or second-order correction.
 Total Energy, E(TD-HF/TD-KS) =  -2932.46773437
 Copying the excited state density for this state as the 1-particle RhoCI density.

 The electronic state is 1-A.
 Alpha  occ. eigenvalues --  -46.84161 -19.26106 -19.23964 -19.21928 -19.21029
 Alpha  occ. eigenvalues --  -19.20432 -14.41399 -14.39948 -14.39674 -14.38795
 Alpha  occ. eigenvalues --  -10.38882 -10.38550 -10.35693 -10.32043 -10.30531
 Alpha  occ. eigenvalues --  -10.30261 -10.29637 -10.29618 -10.29426 -10.29419
 Alpha  occ. eigenvalues --  -10.29190 -10.29040 -10.28713 -10.28672 -10.28397
 Alpha  occ. eigenvalues --  -10.28378 -10.28277 -10.28110 -10.28009 -10.27902
 Alpha  occ. eigenvalues --  -10.27767 -10.27755 -10.27465 -10.27427 -10.27336
 Alpha  occ. eigenvalues --  -10.26950 -10.26677 -10.26665 -10.26622 -10.26554
 Alpha  occ. eigenvalues --  -10.26544 -10.26432 -10.26137 -10.25939 -10.25676
 Alpha  occ. eigenvalues --  -10.25641 -10.25579 -10.25541 -10.25501 -10.25403
 Alpha  occ. eigenvalues --  -10.25381 -10.25354 -10.25328 -10.25210 -10.25201
 Alpha  occ. eigenvalues --  -10.25188 -10.25104 -10.25026 -10.24583 -10.24293
 Alpha  occ. eigenvalues --  -10.24261 -10.24033 -10.23995 -10.23872 -10.23528
 Alpha  occ. eigenvalues --   -3.13251  -1.87953  -1.87482  -1.87444  -1.18311
 Alpha  occ. eigenvalues --   -1.18184  -1.12101  -1.10005  -1.09469  -1.05097
 Alpha  occ. eigenvalues --   -1.03877  -1.03058  -1.02087  -0.93703  -0.91648
 Alpha  occ. eigenvalues --   -0.91091  -0.90681  -0.89831  -0.89183  -0.89003
 Alpha  occ. eigenvalues --   -0.88284  -0.87984  -0.87428  -0.86872  -0.86466
 Alpha  occ. eigenvalues --   -0.85672  -0.84878  -0.83612  -0.83032  -0.82239
 Alpha  occ. eigenvalues --   -0.81875  -0.81795  -0.80831  -0.80454  -0.79071
 Alpha  occ. eigenvalues --   -0.78445  -0.77630  -0.77030  -0.76880  -0.76598
 Alpha  occ. eigenvalues --   -0.75825  -0.75035  -0.74588  -0.73564  -0.72622
 Alpha  occ. eigenvalues --   -0.71988  -0.71172  -0.70278  -0.69547  -0.68912
 Alpha  occ. eigenvalues --   -0.67101  -0.66984  -0.65597  -0.65173  -0.65079
 Alpha  occ. eigenvalues --   -0.65029  -0.64570  -0.63777  -0.63538  -0.62472
 Alpha  occ. eigenvalues --   -0.62432  -0.61119  -0.60194  -0.59920  -0.59503
 Alpha  occ. eigenvalues --   -0.58693  -0.58100  -0.57789  -0.57215  -0.56907
 Alpha  occ. eigenvalues --   -0.56632  -0.55760  -0.55703  -0.54989  -0.54684
 Alpha  occ. eigenvalues --   -0.54143  -0.54008  -0.53735  -0.53601  -0.53283
 Alpha  occ. eigenvalues --   -0.52942  -0.52458  -0.52409  -0.52004  -0.51769
 Alpha  occ. eigenvalues --   -0.51572  -0.51368  -0.51002  -0.50829  -0.50442
 Alpha  occ. eigenvalues --   -0.50380  -0.50200  -0.50092  -0.49935  -0.49745
 Alpha  occ. eigenvalues --   -0.49557  -0.49479  -0.49144  -0.48882  -0.48766
 Alpha  occ. eigenvalues --   -0.48601  -0.48314  -0.47910  -0.47785  -0.47607
 Alpha  occ. eigenvalues --   -0.47238  -0.47112  -0.47055  -0.46856  -0.46673
 Alpha  occ. eigenvalues --   -0.46511  -0.46469  -0.46214  -0.45840  -0.45471
 Alpha  occ. eigenvalues --   -0.45043  -0.44892  -0.44636  -0.44558  -0.44356
 Alpha  occ. eigenvalues --   -0.43984  -0.43850  -0.43746  -0.43568  -0.43227
 Alpha  occ. eigenvalues --   -0.43016  -0.42914  -0.42563  -0.42408  -0.42304
 Alpha  occ. eigenvalues --   -0.42170  -0.41899  -0.41604  -0.41497  -0.41295
 Alpha  occ. eigenvalues --   -0.41116  -0.41109  -0.41020  -0.40728  -0.40194
 Alpha  occ. eigenvalues --   -0.40169  -0.39698  -0.39633  -0.39528  -0.39183
 Alpha  occ. eigenvalues --   -0.39169  -0.38888  -0.38578  -0.38194  -0.37777
 Alpha  occ. eigenvalues --   -0.37610  -0.37389  -0.37215  -0.36898  -0.36801
 Alpha  occ. eigenvalues --   -0.36459  -0.36011  -0.35917  -0.35745  -0.35633
 Alpha  occ. eigenvalues --   -0.35329  -0.34378  -0.34051  -0.33844  -0.33304
 Alpha  occ. eigenvalues --   -0.33185  -0.33070  -0.32328  -0.30922  -0.30729
 Alpha  occ. eigenvalues --   -0.30303  -0.29877  -0.28770  -0.25963  -0.23327
 Alpha  occ. eigenvalues --   -0.20991
 Alpha virt. eigenvalues --   -0.06194  -0.03545   0.00923   0.03683   0.05321
 Alpha virt. eigenvalues --    0.05647   0.06176   0.07386   0.07694   0.07845
 Alpha virt. eigenvalues --    0.08599   0.10290   0.10620   0.11570   0.11877

 Mulliken charges:
               1
     1  Mg   0.818994
     2  C    0.081839
     3  C   -0.188344
     4  C   -0.175621
     5  C   -0.225131
     6  N   -0.666545
     7  C    0.298155
     8  C   -0.172518
     9  C   -0.165600
    10  C    0.369135
    11  C   -0.295367
    12  C   -0.179589
    13  C   -0.269942
    14  C    0.606249
    15  O   -0.442191
    16  O   -0.541757
    17  N   -0.732640
    18  C    0.332300
    19  C   -0.047320
    20  C    0.001409
    21  C    0.307102
    22  C   -0.362199
    23  C   -0.100372
    24  C   -0.244538
    25  N   -0.652545
    26  C    0.272248
    27  C    0.022352
    28  C    0.034453
    29  C    0.266926
    30  C   -0.371174
    31  C   -0.227064
    32  C   -0.308784
    33  N   -0.735376
    34  C    0.341273
    35  C    0.026930
    36  C   -0.001348
    37  C    0.309407
    38  C   -0.375025
    39  C    0.374648
    40  O   -0.451928
    41  C   -0.352734
    42  C    0.619122
    43  O   -0.447440
    44  O   -0.480666
    45  C   -0.072751
    46  C    0.124383
    47  C   -0.132204
    48  C    0.129012
    49  C   -0.374473
    50  C   -0.230445
    51  C   -0.177352
    52  C   -0.160579
    53  C   -0.060694
    54  C   -0.309547
    55  C   -0.177655
    56  C   -0.180855
    57  C   -0.144184
    58  C   -0.052940
    59  C   -0.331330
    60  C   -0.191558
    61  C   -0.185444
    62  C   -0.174211
    63  C   -0.043613
    64  C   -0.271732
    65  C   -0.318242
    66  H    0.083669
    67  H    0.117938
    68  H    0.080118
    69  H    0.110078
    70  H    0.110933
    71  H    0.088268
    72  H    0.114546
    73  H    0.134236
    74  H    0.136049
    75  H    0.119251
    76  H    0.137733
    77  H    0.156301
    78  H    0.114902
    79  H    0.113582
    80  H    0.117214
    81  H    0.095622
    82  H    0.111876
    83  H    0.107789
    84  H    0.116791
    85  H    0.116401
    86  H    0.116446
    87  H    0.068017
    88  H    0.097498
    89  H    0.116303
    90  H    0.111094
    91  H    0.111463
    92  H    0.129154
    93  H    0.155705
    94  H    0.144326
    95  H    0.166739
    96  H    0.129047
    97  H    0.117652
    98  H    0.125042
    99  H    0.112899
   100  H    0.062758
   101  H    0.091355
   102  H    0.116330
   103  H    0.080488
   104  H    0.135660
   105  H    0.099041
   106  H    0.088400
   107  H    0.100969
   108  H    0.082826
   109  H    0.074575
   110  H    0.095409
   111  H    0.050727
   112  H    0.097851
   113  H    0.115973
   114  H    0.102590
   115  H    0.089500
   116  H    0.093592
   117  H    0.113417
   118  H    0.079936
   119  H    0.105128
   120  H    0.038221
   121  H    0.084850
   122  H    0.089190
   123  H    0.103759
   124  H    0.111322
   125  H    0.070559
   126  H    0.099667
   127  H    0.068340
   128  H    0.102845
   129  H    0.093564
   130  H    0.099122
   131  H    0.098874
   132  H    0.118420
   133  H    0.074989
   134  H    0.076524
   135  H    0.089122
   136  H    0.102436
   137  H    0.084613
 Sum of Mulliken charges =   0.00000

 Dipole moment (field-independent basis, Debye):
    X=              1.0391    Y=              1.8012    Z=             -0.5509  Tot=              2.1512
 Quadrupole moment (field-independent basis, Debye-Ang):
   XX=           -354.1522   YY=           -393.2306   ZZ=           -395.2494
   XY=             -9.7880   XZ=             15.6360   YZ=             -2.0286

 Normal termination of Gaussian 09 at Fri Jul  5 05:57:10 2019.
