 Gaussian 16, Revision A.03,
 Gaussian 16:  ES64L-G16RevA.03 25-Dec-2016

 ----------------------------------------------------------------------
 # td=(NStates=1) iop(3/107=0140000000,3/108=0140000000) CAM-B3LYP/6-31
 G(d,p)
 ----------------------------------------------------------------------

 --
 TD
 --
 Symbolic Z-matrix:
 Charge =  0 Multiplicity = 1

                         Standard orientation:
 ---------------------------------------------------------------------
 Center     Atomic      Atomic             Coordinates (Angstroms)
 Number     Number       Type             X           Y           Z
 ---------------------------------------------------------------------
      1         12           0       -7.143503    0.658690    0.100617
      2          6           0       -4.868935   -2.029310    0.496736
      3          6           0       -4.743487    2.855475    1.161424
      4          6           0       -9.319956    3.079366   -0.394592
      5          6           0       -9.550944   -1.763785   -1.034122
      6          7           0       -5.074587    0.397639    0.735109
      7          6           0       -4.318875   -0.763482    0.788359
      8          6           0       -2.974790   -0.431230    1.306758
      9          6           0       -3.025828    1.058840    1.802966
     10          6           0       -4.347422    1.488010    1.193548
     11          6           0       -2.929758    1.115511    3.275595
     12          6           0       -1.946829   -0.689254    0.137442
     13          6           0       -0.565440   -0.353223    0.494381
     14          6           0        0.524647   -0.571290   -0.524992
     15          8           0        0.247972   -1.063781   -1.665391
     16          8           0        1.734221   -0.327081   -0.116735
     17          7           0       -6.996682    2.615752    0.250968
     18          6           0       -5.950450    3.412400    0.822766
     19          6           0       -6.386662    4.826585    0.860382
     20          6           0       -7.734623    4.792392    0.366942
     21          6           0       -8.051011    3.495293    0.017717
     22          6           0       -5.438216    5.931744    1.216099
     23          6           0       -8.645025    5.991346    0.230377
     24          6           0       -8.518732    7.250582    0.658242
     25          7           0       -9.076463    0.677240   -0.595783
     26          6           0       -9.820177    1.827727   -0.664025
     27          6           0      -11.208406    1.550402   -1.155374
     28          6           0      -11.218870    0.119650   -1.278907
     29          6           0       -9.916362   -0.386337   -0.949029
     30          6           0      -12.173049    2.544997   -1.412461
     31          6           0      -12.465903   -0.690526   -1.742865
     32          6           0      -12.280822   -1.063083   -3.310396
     33          7           0       -7.288581   -1.379210   -0.232192
     34          6           0       -8.277013   -2.198375   -0.604966
     35          6           0       -7.862013   -3.666189   -0.603364
     36          6           0       -6.548997   -3.619428   -0.187035
     37          6           0       -6.203984   -2.259228    0.009280
     38          6           0       -8.796349   -4.780136   -0.885268
     39          6           0       -5.414748   -4.395469    0.166019
     40          8           0       -5.337264   -5.632389    0.199289
     41          6           0       -4.240085   -3.325819    0.565365
     42          6           0       -3.682902   -3.742852    1.907352
     43          8           0       -3.859927   -3.177928    2.965626
     44          8           0       -2.860850   -4.770725    1.788893
     45          6           0       -2.051639   -5.189305    2.921788
     46          6           0        2.775886   -0.572793   -1.108996
     47          6           0        4.158624   -0.363956   -0.480272
     48          6           0        5.077096    0.379330   -0.904178
     49          6           0        5.193371    1.190238   -2.224350
     50          6           0        6.414245    0.415553   -0.150052
     51          6           0        7.696707   -0.232124   -0.974469
     52          6           0        9.044320   -0.041850   -0.140865
     53          6           0       10.271889   -0.516250   -0.980677
     54          6           0       10.056887   -1.984162   -1.291502
     55          6           0       11.408770   -0.282686   -0.046583
     56          6           0       12.762558   -0.577402   -0.679243
     57          6           0       14.026295   -0.229075    0.174938
     58          6           0       15.420180   -0.339857   -0.502639
     59          6           0       15.738447   -1.728914   -0.840141
     60          6           0       16.463059    0.333760    0.419399
     61          6           0       17.848990    0.574899   -0.249222
     62          6           0       18.755880    1.288983    0.745897
     63          6           0       20.262946    1.408016    0.186446
     64          6           0       20.426986    2.191947   -1.200082
     65          6           0       21.188421    1.970546    1.245182
     66          1           0       -4.166429    3.558235    1.640538
     67          1           0      -10.242517    3.758678   -0.642571
     68          1           0      -10.371407   -2.624913   -0.944900
     69          1           0       -2.610235   -1.029122    2.171440
     70          1           0       -2.111650    1.691116    1.392558
     71          1           0       -1.993294    0.816601    3.699808
     72          1           0       -2.960790    1.927865    3.637726
     73          1           0       -3.741528    0.573194    3.554316
     74          1           0       -1.944297   -1.773501   -0.154720
     75          1           0       -2.068659   -0.143888   -0.905703
     76          1           0       -0.489257    0.686331    0.750603
     77          1           0       -0.113788   -0.864704    1.388659
     78          1           0       -5.753171    6.816797    0.767907
     79          1           0       -5.555873    6.273685    2.402476
     80          1           0       -4.291445    5.950037    0.876766
     81          1           0       -9.465055    5.887660   -0.553684
     82          1           0       -9.136346    7.996989    0.409459
     83          1           0       -7.882073    7.342381    1.621383
     84          1           0      -12.096036    3.266272   -2.400569
     85          1           0      -13.125256    2.045813   -1.431817
     86          1           0      -12.496730    3.314868   -0.658399
     87          1           0      -12.460021   -1.615552   -1.009016
     88          1           0      -13.327865   -0.152353   -1.703247
     89          1           0      -13.148268   -1.874273   -3.438867
     90          1           0      -12.337480   -0.257531   -4.024706
     91          1           0      -11.236075   -1.556626   -3.364283
     92          1           0       -9.146779   -4.657487   -1.750955
     93          1           0       -8.138594   -5.607678   -0.876926
     94          1           0       -9.590853   -4.988432   -0.063343
     95          1           0       -3.396519   -3.622858   -0.052272
     96          1           0       -1.605280   -4.240798    3.348549
     97          1           0       -2.635171   -5.426004    3.867013
     98          1           0       -1.499445   -6.015945    2.679729
     99          1           0        2.690241   -1.645542   -1.353934
    100          1           0        2.706695    0.245576   -1.844241
    101          1           0        4.299172   -0.817235    0.535534
    102          1           0        4.013999    1.405451   -2.572351
    103          1           0        5.804891    2.092989   -2.204989
    104          1           0        5.708457    0.418924   -2.834299
    105          1           0        6.627755    1.587606   -0.069732
    106          1           0        6.401855    0.023798    0.848923
    107          1           0        7.305252   -1.455516   -0.823220
    108          1           0        7.533931    0.011061   -2.032332
    109          1           0        9.003439    0.966857    0.042021
    110          1           0        8.751923   -0.566587    0.857440
    111          1           0       10.289647    0.232646   -1.839809
    112          1           0        9.322314   -2.091928   -2.015246
    113          1           0       11.117795   -2.465256   -1.477028
    114          1           0        9.619182   -2.425233   -0.243936
    115          1           0       11.656748    0.807495    0.482031
    116          1           0       11.311197   -0.645644    0.896784
    117          1           0       12.834263   -1.580542   -0.975793
    118          1           0       12.699362   -0.119478   -1.642612
    119          1           0       14.054344    0.907851    0.433974
    120          1           0       14.051834   -0.818925    1.087843
    121          1           0       15.386992    0.207992   -1.390047
    122          1           0       15.693070   -2.513281    0.059303
    123          1           0       15.120554   -2.136405   -1.549413
    124          1           0       16.825539   -1.880747   -1.203526
    125          1           0       16.012349    1.087945    0.835591
    126          1           0       16.502130   -0.358297    1.246043
    127          1           0       18.389070   -0.420653   -0.388101
    128          1           0       17.631773    1.115239   -1.197447
    129          1           0       18.368067    2.446202    0.986324
    130          1           0       18.784091    0.904305    1.849173
    131          1           0       20.691186    0.399301   -0.198586
    132          1           0       19.960826    3.217161   -1.208935
    133          1           0       21.278079    2.344721   -1.554852
    134          1           0       19.678140    1.530308   -1.843204
    135          1           0       20.968881    1.350127    2.033426
    136          1           0       22.307551    1.873891    1.039793
    137          1           0       20.891197    3.162756    1.404518
 ---------------------------------------------------------------------

 SCF Done:  E(RCAM-B3LYP) =  -2933.44990323     A.U. after   16 cycles

 Excitation energies and oscillator strengths:

 Excited State   1:      Singlet-A      1.9612 eV  632.17 nm  f=0.2273  <S**2>=0.000
     240 -> 243       -0.25502
     241 -> 242        0.65238
 This state for optimization and/or second-order correction.
 Total Energy, E(TD-HF/TD-DFT) =  -2933.37782884
 Copying the excited state density for this state as the 1-particle RhoCI density.

 The electronic state is 1-A.
 Alpha  occ. eigenvalues --  -46.79688 -19.22938 -19.21874 -19.16276 -19.15599
 Alpha  occ. eigenvalues --  -19.14760 -14.38076 -14.35708 -14.34885 -14.34858
 Alpha  occ. eigenvalues --  -10.33901 -10.33735 -10.30614 -10.28207 -10.27182
 Alpha  occ. eigenvalues --  -10.26735 -10.26686 -10.25257 -10.25105 -10.25032
 Alpha  occ. eigenvalues --  -10.24989 -10.24688 -10.24281 -10.24004 -10.23983
 Alpha  occ. eigenvalues --  -10.23960 -10.23738 -10.23676 -10.23609 -10.23604
 Alpha  occ. eigenvalues --  -10.23482 -10.23464 -10.23290 -10.23281 -10.23188
 Alpha  occ. eigenvalues --  -10.23067 -10.22906 -10.22862 -10.22777 -10.22760
 Alpha  occ. eigenvalues --  -10.22702 -10.22699 -10.22669 -10.22509 -10.22454
 Alpha  occ. eigenvalues --  -10.22403 -10.22403 -10.22242 -10.22165 -10.22139
 Alpha  occ. eigenvalues --  -10.22002 -10.21412 -10.21234 -10.21222 -10.21043
 Alpha  occ. eigenvalues --  -10.20981 -10.20803 -10.20718 -10.20418 -10.20296
 Alpha  occ. eigenvalues --  -10.20127 -10.20007 -10.19467 -10.19007 -10.17899
 Alpha  occ. eigenvalues --   -3.08276  -1.83213  -1.82763  -1.82672  -1.14041
 Alpha  occ. eigenvalues --   -1.13291  -1.04825  -1.03503  -1.00898  -0.98589
 Alpha  occ. eigenvalues --   -0.97683  -0.96814  -0.95770  -0.88227  -0.86560
 Alpha  occ. eigenvalues --   -0.86046  -0.85097  -0.84967  -0.83901  -0.83041
 Alpha  occ. eigenvalues --   -0.82702  -0.82510  -0.82502  -0.82371  -0.81336
 Alpha  occ. eigenvalues --   -0.79839  -0.79221  -0.78942  -0.78155  -0.77407
 Alpha  occ. eigenvalues --   -0.76952  -0.76611  -0.76431  -0.75229  -0.74316
 Alpha  occ. eigenvalues --   -0.73481  -0.72518  -0.71722  -0.71575  -0.71253
 Alpha  occ. eigenvalues --   -0.70991  -0.70396  -0.70283  -0.69085  -0.67981
 Alpha  occ. eigenvalues --   -0.67412  -0.65800  -0.64698  -0.64591  -0.64221
 Alpha  occ. eigenvalues --   -0.62134  -0.61905  -0.61115  -0.60782  -0.60432
 Alpha  occ. eigenvalues --   -0.60002  -0.59874  -0.59073  -0.58250  -0.57628
 Alpha  occ. eigenvalues --   -0.57467  -0.56807  -0.55991  -0.55400  -0.55275
 Alpha  occ. eigenvalues --   -0.54439  -0.53661  -0.53357  -0.53316  -0.52838
 Alpha  occ. eigenvalues --   -0.52782  -0.52004  -0.51154  -0.50919  -0.50688
 Alpha  occ. eigenvalues --   -0.50535  -0.50476  -0.50385  -0.50127  -0.49345
 Alpha  occ. eigenvalues --   -0.48953  -0.48848  -0.48422  -0.48395  -0.48158
 Alpha  occ. eigenvalues --   -0.47939  -0.47496  -0.47180  -0.47026  -0.46651
 Alpha  occ. eigenvalues --   -0.46617  -0.46326  -0.46216  -0.45712  -0.45680
 Alpha  occ. eigenvalues --   -0.45355  -0.45213  -0.44853  -0.44755  -0.44482
 Alpha  occ. eigenvalues --   -0.44348  -0.44267  -0.44231  -0.43944  -0.43666
 Alpha  occ. eigenvalues --   -0.43434  -0.43181  -0.43064  -0.42893  -0.42638
 Alpha  occ. eigenvalues --   -0.42228  -0.42043  -0.41881  -0.41733  -0.41588
 Alpha  occ. eigenvalues --   -0.41357  -0.40972  -0.40935  -0.40805  -0.40718
 Alpha  occ. eigenvalues --   -0.40446  -0.40390  -0.40369  -0.39768  -0.39733
 Alpha  occ. eigenvalues --   -0.39569  -0.39312  -0.39280  -0.39098  -0.38751
 Alpha  occ. eigenvalues --   -0.38599  -0.38428  -0.38352  -0.38065  -0.38023
 Alpha  occ. eigenvalues --   -0.37886  -0.37793  -0.37597  -0.37415  -0.37356
 Alpha  occ. eigenvalues --   -0.36962  -0.36862  -0.36720  -0.36393  -0.35914
 Alpha  occ. eigenvalues --   -0.35557  -0.35450  -0.34841  -0.34558  -0.34377
 Alpha  occ. eigenvalues --   -0.34205  -0.33854  -0.33576  -0.33298  -0.33185
 Alpha  occ. eigenvalues --   -0.33092  -0.32901  -0.32823  -0.32289  -0.32233
 Alpha  occ. eigenvalues --   -0.32175  -0.31999  -0.31675  -0.30647  -0.30433
 Alpha  occ. eigenvalues --   -0.29950  -0.29342  -0.29048  -0.28181  -0.27699
 Alpha  occ. eigenvalues --   -0.27371  -0.26897  -0.25029  -0.24524  -0.21534
 Alpha  occ. eigenvalues --   -0.19815
 Alpha virt. eigenvalues --   -0.07253  -0.04389  -0.00884   0.02001   0.04063
 Alpha virt. eigenvalues --    0.04541   0.04860   0.05017   0.05706   0.06029
 Alpha virt. eigenvalues --    0.06332   0.08756   0.09045   0.09417   0.09804

 Mulliken charges:
               1
     1  Mg   0.818359
     2  C    0.133813
     3  C   -0.170543
     4  C   -0.161466
     5  C   -0.185207
     6  N   -0.632958
     7  C    0.337242
     8  C   -0.175072
     9  C   -0.154054
    10  C    0.323068
    11  C   -0.271790
    12  C   -0.174842
    13  C   -0.252973
    14  C    0.589676
    15  O   -0.520866
    16  O   -0.446455
    17  N   -0.740610
    18  C    0.279519
    19  C    0.036659
    20  C    0.016672
    21  C    0.340165
    22  C   -0.391537
    23  C   -0.062094
    24  C   -0.242287
    25  N   -0.703419
    26  C    0.292232
    27  C    0.089471
    28  C   -0.009830
    29  C    0.296934
    30  C   -0.425337
    31  C   -0.224233
    32  C   -0.309172
    33  N   -0.683080
    34  C    0.286608
    35  C   -0.030487
    36  C    0.122100
    37  C    0.212254
    38  C   -0.363251
    39  C    0.329538
    40  O   -0.470095
    41  C   -0.377570
    42  C    0.620892
    43  O   -0.486699
    44  O   -0.437171
    45  C   -0.086119
    46  C    0.024765
    47  C   -0.151100
    48  C    0.144270
    49  C   -0.352742
    50  C   -0.224781
    51  C   -0.193179
    52  C   -0.164674
    53  C   -0.059975
    54  C   -0.285966
    55  C   -0.151573
    56  C   -0.187364
    57  C   -0.182118
    58  C   -0.062693
    59  C   -0.299038
    60  C   -0.166345
    61  C   -0.173696
    62  C   -0.158113
    63  C   -0.062785
    64  C   -0.295213
    65  C   -0.286597
    66  H    0.072139
    67  H    0.081473
    68  H    0.096351
    69  H    0.126622
    70  H    0.086119
    71  H    0.102749
    72  H    0.106575
    73  H    0.128506
    74  H    0.116267
    75  H    0.117259
    76  H    0.126753
    77  H    0.117908
    78  H    0.140328
    79  H    0.095161
    80  H    0.111586
    81  H    0.079790
    82  H    0.103952
    83  H    0.085885
    84  H    0.105077
    85  H    0.115811
    86  H    0.124623
    87  H    0.093836
    88  H    0.112105
    89  H    0.087358
    90  H    0.125026
    91  H    0.111093
    92  H    0.138850
    93  H    0.146379
    94  H    0.122060
    95  H    0.165453
    96  H    0.122334
    97  H    0.125758
    98  H    0.138158
    99  H    0.142581
   100  H    0.116552
   101  H    0.083593
   102  H    0.087339
   103  H    0.127096
   104  H    0.137096
   105  H    0.066790
   106  H    0.096615
   107  H    0.051952
   108  H    0.095767
   109  H    0.111108
   110  H    0.091559
   111  H    0.089209
   112  H    0.126133
   113  H    0.092614
   114  H    0.086639
   115  H    0.052267
   116  H    0.101198
   117  H    0.096789
   118  H    0.090607
   119  H    0.071160
   120  H    0.092868
   121  H    0.086405
   122  H    0.071323
   123  H    0.111324
   124  H    0.084354
   125  H    0.092099
   126  H    0.086388
   127  H    0.100289
   128  H    0.107541
   129  H    0.061294
   130  H    0.090350
   131  H    0.075755
   132  H    0.084055
   133  H    0.113102
   134  H    0.077269
   135  H    0.108241
   136  H    0.091704
   137  H    0.074560
 Sum of Mulliken charges =  -0.00000

 Dipole moment (field-independent basis, Debye):
    X=              2.4826    Y=              3.6980    Z=              1.2142  Tot=              4.6166
 Quadrupole moment (field-independent basis, Debye-Ang):
   XX=           -343.6710   YY=           -396.7050   ZZ=           -398.1629
   XY=            -22.9990   XZ=              6.0751   YZ=             -3.6524

 Normal termination of Gaussian 16 at Sun Sep 15 07:45:44 2019.
