 Gaussian 16, Revision A.03,
 Gaussian 16:  ES64L-G16RevA.03 25-Dec-2016

 ----------------------------------------------------------------------
 # td=(NStates=1) iop(3/107=0140000000,3/108=0140000000) CAM-B3LYP/6-31
 G(d,p)
 ----------------------------------------------------------------------

 --
 TD
 --
 Symbolic Z-matrix:
 Charge =  0 Multiplicity = 1

                         Standard orientation:
 ---------------------------------------------------------------------
 Center     Atomic      Atomic             Coordinates (Angstroms)
 Number     Number       Type             X           Y           Z
 ---------------------------------------------------------------------
      1         12           0       -7.130698    0.563725    0.064679
      2          6           0       -4.768997   -1.984028    0.470575
      3          6           0       -4.820009    2.817564    1.078133
      4          6           0       -9.412672    3.114690   -0.345876
      5          6           0       -9.405960   -1.838616   -1.048315
      6          7           0       -5.100935    0.420472    0.751028
      7          6           0       -4.325434   -0.720128    0.894887
      8          6           0       -2.882257   -0.381827    1.246061
      9          6           0       -3.011991    1.163448    1.761247
     10          6           0       -4.354207    1.512416    1.160808
     11          6           0       -2.998887    1.192547    3.211877
     12          6           0       -1.939777   -0.590495    0.137803
     13          6           0       -0.489957   -0.424527    0.486896
     14          6           0        0.445313   -0.696598   -0.629186
     15          8           0        0.164367   -1.069346   -1.747213
     16          8           0        1.700638   -0.406451   -0.159653
     17          7           0       -7.184432    2.608606    0.323052
     18          6           0       -6.024881    3.416309    0.732014
     19          6           0       -6.401425    4.785318    0.845493
     20          6           0       -7.713909    4.807554    0.418108
     21          6           0       -8.215944    3.526303    0.132357
     22          6           0       -5.443942    5.835242    1.170322
     23          6           0       -8.712763    5.991721    0.145863
     24          6           0       -8.668446    7.250834    0.695428
     25          7           0       -9.071416    0.655100   -0.605065
     26          6           0       -9.778814    1.806454   -0.722594
     27          6           0      -11.164264    1.534776   -1.159436
     28          6           0      -11.212349    0.219440   -1.364425
     29          6           0       -9.907899   -0.442256   -1.038166
     30          6           0      -12.157824    2.564326   -1.292346
     31          6           0      -12.246768   -0.711423   -1.835505
     32          6           0      -12.196901   -1.180224   -3.321261
     33          7           0       -7.189037   -1.364749   -0.148300
     34          6           0       -8.224828   -2.234507   -0.584280
     35          6           0       -7.747006   -3.586972   -0.571704
     36          6           0       -6.435315   -3.526769   -0.086443
     37          6           0       -6.134030   -2.192412    0.081436
     38          6           0       -8.500022   -4.817701   -0.857803
     39          6           0       -5.304026   -4.341999    0.177951
     40          8           0       -5.107211   -5.582084    0.146324
     41          6           0       -4.165199   -3.391048    0.583501
     42          6           0       -3.607126   -3.672882    2.020994
     43          8           0       -3.867525   -3.075187    3.014384
     44          8           0       -2.770026   -4.764230    1.892119
     45          6           0       -2.184745   -5.259645    3.128896
     46          6           0        2.789640   -0.565802   -1.277806
     47          6           0        4.073743   -0.436315   -0.577723
     48          6           0        5.073967    0.327351   -0.975657
     49          6           0        5.186751    1.199052   -2.201822
     50          6           0        6.413494    0.243961   -0.204755
     51          6           0        7.649162   -0.286259   -0.866217
     52          6           0        8.934082   -0.147511   -0.125635
     53          6           0       10.187097   -0.572462   -0.945368
     54          6           0       10.080238   -2.089840   -1.242648
     55          6           0       11.408929   -0.417178    0.050997
     56          6           0       12.740236   -0.514059   -0.737760
     57          6           0       13.928159   -0.077890    0.097644
     58          6           0       15.350132   -0.125578   -0.500154
     59          6           0       15.639357   -1.627776   -0.737238
     60          6           0       16.322003    0.540643    0.396177
     61          6           0       17.705189    0.611008   -0.233995
     62          6           0       18.708088    1.460466    0.689158
     63          6           0       20.190117    1.405736    0.205633
     64          6           0       20.409768    2.170885   -1.113062
     65          6           0       21.123448    1.953589    1.271227
     66          1           0       -4.181616    3.535042    1.618927
     67          1           0      -10.335198    3.805528   -0.104952
     68          1           0      -10.068239   -2.477473   -1.385395
     69          1           0       -2.535676   -1.123878    2.057868
     70          1           0       -1.993614    1.454889    1.271025
     71          1           0       -1.949273    1.034258    3.915348
     72          1           0       -3.214412    2.171958    3.553373
     73          1           0       -3.576527    0.587661    3.719750
     74          1           0       -2.015867   -1.677352   -0.082995
     75          1           0       -2.118957    0.067482   -0.650922
     76          1           0       -0.162674    0.743214    0.678676
     77          1           0       -0.127358   -0.950481    1.268707
     78          1           0       -5.759811    6.835525    0.673005
     79          1           0       -5.352382    5.896260    2.252353
     80          1           0       -4.448796    5.571046    0.812148
     81          1           0       -9.424568    5.816931   -0.461705
     82          1           0       -9.493621    7.910136    0.600405
     83          1           0       -7.832604    7.573409    1.652592
     84          1           0      -12.055886    3.064103   -2.160891
     85          1           0      -13.007074    2.095995   -1.555115
     86          1           0      -12.446303    2.973957   -0.389119
     87          1           0      -12.286108   -1.626181   -1.266659
     88          1           0      -13.153819   -0.209627   -1.647328
     89          1           0      -12.889143   -1.858839   -3.661516
     90          1           0      -12.155371   -0.406436   -3.931155
     91          1           0      -11.209811   -1.447835   -3.391572
     92          1           0       -8.980132   -4.671558   -1.851792
     93          1           0       -7.619324   -5.480118   -0.801340
     94          1           0       -9.242892   -5.127347   -0.256863
     95          1           0       -3.366549   -3.564137   -0.108072
     96          1           0       -1.782913   -4.379567    3.604824
     97          1           0       -3.004709   -5.874765    3.675074
     98          1           0       -1.493769   -5.793976    2.780376
     99          1           0        2.391559   -1.449081   -1.659361
    100          1           0        2.770744    0.058846   -2.065312
    101          1           0        4.237422   -1.167909    0.180391
    102          1           0        4.129064    1.472312   -2.489450
    103          1           0        5.650090    2.121354   -2.151854
    104          1           0        5.657790    0.764712   -3.116970
    105          1           0        6.689868    1.334685    0.069447
    106          1           0        6.252110   -0.193632    0.761499
    107          1           0        7.507734   -1.450077   -1.170703
    108          1           0        7.702562    0.099306   -1.906202
    109          1           0        9.272018    0.955619   -0.058486
    110          1           0        8.910334   -0.829208    0.854177
    111          1           0       10.381950    0.221067   -1.865944
    112          1           0        9.247837   -2.181023   -2.004362
    113          1           0       11.106512   -2.654625   -1.702529
    114          1           0        9.810436   -2.646131   -0.250949
    115          1           0       11.418383    0.389452    0.530526
    116          1           0       11.400937   -1.118045    0.885787
    117          1           0       13.023608   -1.609036   -0.917294
    118          1           0       12.641796   -0.126604   -1.835853
    119          1           0       13.682744    1.129079    0.494535
    120          1           0       13.903182   -0.630583    1.069713
    121          1           0       15.070808    0.365440   -1.514828
    122          1           0       16.017337   -2.079869    0.197685
    123          1           0       15.025050   -2.265609   -1.384606
    124          1           0       16.361592   -1.789810   -1.487658
    125          1           0       16.051945    1.622976    0.812855
    126          1           0       16.572065   -0.184273    1.273375
    127          1           0       18.054528   -0.405732   -0.370431
    128          1           0       17.664266    1.281292   -1.025282
    129          1           0       18.072308    2.512417    0.767255
    130          1           0       18.611071    1.042852    1.738985
    131          1           0       20.327031    0.439610   -0.033843
    132          1           0       20.225455    3.230851   -0.902259
    133          1           0       21.346099    1.943359   -1.548871
    134          1           0       19.639736    1.801673   -1.837181
    135          1           0       21.214419    1.322226    2.211202
    136          1           0       22.105528    2.069626    0.956634
    137          1           0       20.762212    2.730920    1.714431
 ---------------------------------------------------------------------

 SCF Done:  E(RCAM-B3LYP) =  -2933.44795497     A.U. after   16 cycles

 Excitation energies and oscillator strengths:

 Excited State   1:      Singlet-A      2.0118 eV  616.29 nm  f=0.2081  <S**2>=0.000
     240 -> 243       -0.25975
     241 -> 242        0.65334
 This state for optimization and/or second-order correction.
 Total Energy, E(TD-HF/TD-DFT) =  -2933.37402275
 Copying the excited state density for this state as the 1-particle RhoCI density.

 The electronic state is 1-A.
 Alpha  occ. eigenvalues --  -46.78645 -19.21215 -19.20835 -19.17619 -19.16622
 Alpha  occ. eigenvalues --  -19.15394 -14.37839 -14.35007 -14.34985 -14.34286
 Alpha  occ. eigenvalues --  -10.34656 -10.33707 -10.29814 -10.26748 -10.26231
 Alpha  occ. eigenvalues --  -10.25851 -10.25668 -10.25282 -10.25040 -10.24335
 Alpha  occ. eigenvalues --  -10.24255 -10.24168 -10.23948 -10.23898 -10.23677
 Alpha  occ. eigenvalues --  -10.23611 -10.23556 -10.23545 -10.23374 -10.22795
 Alpha  occ. eigenvalues --  -10.22784 -10.22774 -10.22768 -10.22702 -10.22681
 Alpha  occ. eigenvalues --  -10.22600 -10.22584 -10.22407 -10.22368 -10.22297
 Alpha  occ. eigenvalues --  -10.22227 -10.22027 -10.22020 -10.21966 -10.21952
 Alpha  occ. eigenvalues --  -10.21821 -10.21810 -10.21533 -10.21517 -10.21411
 Alpha  occ. eigenvalues --  -10.21402 -10.21285 -10.21020 -10.20774 -10.20672
 Alpha  occ. eigenvalues --  -10.20579 -10.20549 -10.20404 -10.20236 -10.19722
 Alpha  occ. eigenvalues --  -10.19680 -10.19059 -10.18970 -10.18163 -10.18113
 Alpha  occ. eigenvalues --   -3.07375  -1.82308  -1.81837  -1.81802  -1.12349
 Alpha  occ. eigenvalues --   -1.10907  -1.05183  -1.03498  -1.03039  -0.98605
 Alpha  occ. eigenvalues --   -0.97483  -0.96391  -0.95226  -0.87533  -0.86694
 Alpha  occ. eigenvalues --   -0.85853  -0.85523  -0.84490  -0.84418  -0.83963
 Alpha  occ. eigenvalues --   -0.83313  -0.83205  -0.82841  -0.82142  -0.81597
 Alpha  occ. eigenvalues --   -0.80767  -0.80141  -0.79419  -0.78409  -0.77848
 Alpha  occ. eigenvalues --   -0.77197  -0.76918  -0.76001  -0.75173  -0.74308
 Alpha  occ. eigenvalues --   -0.74011  -0.72848  -0.72071  -0.71893  -0.71706
 Alpha  occ. eigenvalues --   -0.71016  -0.70731  -0.69415  -0.68792  -0.68163
 Alpha  occ. eigenvalues --   -0.67913  -0.66677  -0.66023  -0.64835  -0.64066
 Alpha  occ. eigenvalues --   -0.62090  -0.61822  -0.61466  -0.60281  -0.60116
 Alpha  occ. eigenvalues --   -0.59502  -0.58645  -0.58619  -0.58178  -0.57624
 Alpha  occ. eigenvalues --   -0.56863  -0.56588  -0.56306  -0.55682  -0.55577
 Alpha  occ. eigenvalues --   -0.54524  -0.54187  -0.53652  -0.53335  -0.53012
 Alpha  occ. eigenvalues --   -0.51978  -0.51743  -0.51661  -0.51421  -0.51183
 Alpha  occ. eigenvalues --   -0.50971  -0.50228  -0.50020  -0.49837  -0.49580
 Alpha  occ. eigenvalues --   -0.49414  -0.49182  -0.48443  -0.48370  -0.48261
 Alpha  occ. eigenvalues --   -0.47884  -0.47651  -0.47415  -0.47289  -0.47149
 Alpha  occ. eigenvalues --   -0.47047  -0.46712  -0.46474  -0.46406  -0.46190
 Alpha  occ. eigenvalues --   -0.46067  -0.45961  -0.45564  -0.45136  -0.44994
 Alpha  occ. eigenvalues --   -0.44817  -0.44583  -0.44337  -0.44038  -0.43761
 Alpha  occ. eigenvalues --   -0.43528  -0.43467  -0.43128  -0.42774  -0.42686
 Alpha  occ. eigenvalues --   -0.42426  -0.42370  -0.42242  -0.42128  -0.41801
 Alpha  occ. eigenvalues --   -0.41551  -0.41534  -0.41466  -0.41157  -0.40912
 Alpha  occ. eigenvalues --   -0.40801  -0.40551  -0.40346  -0.40312  -0.39786
 Alpha  occ. eigenvalues --   -0.39331  -0.39169  -0.38982  -0.38855  -0.38739
 Alpha  occ. eigenvalues --   -0.38724  -0.38106  -0.38041  -0.37954  -0.37745
 Alpha  occ. eigenvalues --   -0.37683  -0.37624  -0.37451  -0.37291  -0.37171
 Alpha  occ. eigenvalues --   -0.36785  -0.36667  -0.36505  -0.36117  -0.35853
 Alpha  occ. eigenvalues --   -0.35697  -0.35601  -0.35362  -0.34870  -0.34674
 Alpha  occ. eigenvalues --   -0.33987  -0.33806  -0.33424  -0.33401  -0.33336
 Alpha  occ. eigenvalues --   -0.33135  -0.32692  -0.32532  -0.32466  -0.32277
 Alpha  occ. eigenvalues --   -0.31798  -0.31457  -0.31154  -0.30756  -0.30529
 Alpha  occ. eigenvalues --   -0.30359  -0.29958  -0.29816  -0.28027  -0.27868
 Alpha  occ. eigenvalues --   -0.27043  -0.26622  -0.25943  -0.24550  -0.21625
 Alpha  occ. eigenvalues --   -0.20085
 Alpha virt. eigenvalues --   -0.07117  -0.04301  -0.00398   0.02162   0.02692
 Alpha virt. eigenvalues --    0.04355   0.04478   0.05078   0.05376   0.06017
 Alpha virt. eigenvalues --    0.06633   0.09244   0.09536   0.09864   0.10338

 Mulliken charges:
               1
     1  Mg   0.800742
     2  C    0.031369
     3  C   -0.206234
     4  C   -0.191090
     5  C   -0.143281
     6  N   -0.615458
     7  C    0.321891
     8  C   -0.176509
     9  C   -0.137660
    10  C    0.334546
    11  C   -0.289803
    12  C   -0.145044
    13  C   -0.262218
    14  C    0.615961
    15  O   -0.482887
    16  O   -0.510345
    17  N   -0.706549
    18  C    0.279102
    19  C    0.059790
    20  C   -0.021254
    21  C    0.357301
    22  C   -0.390758
    23  C   -0.047801
    24  C   -0.240111
    25  N   -0.682756
    26  C    0.313371
    27  C    0.014820
    28  C    0.027111
    29  C    0.229704
    30  C   -0.371088
    31  C   -0.263242
    32  C   -0.313813
    33  N   -0.766514
    34  C    0.311083
    35  C    0.012132
    36  C    0.061013
    37  C    0.312162
    38  C   -0.372296
    39  C    0.331245
    40  O   -0.494439
    41  C   -0.297820
    42  C    0.611812
    43  O   -0.444074
    44  O   -0.466865
    45  C   -0.068423
    46  C   -0.000180
    47  C   -0.106771
    48  C    0.127728
    49  C   -0.382646
    50  C   -0.219812
    51  C   -0.164869
    52  C   -0.145198
    53  C   -0.073068
    54  C   -0.282540
    55  C   -0.142882
    56  C   -0.176740
    57  C   -0.146465
    58  C   -0.030668
    59  C   -0.331494
    60  C   -0.169929
    61  C   -0.179476
    62  C   -0.184800
    63  C   -0.040512
    64  C   -0.314965
    65  C   -0.311571
    66  H    0.069597
    67  H    0.093360
    68  H    0.065388
    69  H    0.099105
    70  H    0.097415
    71  H    0.065715
    72  H    0.108074
    73  H    0.144073
    74  H    0.115887
    75  H    0.119625
    76  H    0.116978
    77  H    0.140032
    78  H    0.120534
    79  H    0.129852
    80  H    0.124856
    81  H    0.083158
    82  H    0.107721
    83  H    0.071529
    84  H    0.136309
    85  H    0.114379
    86  H    0.132488
    87  H    0.106089
    88  H    0.092707
    89  H    0.111906
    90  H    0.113914
    91  H    0.109454
    92  H    0.113664
    93  H    0.149487
    94  H    0.143580
    95  H    0.161393
    96  H    0.126719
    97  H    0.126288
    98  H    0.133348
    99  H    0.142321
   100  H    0.119795
   101  H    0.093486
   102  H    0.105905
   103  H    0.129955
   104  H    0.128455
   105  H    0.083467
   106  H    0.096943
   107  H    0.071949
   108  H    0.089273
   109  H    0.088984
   110  H    0.082670
   111  H    0.069219
   112  H    0.099171
   113  H    0.075232
   114  H    0.095981
   115  H    0.092940
   116  H    0.086360
   117  H    0.088367
   118  H    0.073883
   119  H    0.021788
   120  H    0.083055
   121  H    0.077110
   122  H    0.105017
   123  H    0.105571
   124  H    0.104963
   125  H    0.081776
   126  H    0.078870
   127  H    0.097044
   128  H    0.110597
   129  H    0.055426
   130  H    0.078029
   131  H    0.097164
   132  H    0.103965
   133  H    0.105712
   134  H    0.094012
   135  H    0.079087
   136  H    0.102296
   137  H    0.119569
 Sum of Mulliken charges =  -0.00000

 Dipole moment (field-independent basis, Debye):
    X=              2.3688    Y=              3.1878    Z=              0.1535  Tot=              3.9745
 Quadrupole moment (field-independent basis, Debye-Ang):
   XX=           -323.5422   YY=           -398.4558   ZZ=           -392.8007
   XY=            -26.1422   XZ=              4.2556   YZ=             -4.3857

 Normal termination of Gaussian 16 at Fri Sep  6 00:36:29 2019.
