 Gaussian 09, Revision D.01,
 Gaussian 09:  ES64L-G09RevD.01 24-Apr-2013

 -------------------------------------
 # td=(NStates=1) CAM-B3LYP/6-31G(d,p)
 -------------------------------------

 --
 TD
 --
 Symbolic Z-matrix:
 Charge =  0 Multiplicity = 1

                         Standard orientation:
 ---------------------------------------------------------------------
 Center     Atomic      Atomic             Coordinates (Angstroms)
 Number     Number       Type             X           Y           Z
 ---------------------------------------------------------------------
      1         12           0       -7.235479    0.622060    0.079996
      2          6           0       -4.773768   -1.952508    0.445346
      3          6           0       -4.929679    2.799612    1.102318
      4          6           0       -9.608030    3.119207   -0.350440
      5          6           0       -9.577981   -1.729053   -0.856425
      6          7           0       -5.165095    0.446823    0.684085
      7          6           0       -4.415403   -0.663447    0.809184
      8          6           0       -2.915692   -0.307891    1.149386
      9          6           0       -3.103406    1.165946    1.568979
     10          6           0       -4.435967    1.534165    1.151216
     11          6           0       -3.027874    1.256006    3.112575
     12          6           0       -1.931954   -0.556631    0.057364
     13          6           0       -0.515117   -0.440966    0.533617
     14          6           0        0.512986   -0.586045   -0.643127
     15          8           0        0.318153   -1.004078   -1.748598
     16          8           0        1.809912   -0.308745   -0.170260
     17          7           0       -7.240478    2.619832    0.331393
     18          6           0       -6.145466    3.316696    0.779506
     19          6           0       -6.481331    4.740701    0.688797
     20          6           0       -7.878324    4.763495    0.279323
     21          6           0       -8.259762    3.428165    0.035554
     22          6           0       -5.547969    5.838956    0.884064
     23          6           0       -8.578093    6.006257    0.200863
     24          6           0       -8.479561    7.110446    0.843283
     25          7           0       -9.187999    0.640412   -0.567242
     26          6           0      -10.040012    1.758510   -0.672442
     27          6           0      -11.364531    1.421173   -1.127996
     28          6           0      -11.392760    0.063636   -1.290628
     29          6           0      -10.014551   -0.368549   -0.900844
     30          6           0      -12.449751    2.415708   -1.182426
     31          6           0      -12.526541   -0.836061   -1.685492
     32          6           0      -12.467351   -1.210235   -3.180239
     33          7           0       -7.296890   -1.388681   -0.111878
     34          6           0       -8.344475   -2.209843   -0.408865
     35          6           0       -7.892803   -3.634002   -0.379668
     36          6           0       -6.517359   -3.541795    0.001162
     37          6           0       -6.247857   -2.175461    0.251179
     38          6           0       -8.706761   -4.752839   -0.759228
     39          6           0       -5.402146   -4.302490    0.242059
     40          8           0       -5.093749   -5.551535    0.185828
     41          6           0       -4.124867   -3.324356    0.511001
     42          6           0       -3.513535   -3.760590    1.768136
     43          8           0       -3.725090   -3.262756    2.863943
     44          8           0       -2.551297   -4.671318    1.503973
     45          6           0       -1.964604   -5.281802    2.713135
     46          6           0        2.890039   -0.605291   -1.111856
     47          6           0        4.227593   -0.352109   -0.412087
     48          6           0        5.253668    0.279001   -0.901738
     49          6           0        5.143621    1.072463   -2.256930
     50          6           0        6.522339    0.496749   -0.157451
     51          6           0        7.716306   -0.034121   -0.865314
     52          6           0        9.100684   -0.051609   -0.083127
     53          6           0       10.282318   -0.556612   -0.852046
     54          6           0       10.185515   -2.103526   -1.115203
     55          6           0       11.614277   -0.287557   -0.031140
     56          6           0       12.927551   -0.480248   -0.694278
     57          6           0       14.096161   -0.112700    0.307869
     58          6           0       15.437778   -0.184959   -0.393360
     59          6           0       15.674518   -1.654246   -0.712400
     60          6           0       16.585692    0.331873    0.461633
     61          6           0       17.871036    0.463550   -0.304411
     62          6           0       18.871155    1.268522    0.625089
     63          6           0       20.348881    1.354844    0.202127
     64          6           0       20.445516    2.172020   -1.176680
     65          6           0       21.214497    2.021786    1.268261
     66          1           0       -4.192393    3.598137    1.528235
     67          1           0      -10.457446    3.874477   -0.334049
     68          1           0      -10.312694   -2.432216   -1.117702
     69          1           0       -2.637956   -0.807639    2.096553
     70          1           0       -2.310731    1.846642    1.163602
     71          1           0       -1.931914    0.976981    3.464997
     72          1           0       -3.362247    2.210486    3.488347
     73          1           0       -3.597991    0.480281    3.534898
     74          1           0       -2.083863   -1.698718   -0.336150
     75          1           0       -1.986013    0.270531   -0.934672
     76          1           0       -0.380860    0.441026    1.002338
     77          1           0       -0.087510   -1.114649    0.999330
     78          1           0       -5.914371    6.762280    0.423689
     79          1           0       -5.489655    6.093153    1.918488
     80          1           0       -4.571324    5.464784    0.631097
     81          1           0       -9.630578    5.900299   -0.384341
     82          1           0       -8.894851    8.016210    0.666693
     83          1           0       -7.945569    7.336159    1.735899
     84          1           0      -12.255381    3.083750   -1.882294
     85          1           0      -13.342690    1.805792   -1.248453
     86          1           0      -12.403400    3.185961   -0.393318
     87          1           0      -12.463508   -1.848107   -1.269324
     88          1           0      -13.336779   -0.139849   -1.637663
     89          1           0      -13.112284   -1.944187   -3.657047
     90          1           0      -12.309859   -0.393621   -3.897683
     91          1           0      -11.538479   -1.917982   -3.312479
     92          1           0       -8.743890   -4.872162   -1.969450
     93          1           0       -8.074052   -5.676679   -0.343406
     94          1           0       -9.638246   -4.475276   -0.294289
     95          1           0       -3.346644   -3.550432   -0.309840
     96          1           0       -1.557614   -4.496662    3.417016
     97          1           0       -2.811821   -5.747186    3.355293
     98          1           0       -1.051875   -5.961723    2.564477
     99          1           0        2.789842   -1.417727   -1.409554
    100          1           0        2.750932    0.121636   -1.958537
    101          1           0        4.175046   -0.787804    0.754022
    102          1           0        3.990236    0.996356   -2.624553
    103          1           0        5.736403    2.120978   -2.359791
    104          1           0        5.709388    0.541880   -3.086516
    105          1           0        6.758677    1.601847   -0.177392
    106          1           0        6.534936    0.302510    0.866182
    107          1           0        7.463093   -1.111431   -1.179061
    108          1           0        8.020034    0.683947   -1.632995
    109          1           0        9.506781    1.070339    0.224179
    110          1           0        8.879840   -0.706101    0.952586
    111          1           0       10.555871   -0.086395   -1.740269
    112          1           0        9.200710   -2.467268   -1.344160
    113          1           0       10.914445   -2.350578   -1.766179
    114          1           0       10.571232   -2.636427   -0.192464
    115          1           0       11.209946    0.839290    0.046212
    116          1           0       11.613435   -0.735089    1.065307
    117          1           0       13.140506   -1.532982   -1.028227
    118          1           0       12.856289   -0.021093   -1.430606
    119          1           0       13.915585    0.882201    0.369992
    120          1           0       13.841206   -0.738106    1.005742
    121          1           0       15.530073    0.390404   -1.278833
    122          1           0       15.743017   -2.239718    0.098705
    123          1           0       15.150741   -2.033186   -1.439460
    124          1           0       16.561157   -1.590066   -1.281612
    125          1           0       16.143717    1.315522    0.623842
    126          1           0       16.469096   -0.150658    1.358909
    127          1           0       18.151389   -0.538807   -0.613496
    128          1           0       17.543702    1.049388   -1.262504
    129          1           0       18.236612    2.375627    0.646168
    130          1           0       18.825450    0.719242    1.668440
    131          1           0       20.474337    0.266122   -0.256830
    132          1           0       20.046203    3.191954   -0.952087
    133          1           0       21.612795    2.203856   -1.367422
    134          1           0       19.810621    1.581773   -2.007356
    135          1           0       21.237301    1.188900    2.094434
    136          1           0       22.281495    2.274463    0.969476
    137          1           0       20.736782    2.997690    1.660270
 ---------------------------------------------------------------------

 SCF Done:  E(RCAM-B3LYP) =  -2932.49954101     A.U. after   18 cycles

 Excitation energies and oscillator strengths:

 Excited State   1:      Singlet-A      1.8945 eV  654.44 nm  f=0.2603  <S**2>=0.000
     240 -> 243       -0.22094
     241 -> 242        0.66137
 This state for optimization and/or second-order correction.
 Total Energy, E(TD-HF/TD-KS) =  -2932.42991908
 Copying the excited state density for this state as the 1-particle RhoCI density.

 The electronic state is 1-A.
 Alpha  occ. eigenvalues --  -46.84647 -19.26325 -19.25008 -19.21647 -19.20076
 Alpha  occ. eigenvalues --  -19.19256 -14.41968 -14.40298 -14.40152 -14.39474
 Alpha  occ. eigenvalues --  -10.39336 -10.38494 -10.34754 -10.32343 -10.30813
 Alpha  occ. eigenvalues --  -10.30699 -10.30039 -10.29924 -10.29833 -10.29761
 Alpha  occ. eigenvalues --  -10.29750 -10.29719 -10.29694 -10.29449 -10.29275
 Alpha  occ. eigenvalues --  -10.29051 -10.28474 -10.28379 -10.27980 -10.27978
 Alpha  occ. eigenvalues --  -10.27753 -10.27671 -10.27597 -10.27572 -10.27536
 Alpha  occ. eigenvalues --  -10.27501 -10.27445 -10.27412 -10.27185 -10.27181
 Alpha  occ. eigenvalues --  -10.27116 -10.26886 -10.26774 -10.26758 -10.26375
 Alpha  occ. eigenvalues --  -10.26339 -10.26337 -10.26188 -10.26153 -10.26046
 Alpha  occ. eigenvalues --  -10.25988 -10.25988 -10.25683 -10.25611 -10.25549
 Alpha  occ. eigenvalues --  -10.25549 -10.25178 -10.25074 -10.24393 -10.24273
 Alpha  occ. eigenvalues --  -10.23150 -10.23034 -10.22638 -10.22571 -10.20880
 Alpha  occ. eigenvalues --   -3.13709  -1.88416  -1.87953  -1.87885  -1.17061
 Alpha  occ. eigenvalues --   -1.16772  -1.08838  -1.08013  -1.06676  -1.04851
 Alpha  occ. eigenvalues --   -1.03990  -1.03830  -1.02767  -0.92170  -0.91944
 Alpha  occ. eigenvalues --   -0.91435  -0.90984  -0.90080  -0.89626  -0.89583
 Alpha  occ. eigenvalues --   -0.89231  -0.88169  -0.88094  -0.87707  -0.87050
 Alpha  occ. eigenvalues --   -0.85788  -0.84992  -0.84451  -0.83890  -0.83167
 Alpha  occ. eigenvalues --   -0.81875  -0.81349  -0.80731  -0.79948  -0.78930
 Alpha  occ. eigenvalues --   -0.78309  -0.78059  -0.76536  -0.75987  -0.75477
 Alpha  occ. eigenvalues --   -0.75332  -0.74497  -0.73936  -0.73351  -0.72678
 Alpha  occ. eigenvalues --   -0.72085  -0.70996  -0.70003  -0.69678  -0.68983
 Alpha  occ. eigenvalues --   -0.68051  -0.67178  -0.65368  -0.65053  -0.64918
 Alpha  occ. eigenvalues --   -0.64501  -0.63856  -0.63199  -0.62192  -0.61932
 Alpha  occ. eigenvalues --   -0.60984  -0.60411  -0.60296  -0.60173  -0.59635
 Alpha  occ. eigenvalues --   -0.58798  -0.58373  -0.57671  -0.57544  -0.56604
 Alpha  occ. eigenvalues --   -0.56303  -0.55969  -0.55712  -0.55265  -0.55097
 Alpha  occ. eigenvalues --   -0.54737  -0.54539  -0.54152  -0.53741  -0.53375
 Alpha  occ. eigenvalues --   -0.53118  -0.52866  -0.52815  -0.52445  -0.52143
 Alpha  occ. eigenvalues --   -0.51948  -0.51811  -0.51375  -0.51215  -0.50776
 Alpha  occ. eigenvalues --   -0.50336  -0.50262  -0.50091  -0.49958  -0.49605
 Alpha  occ. eigenvalues --   -0.49460  -0.49212  -0.49148  -0.48876  -0.48745
 Alpha  occ. eigenvalues --   -0.48648  -0.48170  -0.48073  -0.47751  -0.47199
 Alpha  occ. eigenvalues --   -0.46965  -0.46769  -0.46694  -0.46220  -0.45861
 Alpha  occ. eigenvalues --   -0.45766  -0.45693  -0.45607  -0.45172  -0.45121
 Alpha  occ. eigenvalues --   -0.44827  -0.44676  -0.44586  -0.44491  -0.44449
 Alpha  occ. eigenvalues --   -0.44430  -0.43933  -0.43649  -0.43597  -0.43481
 Alpha  occ. eigenvalues --   -0.43268  -0.43131  -0.42922  -0.42550  -0.42424
 Alpha  occ. eigenvalues --   -0.42139  -0.41876  -0.41770  -0.41669  -0.41310
 Alpha  occ. eigenvalues --   -0.41117  -0.40966  -0.40756  -0.40691  -0.40563
 Alpha  occ. eigenvalues --   -0.40038  -0.39696  -0.39618  -0.39423  -0.39199
 Alpha  occ. eigenvalues --   -0.39178  -0.38580  -0.38183  -0.38089  -0.37906
 Alpha  occ. eigenvalues --   -0.37714  -0.37300  -0.36799  -0.36654  -0.36596
 Alpha  occ. eigenvalues --   -0.36063  -0.35876  -0.35498  -0.35396  -0.35207
 Alpha  occ. eigenvalues --   -0.35138  -0.34694  -0.34334  -0.34065  -0.33429
 Alpha  occ. eigenvalues --   -0.32994  -0.32526  -0.31955  -0.30936  -0.30658
 Alpha  occ. eigenvalues --   -0.29447  -0.29234  -0.29049  -0.26421  -0.23253
 Alpha  occ. eigenvalues --   -0.21327
 Alpha virt. eigenvalues --   -0.07462  -0.03561   0.00785   0.03570   0.05573
 Alpha virt. eigenvalues --    0.06078   0.06441   0.06660   0.06911   0.07308
 Alpha virt. eigenvalues --    0.08202   0.10252   0.10584   0.11179   0.11346

 Mulliken charges:
               1
     1  Mg   0.827751
     2  C    0.022419
     3  C   -0.224818
     4  C   -0.173048
     5  C   -0.169049
     6  N   -0.626188
     7  C    0.298154
     8  C   -0.145396
     9  C   -0.172023
    10  C    0.386796
    11  C   -0.318344
    12  C   -0.160223
    13  C   -0.208027
    14  C    0.561176
    15  O   -0.448762
    16  O   -0.526902
    17  N   -0.757144
    18  C    0.342966
    19  C    0.006948
    20  C   -0.006454
    21  C    0.361282
    22  C   -0.376376
    23  C   -0.076943
    24  C   -0.261273
    25  N   -0.668758
    26  C    0.259654
    27  C    0.020758
    28  C    0.035349
    29  C    0.284284
    30  C   -0.363492
    31  C   -0.226235
    32  C   -0.323256
    33  N   -0.687436
    34  C    0.281588
    35  C    0.050289
    36  C    0.064231
    37  C    0.263505
    38  C   -0.374089
    39  C    0.299844
    40  O   -0.517641
    41  C   -0.305609
    42  C    0.655116
    43  O   -0.494409
    44  O   -0.455945
    45  C   -0.092224
    46  C    0.076217
    47  C   -0.171279
    48  C    0.165747
    49  C   -0.361865
    50  C   -0.225092
    51  C   -0.170208
    52  C   -0.162786
    53  C   -0.064868
    54  C   -0.309419
    55  C   -0.177505
    56  C   -0.160195
    57  C   -0.147386
    58  C   -0.102532
    59  C   -0.303779
    60  C   -0.155863
    61  C   -0.191555
    62  C   -0.133229
    63  C   -0.060815
    64  C   -0.292731
    65  C   -0.301443
    66  H    0.076373
    67  H    0.099051
    68  H    0.073951
    69  H    0.131606
    70  H    0.107793
    71  H    0.091743
    72  H    0.114373
    73  H    0.139400
    74  H    0.103387
    75  H    0.089949
    76  H    0.135445
    77  H    0.144293
    78  H    0.126336
    79  H    0.127692
    80  H    0.115562
    81  H    0.061329
    82  H    0.107434
    83  H    0.100410
    84  H    0.140832
    85  H    0.113613
    86  H    0.120692
    87  H    0.120927
    88  H    0.109159
    89  H    0.112152
    90  H    0.114727
    91  H    0.080906
    92  H    0.126367
    93  H    0.145708
    94  H    0.131090
    95  H    0.165005
    96  H    0.124824
    97  H    0.133467
    98  H    0.126077
    99  H    0.122285
   100  H    0.105221
   101  H    0.084661
   102  H    0.096671
   103  H    0.107588
   104  H    0.119338
   105  H    0.094438
   106  H    0.105526
   107  H    0.095357
   108  H    0.100883
   109  H    0.058536
   110  H    0.068112
   111  H    0.095953
   112  H    0.099832
   113  H    0.108214
   114  H    0.089094
   115  H    0.055820
   116  H    0.068695
   117  H    0.084287
   118  H    0.083969
   119  H    0.098695
   120  H    0.098156
   121  H    0.075644
   122  H    0.106296
   123  H    0.104049
   124  H    0.084299
   125  H    0.083231
   126  H    0.093750
   127  H    0.103817
   128  H    0.082946
   129  H    0.055589
   130  H    0.080619
   131  H    0.084494
   132  H    0.098742
   133  H    0.086592
   134  H    0.088842
   135  H    0.096380
   136  H    0.101604
   137  H    0.108640
 Sum of Mulliken charges =   0.00000

 Dipole moment (field-independent basis, Debye):
    X=              0.0406    Y=              4.4072    Z=              0.1811  Tot=              4.4111
 Quadrupole moment (field-independent basis, Debye-Ang):
   XX=           -323.1567   YY=           -398.5771   ZZ=           -398.7154
   XY=            -23.7767   XZ=              8.1033   YZ=              0.8162

 Normal termination of Gaussian 09 at Sat Jul  6 08:06:32 2019.
