 Gaussian 09, Revision D.01,
 Gaussian 09:  ES64L-G09RevD.01 24-Apr-2013

 -------------------------------------
 # td=(NStates=1) CAM-B3LYP/6-31G(d,p)
 -------------------------------------

 --
 TD
 --
 Symbolic Z-matrix:
 Charge =  0 Multiplicity = 1

                         Standard orientation:
 ---------------------------------------------------------------------
 Center     Atomic      Atomic             Coordinates (Angstroms)
 Number     Number       Type             X           Y           Z
 ---------------------------------------------------------------------
      1         12           0       -7.089068    0.566227    0.012806
      2          6           0       -4.949173   -1.961070    0.550730
      3          6           0       -4.802116    2.807536    1.164730
      4          6           0       -9.390870    3.046327   -0.348199
      5          6           0       -9.515064   -1.688377   -0.881361
      6          7           0       -5.140947    0.469199    0.666827
      7          6           0       -4.359712   -0.717291    0.673696
      8          6           0       -2.949815   -0.355042    1.155989
      9          6           0       -3.027750    1.046121    1.702733
     10          6           0       -4.463662    1.494144    1.130044
     11          6           0       -2.999963    1.244984    3.166941
     12          6           0       -1.894223   -0.712027    0.159947
     13          6           0       -0.412073   -0.490164    0.584312
     14          6           0        0.542937   -0.700401   -0.607662
     15          8           0        0.299660   -1.010474   -1.753236
     16          8           0        1.791488   -0.323352   -0.211694
     17          7           0       -7.034010    2.552564    0.255164
     18          6           0       -6.012572    3.255210    0.716430
     19          6           0       -6.492295    4.719312    0.821176
     20          6           0       -7.762081    4.849336    0.400692
     21          6           0       -8.148983    3.393463    0.131576
     22          6           0       -5.403843    5.823458    1.180801
     23          6           0       -8.448146    6.009659    0.166237
     24          6           0       -8.312823    7.259548    0.763098
     25          7           0       -9.076871    0.714796   -0.506679
     26          6           0       -9.915264    1.754049   -0.744807
     27          6           0      -11.242605    1.448960   -1.154760
     28          6           0      -11.212712    0.168140   -1.392278
     29          6           0       -9.908314   -0.312904   -0.920564
     30          6           0      -12.289232    2.479075   -1.390159
     31          6           0      -12.401554   -0.793277   -1.689950
     32          6           0      -12.393699   -1.094126   -3.211946
     33          7           0       -7.242608   -1.387111   -0.114882
     34          6           0       -8.306590   -2.192999   -0.459092
     35          6           0       -7.949936   -3.635937   -0.503016
     36          6           0       -6.531114   -3.530846   -0.266203
     37          6           0       -6.268866   -2.241301    0.150816
     38          6           0       -8.748910   -4.821446   -0.862844
     39          6           0       -5.352774   -4.294862    0.112255
     40          8           0       -5.253299   -5.514314    0.218961
     41          6           0       -4.194869   -3.316676    0.551895
     42          6           0       -3.444451   -3.620042    1.920028
     43          8           0       -3.624069   -3.116976    2.947249
     44          8           0       -2.679686   -4.758234    1.758520
     45          6           0       -2.087098   -5.249291    2.924897
     46          6           0        2.830095   -0.630534   -1.149619
     47          6           0        4.174165   -0.457569   -0.522152
     48          6           0        5.108278    0.456654   -0.886910
     49          6           0        5.160370    1.240599   -2.187727
     50          6           0        6.456100    0.595849   -0.135064
     51          6           0        7.683402   -0.104352   -0.933941
     52          6           0        8.920218   -0.048647   -0.093079
     53          6           0       10.227566   -0.579553   -0.846928
     54          6           0       10.045520   -2.042160   -1.223443
     55          6           0       11.453918   -0.208448   -0.017352
     56          6           0       12.784733   -0.544240   -0.746098
     57          6           0       13.961187   -0.122980    0.165077
     58          6           0       15.378405   -0.164031   -0.590162
     59          6           0       15.664288   -1.689982   -0.859299
     60          6           0       16.398939    0.373309    0.399814
     61          6           0       17.792981    0.434602   -0.252362
     62          6           0       18.851065    1.209882    0.696779
     63          6           0       20.207749    1.355768    0.202227
     64          6           0       20.302146    2.119743   -1.035718
     65          6           0       21.206965    1.953487    1.307749
     66          1           0       -4.079908    3.468712    1.548557
     67          1           0      -10.239928    3.843357   -0.421608
     68          1           0      -10.193697   -2.455394   -0.970903
     69          1           0       -2.941128   -1.007047    2.085194
     70          1           0       -2.208749    1.710161    1.437648
     71          1           0       -2.050992    1.064243    3.682444
     72          1           0       -3.342860    2.154980    3.529327
     73          1           0       -3.733784    0.456079    3.605652
     74          1           0       -2.119954   -1.796420   -0.280094
     75          1           0       -2.032696   -0.036218   -0.553945
     76          1           0       -0.211837    0.547839    0.976150
     77          1           0       -0.241879   -1.185800    1.452787
     78          1           0       -5.741389    6.622941    0.618055
     79          1           0       -5.460769    6.054860    2.287034
     80          1           0       -4.368032    5.521526    1.263394
     81          1           0       -9.235025    6.130499   -0.481359
     82          1           0       -9.026501    7.854376    0.185143
     83          1           0       -7.687534    7.732885    1.448082
     84          1           0      -12.109501    2.928899   -2.407724
     85          1           0      -13.289703    2.008551   -1.359079
     86          1           0      -12.217470    3.429285   -0.725474
     87          1           0      -12.345704   -1.685116   -0.971889
     88          1           0      -13.176976   -0.257704   -1.359361
     89          1           0      -13.402966   -1.594763   -3.254173
     90          1           0      -12.419224   -0.248144   -3.809460
     91          1           0      -11.673948   -1.743635   -3.628078
     92          1           0       -9.403546   -4.727354   -1.826878
     93          1           0       -8.130747   -5.637498   -0.711768
     94          1           0       -9.442638   -4.967186    0.103391
     95          1           0       -3.510217   -3.497644   -0.317553
     96          1           0       -1.590576   -4.463882    3.282393
     97          1           0       -2.864377   -5.493362    3.685228
     98          1           0       -1.629601   -6.145580    2.521699
     99          1           0        2.789198   -1.571425   -1.613784
    100          1           0        2.760787    0.082943   -1.915132
    101          1           0        4.127229   -0.829093    0.509371
    102          1           0        4.117939    1.449956   -2.430634
    103          1           0        5.764096    2.281700   -1.771813
    104          1           0        5.602463    0.896474   -3.065526
    105          1           0        6.765838    1.555067    0.168048
    106          1           0        6.119571    0.160522    0.962946
    107          1           0        7.340660   -1.229240   -1.397850
    108          1           0        7.825213    0.571301   -1.891025
    109          1           0        9.100845    1.110353   -0.133428
    110          1           0        9.069961   -0.482439    0.902777
    111          1           0       10.206397    0.091083   -1.879446
    112          1           0        9.173521   -2.385078   -1.652087
    113          1           0       10.792506   -2.343084   -1.787982
    114          1           0       10.153011   -2.827649   -0.397299
    115          1           0       11.487067    0.924688    0.364946
    116          1           0       11.218530   -0.824563    0.986023
    117          1           0       12.676911   -1.662930   -0.936298
    118          1           0       12.829780    0.025259   -1.683043
    119          1           0       13.622803    0.985314    0.401097
    120          1           0       13.841029   -0.746312    0.974822
    121          1           0       15.168462    0.271023   -1.578379
    122          1           0       15.578969   -2.273285    0.079757
    123          1           0       15.037477   -2.301781   -1.730219
    124          1           0       16.523050   -1.971205   -1.185524
    125          1           0       15.945134    1.375693    0.651146
    126          1           0       16.397007   -0.407836    1.426100
    127          1           0       18.263303   -0.531800   -0.267630
    128          1           0       17.722266    0.930774   -1.201082
    129          1           0       18.437713    2.242859    0.839141
    130          1           0       18.777578    0.802145    1.693872
    131          1           0       20.518590    0.271512    0.101893
    132          1           0       20.213185    3.222994   -1.111504
    133          1           0       21.358543    1.932568   -1.562886
    134          1           0       19.684568    1.603155   -1.844388
    135          1           0       21.053993    1.449741    2.158626
    136          1           0       22.079095    1.889800    0.896736
    137          1           0       20.889439    2.908458    1.423883
 ---------------------------------------------------------------------

 SCF Done:  E(RCAM-B3LYP) =  -2932.65853935     A.U. after   17 cycles

 Excitation energies and oscillator strengths:

 Excited State   1:      Singlet-A      2.2077 eV  561.60 nm  f=0.2494  <S**2>=0.000
     240 -> 243       -0.24614
     241 -> 242        0.65322
 This state for optimization and/or second-order correction.
 Total Energy, E(TD-HF/TD-KS) =  -2932.57740865
 Copying the excited state density for this state as the 1-particle RhoCI density.

 The electronic state is 1-A.
 Alpha  occ. eigenvalues --  -46.83222 -19.25980 -19.24602 -19.22088 -19.21424
 Alpha  occ. eigenvalues --  -19.19008 -14.41035 -14.39797 -14.39515 -14.38890
 Alpha  occ. eigenvalues --  -10.39625 -10.39284 -10.34283 -10.30615 -10.30588
 Alpha  occ. eigenvalues --  -10.30275 -10.30203 -10.30183 -10.29273 -10.28892
 Alpha  occ. eigenvalues --  -10.28768 -10.28704 -10.28651 -10.28613 -10.28230
 Alpha  occ. eigenvalues --  -10.28226 -10.27989 -10.27851 -10.27728 -10.27369
 Alpha  occ. eigenvalues --  -10.27280 -10.27280 -10.27205 -10.27180 -10.26954
 Alpha  occ. eigenvalues --  -10.26937 -10.26929 -10.26911 -10.26904 -10.26803
 Alpha  occ. eigenvalues --  -10.26737 -10.26676 -10.26672 -10.26642 -10.26492
 Alpha  occ. eigenvalues --  -10.26362 -10.26276 -10.26167 -10.25924 -10.25639
 Alpha  occ. eigenvalues --  -10.25637 -10.25435 -10.25381 -10.25301 -10.25269
 Alpha  occ. eigenvalues --  -10.25143 -10.25046 -10.25021 -10.24928 -10.24731
 Alpha  occ. eigenvalues --  -10.24275 -10.24139 -10.24076 -10.23044 -10.21322
 Alpha  occ. eigenvalues --   -3.12612  -1.87293  -1.86850  -1.86827  -1.19339
 Alpha  occ. eigenvalues --   -1.18104  -1.11085  -1.09305  -1.09275  -1.04827
 Alpha  occ. eigenvalues --   -1.03929  -1.03661  -1.02542  -0.92136  -0.90716
 Alpha  occ. eigenvalues --   -0.90445  -0.90336  -0.90095  -0.89562  -0.89397
 Alpha  occ. eigenvalues --   -0.88252  -0.88186  -0.87327  -0.86925  -0.85992
 Alpha  occ. eigenvalues --   -0.84665  -0.83988  -0.83523  -0.83037  -0.82723
 Alpha  occ. eigenvalues --   -0.81435  -0.80996  -0.80664  -0.79867  -0.78613
 Alpha  occ. eigenvalues --   -0.78396  -0.77453  -0.76854  -0.76075  -0.75936
 Alpha  occ. eigenvalues --   -0.75153  -0.75002  -0.74546  -0.72955  -0.72144
 Alpha  occ. eigenvalues --   -0.71458  -0.70786  -0.70195  -0.69405  -0.68831
 Alpha  occ. eigenvalues --   -0.67266  -0.66175  -0.65146  -0.64569  -0.63816
 Alpha  occ. eigenvalues --   -0.63543  -0.63392  -0.62898  -0.62319  -0.62059
 Alpha  occ. eigenvalues --   -0.61193  -0.61143  -0.60262  -0.60025  -0.59344
 Alpha  occ. eigenvalues --   -0.58798  -0.58453  -0.57868  -0.56998  -0.56911
 Alpha  occ. eigenvalues --   -0.56352  -0.55355  -0.55290  -0.55090  -0.55050
 Alpha  occ. eigenvalues --   -0.54324  -0.54271  -0.53904  -0.53775  -0.53171
 Alpha  occ. eigenvalues --   -0.52804  -0.52627  -0.52121  -0.51896  -0.51837
 Alpha  occ. eigenvalues --   -0.51690  -0.51573  -0.50894  -0.50743  -0.50478
 Alpha  occ. eigenvalues --   -0.50322  -0.50201  -0.50126  -0.50003  -0.49854
 Alpha  occ. eigenvalues --   -0.49149  -0.48914  -0.48681  -0.48567  -0.48371
 Alpha  occ. eigenvalues --   -0.48125  -0.47800  -0.47656  -0.47467  -0.47292
 Alpha  occ. eigenvalues --   -0.46920  -0.46800  -0.46753  -0.46629  -0.46299
 Alpha  occ. eigenvalues --   -0.46122  -0.46104  -0.45868  -0.45659  -0.45381
 Alpha  occ. eigenvalues --   -0.45115  -0.45086  -0.44535  -0.44464  -0.44265
 Alpha  occ. eigenvalues --   -0.43936  -0.43741  -0.43678  -0.43301  -0.43247
 Alpha  occ. eigenvalues --   -0.42989  -0.42772  -0.42650  -0.42501  -0.42083
 Alpha  occ. eigenvalues --   -0.42024  -0.41935  -0.41739  -0.41515  -0.41261
 Alpha  occ. eigenvalues --   -0.41166  -0.41088  -0.40781  -0.40537  -0.40405
 Alpha  occ. eigenvalues --   -0.40244  -0.39962  -0.39284  -0.39194  -0.39120
 Alpha  occ. eigenvalues --   -0.38685  -0.38600  -0.38182  -0.37976  -0.37655
 Alpha  occ. eigenvalues --   -0.37115  -0.36944  -0.36898  -0.36847  -0.36639
 Alpha  occ. eigenvalues --   -0.36273  -0.36247  -0.35902  -0.35866  -0.35641
 Alpha  occ. eigenvalues --   -0.35260  -0.35034  -0.34288  -0.34165  -0.33968
 Alpha  occ. eigenvalues --   -0.33245  -0.32592  -0.32235  -0.30514  -0.29649
 Alpha  occ. eigenvalues --   -0.29513  -0.29458  -0.28351  -0.27544  -0.23358
 Alpha  occ. eigenvalues --   -0.20902
 Alpha virt. eigenvalues --   -0.05339  -0.02601   0.01861   0.03650   0.05509
 Alpha virt. eigenvalues --    0.05919   0.06036   0.06262   0.07220   0.08015
 Alpha virt. eigenvalues --    0.08629   0.11033   0.11117   0.11369   0.11929

 Mulliken charges:
               1
     1  Mg   0.810982
     2  C    0.049194
     3  C   -0.178957
     4  C   -0.214523
     5  C   -0.162683
     6  N   -0.651675
     7  C    0.249226
     8  C   -0.173134
     9  C   -0.134331
    10  C    0.355589
    11  C   -0.317616
    12  C   -0.150836
    13  C   -0.285652
    14  C    0.618307
    15  O   -0.465175
    16  O   -0.483294
    17  N   -0.706855
    18  C    0.359740
    19  C   -0.046491
    20  C    0.111876
    21  C    0.287251
    22  C   -0.363352
    23  C   -0.148894
    24  C   -0.219085
    25  N   -0.637530
    26  C    0.269757
    27  C    0.074459
    28  C   -0.005533
    29  C    0.256336
    30  C   -0.376113
    31  C   -0.224019
    32  C   -0.316094
    33  N   -0.703981
    34  C    0.263089
    35  C    0.029459
    36  C   -0.022951
    37  C    0.293151
    38  C   -0.378912
    39  C    0.343362
    40  O   -0.472180
    41  C   -0.301910
    42  C    0.614672
    43  O   -0.423013
    44  O   -0.465815
    45  C   -0.071908
    46  C    0.026177
    47  C   -0.135449
    48  C    0.091767
    49  C   -0.342101
    50  C   -0.212017
    51  C   -0.161317
    52  C   -0.150826
    53  C   -0.057164
    54  C   -0.316137
    55  C   -0.164279
    56  C   -0.183615
    57  C   -0.163702
    58  C   -0.068435
    59  C   -0.303471
    60  C   -0.147492
    61  C   -0.181997
    62  C   -0.171340
    63  C   -0.064093
    64  C   -0.309308
    65  C   -0.297569
    66  H    0.073943
    67  H    0.071567
    68  H    0.081626
    69  H    0.131989
    70  H    0.098544
    71  H    0.107835
    72  H    0.120243
    73  H    0.107195
    74  H    0.108838
    75  H    0.126487
    76  H    0.137090
    77  H    0.135657
    78  H    0.130562
    79  H    0.111517
    80  H    0.119984
    81  H    0.101082
    82  H    0.089623
    83  H    0.110751
    84  H    0.127378
    85  H    0.115210
    86  H    0.113392
    87  H    0.105439
    88  H    0.113239
    89  H    0.094242
    90  H    0.122947
    91  H    0.123788
    92  H    0.126517
    93  H    0.163067
    94  H    0.112819
    95  H    0.159607
    96  H    0.123687
    97  H    0.117344
    98  H    0.130698
    99  H    0.133885
   100  H    0.109214
   101  H    0.092611
   102  H    0.112991
   103  H    0.076910
   104  H    0.139047
   105  H    0.107984
   106  H    0.065861
   107  H    0.073614
   108  H    0.093901
   109  H    0.081123
   110  H    0.100443
   111  H    0.047465
   112  H    0.113933
   113  H    0.117524
   114  H    0.079952
   115  H    0.074702
   116  H    0.067734
   117  H    0.097817
   118  H    0.093286
   119  H    0.067528
   120  H    0.106111
   121  H    0.094931
   122  H    0.092518
   123  H    0.063861
   124  H    0.113554
   125  H    0.095376
   126  H    0.061320
   127  H    0.104593
   128  H    0.104015
   129  H    0.069521
   130  H    0.086442
   131  H    0.073791
   132  H    0.111019
   133  H    0.075817
   134  H    0.096622
   135  H    0.102375
   136  H    0.109384
   137  H    0.105749
 Sum of Mulliken charges =   0.00000

 Dipole moment (field-independent basis, Debye):
    X=              0.8850    Y=              4.4985    Z=             -0.0456  Tot=              4.5849
 Quadrupole moment (field-independent basis, Debye-Ang):
   XX=           -323.1325   YY=           -394.2872   ZZ=           -395.6575
   XY=            -22.1070   XZ=             10.3252   YZ=             -1.1018

 Normal termination of Gaussian 09 at Sat Jul  6 16:05:08 2019.
