 Gaussian 16, Revision A.03,
 Gaussian 16:  ES64L-G16RevA.03 25-Dec-2016

 ----------------------------------------------------------------------
 # td=(NStates=1) iop(3/107=0140000000,3/108=0140000000) CAM-B3LYP/6-31
 G(d,p)
 ----------------------------------------------------------------------

 --
 TD
 --
 Symbolic Z-matrix:
 Charge =  0 Multiplicity = 1

                         Standard orientation:
 ---------------------------------------------------------------------
 Center     Atomic      Atomic             Coordinates (Angstroms)
 Number     Number       Type             X           Y           Z
 ---------------------------------------------------------------------
      1         12           0       -7.076039    0.609631    0.056830
      2          6           0       -4.858927   -2.021039    0.482135
      3          6           0       -4.822219    2.802531    1.275987
      4          6           0       -9.338441    3.088902   -0.377870
      5          6           0       -9.595021   -1.690143   -0.885057
      6          7           0       -5.137381    0.418957    0.700934
      7          6           0       -4.347909   -0.721761    0.752573
      8          6           0       -2.910979   -0.414857    1.230214
      9          6           0       -3.010872    1.085686    1.671110
     10          6           0       -4.355757    1.519161    1.126079
     11          6           0       -2.926817    1.304427    3.122112
     12          6           0       -1.947230   -0.712348    0.126242
     13          6           0       -0.513651   -0.456013    0.649928
     14          6           0        0.519030   -0.613327   -0.455975
     15          8           0        0.129651   -0.974095   -1.605239
     16          8           0        1.819209   -0.349001   -0.110389
     17          7           0       -7.068685    2.556718    0.476470
     18          6           0       -6.012301    3.425016    0.870877
     19          6           0       -6.394703    4.752923    0.902979
     20          6           0       -7.603637    4.821223    0.406155
     21          6           0       -8.117090    3.536005    0.104738
     22          6           0       -5.569205    5.822181    1.369792
     23          6           0       -8.481192    6.096093    0.192910
     24          6           0       -8.384887    7.269127    0.727953
     25          7           0       -9.016275    0.736381   -0.655522
     26          6           0       -9.866669    1.780242   -0.785004
     27          6           0      -11.230770    1.543088   -1.268960
     28          6           0      -11.192632    0.157308   -1.462262
     29          6           0       -9.926729   -0.231962   -1.010648
     30          6           0      -12.272886    2.641307   -1.492481
     31          6           0      -12.386989   -0.682766   -1.848393
     32          6           0      -12.418116   -0.982532   -3.450698
     33          7           0       -7.294863   -1.429113   -0.162698
     34          6           0       -8.289293   -2.214046   -0.484038
     35          6           0       -7.884779   -3.648271   -0.413760
     36          6           0       -6.578543   -3.604158   -0.095423
     37          6           0       -6.238089   -2.242823    0.209286
     38          6           0       -8.817410   -4.779508   -0.800017
     39          6           0       -5.438410   -4.429057    0.121102
     40          8           0       -5.270387   -5.633975    0.117752
     41          6           0       -4.229291   -3.360678    0.461896
     42          6           0       -3.507196   -3.742723    1.775723
     43          8           0       -3.658161   -3.210345    2.867041
     44          8           0       -2.871498   -4.877696    1.654420
     45          6           0       -2.146661   -5.393331    2.855462
     46          6           0        2.827965   -0.644022   -1.066943
     47          6           0        4.203408   -0.552894   -0.388559
     48          6           0        5.191885    0.256324   -0.772593
     49          6           0        5.121944    1.400758   -1.917405
     50          6           0        6.549135    0.319860    0.035875
     51          6           0        7.671140   -0.204997   -0.797147
     52          6           0        8.928994   -0.222924   -0.014408
     53          6           0       10.245197   -0.568110   -0.832518
     54          6           0       10.124313   -2.053459   -1.235564
     55          6           0       11.431119   -0.373573    0.035213
     56          6           0       12.867667   -0.419891   -0.644989
     57          6           0       14.008268   -0.161559    0.285174
     58          6           0       15.317379   -0.245622   -0.527042
     59          6           0       15.677965   -1.713345   -0.903634
     60          6           0       16.514801    0.345317    0.319812
     61          6           0       17.812846    0.489752   -0.406543
     62          6           0       18.875094    1.195186    0.556329
     63          6           0       20.214358    1.440437    0.064842
     64          6           0       20.237767    2.421392   -1.242198
     65          6           0       21.245427    1.996448    1.094679
     66          1           0       -4.161775    3.655244    1.644659
     67          1           0      -10.131911    4.066513   -0.537716
     68          1           0      -10.335322   -2.354043   -1.298967
     69          1           0       -2.525307   -1.135251    1.944991
     70          1           0       -2.365714    1.724380    1.137511
     71          1           0       -1.839444    1.043338    3.328096
     72          1           0       -3.114545    2.339409    3.372656
     73          1           0       -3.540300    0.600157    3.909724
     74          1           0       -2.144645   -1.640658   -0.096409
     75          1           0       -2.086547   -0.127761   -0.842036
     76          1           0       -0.524175    0.640356    0.960167
     77          1           0       -0.403448   -1.118235    1.574168
     78          1           0       -5.888812    6.691974    0.513272
     79          1           0       -5.421395    6.153868    2.404230
     80          1           0       -4.563860    5.282125    1.080958
     81          1           0       -9.293496    6.001982   -0.556265
     82          1           0       -9.175494    8.040686    0.386291
     83          1           0       -7.593299    7.492910    1.458451
     84          1           0      -12.373779    3.484622   -2.230448
     85          1           0      -13.351596    2.043383   -1.746761
     86          1           0      -12.235294    3.226966   -0.623454
     87          1           0      -12.451483   -1.709899   -1.345980
     88          1           0      -13.316765   -0.264678   -1.505162
     89          1           0      -13.449008   -1.416660   -3.358706
     90          1           0      -12.459736    0.017685   -4.121429
     91          1           0      -11.665517   -1.726770   -3.714086
     92          1           0       -9.008929   -4.472518   -1.922632
     93          1           0       -8.320798   -5.725239   -0.864220
     94          1           0       -9.664570   -5.011468   -0.243956
     95          1           0       -3.578558   -3.578848   -0.481793
     96          1           0       -1.645323   -4.633677    3.327859
     97          1           0       -3.143713   -5.681325    3.448340
     98          1           0       -1.518318   -6.209561    2.591979
     99          1           0        2.692971   -1.699990   -1.366083
    100          1           0        2.766797    0.173278   -2.068405
    101          1           0        4.352485   -1.175575    0.394262
    102          1           0        4.243557    1.680714   -2.328135
    103          1           0        5.366287    2.427856   -1.096005
    104          1           0        5.923520    1.216819   -2.672963
    105          1           0        6.835298    1.215292    0.195865
    106          1           0        6.351537   -0.504819    0.904391
    107          1           0        7.365138   -1.161132   -0.978755
    108          1           0        7.842301    0.453630   -1.700289
    109          1           0        8.920962    0.807050    0.446128
    110          1           0        8.894453   -0.967514    0.847849
    111          1           0       10.304886   -0.261751   -1.630918
    112          1           0        9.202619   -2.166227   -1.767822
    113          1           0       10.815802   -2.419714   -1.912227
    114          1           0       10.114722   -2.787905   -0.283654
    115          1           0       11.209046    0.597298    0.636114
    116          1           0       11.611152   -1.255826    0.904664
    117          1           0       13.030100   -1.317571   -1.194403
    118          1           0       12.657869    0.333010   -1.420267
    119          1           0       13.962874    0.796468    0.669183
    120          1           0       14.015982   -0.810413    1.335665
    121          1           0       15.097077    0.316775   -1.405622
    122          1           0       15.859771   -2.337608   -0.148166
    123          1           0       14.885823   -2.101112   -1.652277
    124          1           0       16.666681   -1.754869   -1.396667
    125          1           0       16.273889    1.303006    0.715277
    126          1           0       16.809368   -0.243900    1.198171
    127          1           0       18.229249   -0.556695   -0.707539
    128          1           0       17.644566    0.959277   -1.453948
    129          1           0       18.328788    2.298867    0.612007
    130          1           0       18.836123    0.770193    1.585271
    131          1           0       20.618279    0.434815   -0.276456
    132          1           0       19.831153    3.274728   -0.895408
    133          1           0       21.265385    2.348928   -1.472044
    134          1           0       19.717794    2.099020   -2.245447
    135          1           0       21.189291    1.741630    2.030641
    136          1           0       22.252378    2.120089    0.878735
    137          1           0       20.826893    3.065844    1.058739
 ---------------------------------------------------------------------

 SCF Done:  E(RCAM-B3LYP) =  -2933.38184203     A.U. after   15 cycles

 Excitation energies and oscillator strengths:

 Excited State   1:      Singlet-A      2.0235 eV  612.74 nm  f=0.1981  <S**2>=0.000
     240 -> 243        0.27323
     241 -> 242        0.64682
 This state for optimization and/or second-order correction.
 Total Energy, E(TD-HF/TD-DFT) =  -2933.30748151
 Copying the excited state density for this state as the 1-particle RhoCI density.

 The electronic state is 1-A.
 Alpha  occ. eigenvalues --  -46.79343 -19.22917 -19.21422 -19.16649 -19.16379
 Alpha  occ. eigenvalues --  -19.15266 -14.37582 -14.35544 -14.35235 -14.34559
 Alpha  occ. eigenvalues --  -10.35364 -10.33720 -10.30514 -10.29333 -10.27278
 Alpha  occ. eigenvalues --  -10.26683 -10.26084 -10.25070 -10.24915 -10.24776
 Alpha  occ. eigenvalues --  -10.24650 -10.24557 -10.24413 -10.24400 -10.24344
 Alpha  occ. eigenvalues --  -10.24343 -10.24106 -10.24045 -10.23996 -10.23523
 Alpha  occ. eigenvalues --  -10.23502 -10.23456 -10.23177 -10.23081 -10.22746
 Alpha  occ. eigenvalues --  -10.22745 -10.22624 -10.22611 -10.22490 -10.22279
 Alpha  occ. eigenvalues --  -10.22236 -10.22094 -10.22034 -10.22010 -10.22007
 Alpha  occ. eigenvalues --  -10.21887 -10.21864 -10.21745 -10.21622 -10.21537
 Alpha  occ. eigenvalues --  -10.21534 -10.21395 -10.21181 -10.21130 -10.20806
 Alpha  occ. eigenvalues --  -10.20745 -10.20609 -10.20473 -10.20092 -10.19953
 Alpha  occ. eigenvalues --  -10.19931 -10.19855 -10.19532 -10.19520 -10.19025
 Alpha  occ. eigenvalues --   -3.08028  -1.82954  -1.82521  -1.82435  -1.12894
 Alpha  occ. eigenvalues --   -1.12216  -1.06007  -1.02683  -1.02521  -0.99686
 Alpha  occ. eigenvalues --   -0.98759  -0.97067  -0.95876  -0.87238  -0.86844
 Alpha  occ. eigenvalues --   -0.85595  -0.85129  -0.84327  -0.84202  -0.83723
 Alpha  occ. eigenvalues --   -0.83229  -0.83184  -0.82239  -0.81634  -0.81072
 Alpha  occ. eigenvalues --   -0.80021  -0.79309  -0.78894  -0.77889  -0.77362
 Alpha  occ. eigenvalues --   -0.76486  -0.75562  -0.75512  -0.75076  -0.73499
 Alpha  occ. eigenvalues --   -0.73108  -0.72705  -0.71579  -0.71282  -0.71010
 Alpha  occ. eigenvalues --   -0.70607  -0.70138  -0.69959  -0.69007  -0.67523
 Alpha  occ. eigenvalues --   -0.66899  -0.65996  -0.65384  -0.64899  -0.63981
 Alpha  occ. eigenvalues --   -0.61933  -0.61561  -0.61277  -0.60788  -0.60273
 Alpha  occ. eigenvalues --   -0.59953  -0.59275  -0.59064  -0.58839  -0.57607
 Alpha  occ. eigenvalues --   -0.57073  -0.56538  -0.56324  -0.55908  -0.55242
 Alpha  occ. eigenvalues --   -0.54776  -0.53864  -0.53758  -0.53304  -0.52682
 Alpha  occ. eigenvalues --   -0.52214  -0.51896  -0.51540  -0.51037  -0.50770
 Alpha  occ. eigenvalues --   -0.50426  -0.50355  -0.49853  -0.49347  -0.49239
 Alpha  occ. eigenvalues --   -0.48851  -0.48656  -0.48233  -0.48054  -0.47833
 Alpha  occ. eigenvalues --   -0.47506  -0.47309  -0.47172  -0.46987  -0.46746
 Alpha  occ. eigenvalues --   -0.46623  -0.46393  -0.46149  -0.45927  -0.45729
 Alpha  occ. eigenvalues --   -0.45632  -0.45531  -0.45321  -0.44984  -0.44672
 Alpha  occ. eigenvalues --   -0.44397  -0.44234  -0.44131  -0.43943  -0.43764
 Alpha  occ. eigenvalues --   -0.43618  -0.43037  -0.42708  -0.42363  -0.42288
 Alpha  occ. eigenvalues --   -0.42145  -0.42092  -0.41849  -0.41643  -0.41399
 Alpha  occ. eigenvalues --   -0.41175  -0.41014  -0.40914  -0.40597  -0.40579
 Alpha  occ. eigenvalues --   -0.40236  -0.40075  -0.40025  -0.39834  -0.39567
 Alpha  occ. eigenvalues --   -0.39404  -0.39207  -0.39092  -0.39024  -0.38450
 Alpha  occ. eigenvalues --   -0.38330  -0.38098  -0.38015  -0.37716  -0.37464
 Alpha  occ. eigenvalues --   -0.37403  -0.37147  -0.37115  -0.37089  -0.36760
 Alpha  occ. eigenvalues --   -0.36690  -0.36552  -0.36216  -0.35932  -0.35675
 Alpha  occ. eigenvalues --   -0.35648  -0.35372  -0.35118  -0.35081  -0.34798
 Alpha  occ. eigenvalues --   -0.34213  -0.34172  -0.33975  -0.33947  -0.33492
 Alpha  occ. eigenvalues --   -0.33438  -0.32883  -0.32809  -0.32682  -0.32402
 Alpha  occ. eigenvalues --   -0.32077  -0.31750  -0.31130  -0.30873  -0.30230
 Alpha  occ. eigenvalues --   -0.29846  -0.29716  -0.29057  -0.28099  -0.27750
 Alpha  occ. eigenvalues --   -0.27329  -0.26686  -0.25911  -0.25457  -0.21251
 Alpha  occ. eigenvalues --   -0.19636
 Alpha virt. eigenvalues --   -0.06517  -0.04329  -0.00191   0.02367   0.03282
 Alpha virt. eigenvalues --    0.04450   0.04556   0.04997   0.05116   0.06190
 Alpha virt. eigenvalues --    0.06754   0.08735   0.08803   0.09407   0.09628

 Mulliken charges:
               1
     1  Mg   0.811217
     2  C    0.082306
     3  C   -0.200505
     4  C   -0.212500
     5  C   -0.176318
     6  N   -0.646640
     7  C    0.319912
     8  C   -0.153975
     9  C   -0.123966
    10  C    0.311684
    11  C   -0.289533
    12  C   -0.151559
    13  C   -0.276363
    14  C    0.610040
    15  O   -0.479712
    16  O   -0.454666
    17  N   -0.702880
    18  C    0.277911
    19  C    0.098642
    20  C    0.023701
    21  C    0.283623
    22  C   -0.382897
    23  C   -0.048037
    24  C   -0.251503
    25  N   -0.637289
    26  C    0.274468
    27  C    0.058870
    28  C    0.053348
    29  C    0.270946
    30  C   -0.368202
    31  C   -0.277726
    32  C   -0.302393
    33  N   -0.674515
    34  C    0.289267
    35  C   -0.005595
    36  C    0.070498
    37  C    0.238243
    38  C   -0.379494
    39  C    0.342829
    40  O   -0.451616
    41  C   -0.358317
    42  C    0.609481
    43  O   -0.497345
    44  O   -0.434877
    45  C   -0.085678
    46  C    0.026387
    47  C   -0.135715
    48  C    0.119616
    49  C   -0.337179
    50  C   -0.197947
    51  C   -0.171391
    52  C   -0.171700
    53  C    0.008955
    54  C   -0.327512
    55  C   -0.157407
    56  C   -0.197520
    57  C   -0.144778
    58  C   -0.058925
    59  C   -0.311963
    60  C   -0.170492
    61  C   -0.173291
    62  C   -0.145408
    63  C   -0.073341
    64  C   -0.310002
    65  C   -0.312258
    66  H    0.053742
    67  H    0.050347
    68  H    0.081026
    69  H    0.118062
    70  H    0.113287
    71  H    0.092911
    72  H    0.113775
    73  H    0.114844
    74  H    0.119950
    75  H    0.110907
    76  H    0.129661
    77  H    0.125253
    78  H    0.101418
    79  H    0.136592
    80  H    0.096358
    81  H    0.086356
    82  H    0.096754
    83  H    0.104579
    84  H    0.126275
    85  H    0.080726
    86  H    0.135902
    87  H    0.101125
    88  H    0.116856
    89  H    0.105887
    90  H    0.103574
    91  H    0.123465
    92  H    0.115154
    93  H    0.142484
    94  H    0.137505
    95  H    0.152179
    96  H    0.143352
    97  H    0.134116
    98  H    0.136464
    99  H    0.125337
   100  H    0.083706
   101  H    0.084224
   102  H    0.130387
   103  H    0.065624
   104  H    0.125932
   105  H    0.098967
   106  H    0.082788
   107  H    0.109159
   108  H    0.086320
   109  H    0.071933
   110  H    0.088234
   111  H    0.062124
   112  H    0.099914
   113  H    0.106638
   114  H    0.079154
   115  H    0.072601
   116  H    0.051549
   117  H    0.103262
   118  H    0.089626
   119  H    0.099682
   120  H    0.060879
   121  H    0.090686
   122  H    0.117816
   123  H    0.084669
   124  H    0.094763
   125  H    0.089509
   126  H    0.089878
   127  H    0.074512
   128  H    0.082497
   129  H    0.049795
   130  H    0.088995
   131  H    0.074275
   132  H    0.115640
   133  H    0.113088
   134  H    0.087346
   135  H    0.111739
   136  H    0.111856
   137  H    0.082993
 Sum of Mulliken charges =  -0.00000

 Dipole moment (field-independent basis, Debye):
    X=              1.9240    Y=              3.2331    Z=             -0.1170  Tot=              3.7641
 Quadrupole moment (field-independent basis, Debye-Ang):
   XX=           -335.7885   YY=           -390.3943   ZZ=           -398.1447
   XY=            -16.3017   XZ=             13.2361   YZ=             -3.1899

 Normal termination of Gaussian 16 at Sat Sep 14 09:51:12 2019.
