 Gaussian 16, Revision A.03,
 Gaussian 16:  ES64L-G16RevA.03 25-Dec-2016

 ----------------------------------------------------------------------
 # td=(NStates=1) iop(3/107=0140000000,3/108=0140000000) CAM-B3LYP/6-31
 G(d,p)
 ----------------------------------------------------------------------

 --
 TD
 --
 Symbolic Z-matrix:
 Charge =  0 Multiplicity = 1

                         Standard orientation:
 ---------------------------------------------------------------------
 Center     Atomic      Atomic             Coordinates (Angstroms)
 Number     Number       Type             X           Y           Z
 ---------------------------------------------------------------------
      1         12           0       -7.129421    0.607481    0.054758
      2          6           0       -4.832452   -1.987469    0.487266
      3          6           0       -4.756783    2.757641    1.237389
      4          6           0       -9.331127    3.090911   -0.475438
      5          6           0       -9.540755   -1.691093   -0.763223
      6          7           0       -5.096865    0.393929    0.761390
      7          6           0       -4.357203   -0.793241    0.782755
      8          6           0       -2.937684   -0.458694    1.182532
      9          6           0       -3.079469    0.924955    1.759248
     10          6           0       -4.391382    1.447513    1.168557
     11          6           0       -3.047432    1.148865    3.245381
     12          6           0       -1.919710   -0.534961   -0.002873
     13          6           0       -0.484145   -0.375221    0.372620
     14          6           0        0.504311   -0.629715   -0.700414
     15          8           0        0.331866   -1.149419   -1.834888
     16          8           0        1.701769   -0.397431   -0.196372
     17          7           0       -7.040057    2.656845    0.286618
     18          6           0       -5.880074    3.329423    0.805906
     19          6           0       -6.284623    4.797541    0.880881
     20          6           0       -7.634113    4.914441    0.406850
     21          6           0       -8.081259    3.559043    0.080399
     22          6           0       -5.405624    5.812093    1.355926
     23          6           0       -8.414738    6.008236    0.146424
     24          6           0       -8.261749    7.176422    0.802969
     25          7           0       -9.060422    0.673211   -0.627222
     26          6           0       -9.827129    1.863319   -0.783776
     27          6           0      -11.183205    1.573218   -1.228872
     28          6           0      -11.186995    0.172078   -1.279728
     29          6           0       -9.881294   -0.285175   -0.870141
     30          6           0      -12.244746    2.585091   -1.547929
     31          6           0      -12.352474   -0.723825   -1.754445
     32          6           0      -12.355551   -1.205856   -3.163541
     33          7           0       -7.201867   -1.410812   -0.107787
     34          6           0       -8.274745   -2.257826   -0.555960
     35          6           0       -7.867584   -3.630587   -0.469853
     36          6           0       -6.487721   -3.527862   -0.124074
     37          6           0       -6.179998   -2.223279    0.090098
     38          6           0       -8.799235   -4.728127   -0.788032
     39          6           0       -5.322733   -4.386496    0.234827
     40          8           0       -5.367967   -5.592144    0.119610
     41          6           0       -4.166993   -3.337038    0.563992
     42          6           0       -3.535271   -3.740440    1.964164
     43          8           0       -3.736823   -3.066808    3.016179
     44          8           0       -2.806267   -4.825003    1.757001
     45          6           0       -2.218623   -5.321666    3.001328
     46          6           0        2.818311   -0.598285   -1.161928
     47          6           0        4.074739   -0.321263   -0.476289
     48          6           0        5.050934    0.557946   -0.810710
     49          6           0        5.102479    1.218474   -2.081108
     50          6           0        6.402163    0.482605   -0.201299
     51          6           0        7.578405   -0.095392   -0.969399
     52          6           0        8.874223   -0.100803   -0.200641
     53          6           0       10.222003   -0.442335   -0.995879
     54          6           0       10.003411   -1.876505   -1.492209
     55          6           0       11.373888   -0.145024   -0.136514
     56          6           0       12.771215   -0.572277   -0.676010
     57          6           0       14.006959   -0.166080    0.278345
     58          6           0       15.343554   -0.216388   -0.471572
     59          6           0       15.570969   -1.755591   -0.825281
     60          6           0       16.402861    0.456354    0.503508
     61          6           0       17.845785    0.428737   -0.213995
     62          6           0       18.730143    1.290188    0.658123
     63          6           0       20.231583    1.274680    0.287633
     64          6           0       20.474313    1.968471   -1.107963
     65          6           0       21.056211    1.852600    1.288004
     66          1           0       -4.035253    3.504673    1.563672
     67          1           0      -10.053673    3.921028   -0.398263
     68          1           0      -10.443429   -2.197004   -1.085711
     69          1           0       -2.438992   -1.101514    2.014700
     70          1           0       -2.024262    1.632945    1.318494
     71          1           0       -2.099180    0.534508    3.647137
     72          1           0       -3.191325    2.105058    3.429256
     73          1           0       -3.854150    0.499330    3.591015
     74          1           0       -2.185677   -1.514592   -0.373153
     75          1           0       -2.232388    0.131626   -0.781219
     76          1           0       -0.437510    0.728757    0.749697
     77          1           0       -0.169525   -0.978275    1.136867
     78          1           0       -5.706235    6.793974    0.797082
     79          1           0       -5.413382    6.122772    2.488503
     80          1           0       -4.217674    5.687204    1.040832
     81          1           0       -9.151770    5.901593   -0.900100
     82          1           0       -8.947444    8.106045    0.630666
     83          1           0       -7.790257    7.130131    1.885466
     84          1           0      -12.010649    3.032747   -2.478530
     85          1           0      -13.174049    2.014083   -1.869548
     86          1           0      -12.487987    3.388917   -0.605143
     87          1           0      -12.239258   -1.676094   -1.156776
     88          1           0      -13.495671   -0.343650   -1.630394
     89          1           0      -13.080925   -1.953997   -3.419264
     90          1           0      -12.426615   -0.322845   -3.774459
     91          1           0      -11.335634   -1.597222   -3.524655
     92          1           0       -9.139662   -4.567361   -1.779390
     93          1           0       -8.204106   -5.643587   -0.657933
     94          1           0       -9.644402   -4.791115   -0.057254
     95          1           0       -3.485133   -3.551475   -0.276383
     96          1           0       -1.597873   -4.561901    3.249668
     97          1           0       -2.912759   -5.307529    3.813048
     98          1           0       -1.527533   -6.109605    2.782343
     99          1           0        2.705492   -1.593186   -1.723394
    100          1           0        2.583984    0.140240   -2.108836
    101          1           0        4.164534   -0.767419    0.549757
    102          1           0        4.051430    1.078859   -2.704175
    103          1           0        5.501851    2.188615   -2.152439
    104          1           0        5.749370    0.710722   -2.884025
    105          1           0        6.521006    1.499881    0.245205
    106          1           0        6.306451   -0.103121    0.799047
    107          1           0        7.347802   -1.073930   -1.121889
    108          1           0        7.468783    0.307899   -1.847164
    109          1           0        9.018860    0.882916    0.246357
    110          1           0        8.664687   -0.974567    0.627055
    111          1           0       10.277687    0.197370   -1.759445
    112          1           0        9.131881   -1.770643   -2.185067
    113          1           0       11.088599   -2.098739   -2.009761
    114          1           0        9.795064   -2.639951   -0.710035
    115          1           0       11.447493    0.986206   -0.057542
    116          1           0       11.198897   -0.602758    0.913232
    117          1           0       12.792576   -1.932893   -0.647606
    118          1           0       12.960436    0.065968   -1.700337
    119          1           0       13.693487    0.829600    0.613777
    120          1           0       13.984877   -0.706763    1.124186
    121          1           0       15.422210    0.403516   -1.323236
    122          1           0       15.588149   -2.364911    0.147378
    123          1           0       14.714034   -2.241070   -1.336709
    124          1           0       16.505909   -2.054094   -1.521067
    125          1           0       15.962074    1.460997    0.612937
    126          1           0       16.344724   -0.180932    1.470768
    127          1           0       18.374258   -0.641979   -0.202032
    128          1           0       17.952613    0.764046   -1.187315
    129          1           0       18.716462    2.387273    0.711469
    130          1           0       18.746225    1.044148    1.869760
    131          1           0       20.453364    0.104416    0.271578
    132          1           0       20.220672    3.114290   -1.026222
    133          1           0       21.617398    2.032336   -1.414972
    134          1           0       20.008562    1.492060   -1.937324
    135          1           0       20.958523    1.418537    2.317198
    136          1           0       22.182587    2.054728    0.901926
    137          1           0       20.815234    2.955166    1.492176
 ---------------------------------------------------------------------

 SCF Done:  E(RCAM-B3LYP) =  -2933.48188324     A.U. after   16 cycles

 Excitation energies and oscillator strengths:

 Excited State   1:      Singlet-A      1.9454 eV  637.32 nm  f=0.2893  <S**2>=0.000
     240 -> 243        0.18435
     241 -> 242        0.67827
 This state for optimization and/or second-order correction.
 Total Energy, E(TD-HF/TD-DFT) =  -2933.41039155
 Copying the excited state density for this state as the 1-particle RhoCI density.

 The electronic state is 1-A.
 Alpha  occ. eigenvalues --  -46.79627 -19.24230 -19.22413 -19.17318 -19.16363
 Alpha  occ. eigenvalues --  -19.15829 -14.37342 -14.34969 -14.34886 -14.34608
 Alpha  occ. eigenvalues --  -10.35893 -10.34109 -10.30488 -10.28868 -10.26504
 Alpha  occ. eigenvalues --  -10.25909 -10.25467 -10.25338 -10.25283 -10.24915
 Alpha  occ. eigenvalues --  -10.24702 -10.24682 -10.24568 -10.24391 -10.23988
 Alpha  occ. eigenvalues --  -10.23908 -10.23701 -10.23636 -10.23598 -10.23500
 Alpha  occ. eigenvalues --  -10.23484 -10.23264 -10.23221 -10.23116 -10.22972
 Alpha  occ. eigenvalues --  -10.22882 -10.22717 -10.22717 -10.22606 -10.22546
 Alpha  occ. eigenvalues --  -10.22374 -10.22373 -10.22211 -10.22186 -10.22154
 Alpha  occ. eigenvalues --  -10.22124 -10.22086 -10.21877 -10.21852 -10.21815
 Alpha  occ. eigenvalues --  -10.21799 -10.21785 -10.21691 -10.21556 -10.21368
 Alpha  occ. eigenvalues --  -10.21289 -10.21163 -10.21008 -10.20975 -10.20831
 Alpha  occ. eigenvalues --  -10.20684 -10.20618 -10.20337 -10.20155 -10.19403
 Alpha  occ. eigenvalues --   -3.08163  -1.83119  -1.82637  -1.82555  -1.14042
 Alpha  occ. eigenvalues --   -1.12932  -1.06332  -1.03218  -1.01679  -0.99418
 Alpha  occ. eigenvalues --   -0.98961  -0.97908  -0.95184  -0.87639  -0.87425
 Alpha  occ. eigenvalues --   -0.85456  -0.85143  -0.84822  -0.84569  -0.83777
 Alpha  occ. eigenvalues --   -0.83334  -0.83209  -0.82547  -0.82243  -0.81713
 Alpha  occ. eigenvalues --   -0.80552  -0.79638  -0.79156  -0.78045  -0.77939
 Alpha  occ. eigenvalues --   -0.77304  -0.77172  -0.76413  -0.74504  -0.74004
 Alpha  occ. eigenvalues --   -0.73178  -0.72362  -0.72076  -0.71039  -0.70276
 Alpha  occ. eigenvalues --   -0.70267  -0.69949  -0.69483  -0.68589  -0.67835
 Alpha  occ. eigenvalues --   -0.66872  -0.66274  -0.64479  -0.64172  -0.63275
 Alpha  occ. eigenvalues --   -0.63162  -0.62058  -0.61084  -0.60832  -0.60723
 Alpha  occ. eigenvalues --   -0.59284  -0.59256  -0.58684  -0.58527  -0.57654
 Alpha  occ. eigenvalues --   -0.56924  -0.56478  -0.56329  -0.55279  -0.54629
 Alpha  occ. eigenvalues --   -0.54371  -0.53784  -0.53576  -0.52993  -0.52768
 Alpha  occ. eigenvalues --   -0.52225  -0.52037  -0.51094  -0.51018  -0.50878
 Alpha  occ. eigenvalues --   -0.50456  -0.50444  -0.50323  -0.49775  -0.49373
 Alpha  occ. eigenvalues --   -0.49276  -0.48568  -0.48344  -0.48129  -0.47849
 Alpha  occ. eigenvalues --   -0.47643  -0.47366  -0.47227  -0.47038  -0.46770
 Alpha  occ. eigenvalues --   -0.46602  -0.46543  -0.46145  -0.46075  -0.45712
 Alpha  occ. eigenvalues --   -0.45633  -0.45567  -0.45378  -0.45223  -0.45008
 Alpha  occ. eigenvalues --   -0.44642  -0.44613  -0.44338  -0.44002  -0.43183
 Alpha  occ. eigenvalues --   -0.42941  -0.42782  -0.42654  -0.42583  -0.42338
 Alpha  occ. eigenvalues --   -0.42231  -0.41960  -0.41645  -0.41548  -0.41453
 Alpha  occ. eigenvalues --   -0.41129  -0.41092  -0.40807  -0.40416  -0.40370
 Alpha  occ. eigenvalues --   -0.40259  -0.40240  -0.39950  -0.39758  -0.39729
 Alpha  occ. eigenvalues --   -0.39635  -0.39550  -0.39467  -0.39414  -0.39298
 Alpha  occ. eigenvalues --   -0.39069  -0.38626  -0.38406  -0.38024  -0.37745
 Alpha  occ. eigenvalues --   -0.37716  -0.37504  -0.37427  -0.36996  -0.36892
 Alpha  occ. eigenvalues --   -0.36682  -0.36598  -0.36169  -0.35879  -0.35778
 Alpha  occ. eigenvalues --   -0.35667  -0.35567  -0.35167  -0.35046  -0.34857
 Alpha  occ. eigenvalues --   -0.34568  -0.34276  -0.34126  -0.33975  -0.33695
 Alpha  occ. eigenvalues --   -0.33656  -0.33158  -0.32822  -0.32410  -0.32356
 Alpha  occ. eigenvalues --   -0.32201  -0.31647  -0.30647  -0.30534  -0.30043
 Alpha  occ. eigenvalues --   -0.29645  -0.29566  -0.29286  -0.28802  -0.26823
 Alpha  occ. eigenvalues --   -0.26451  -0.26442  -0.26000  -0.24111  -0.22544
 Alpha  occ. eigenvalues --   -0.19380
 Alpha virt. eigenvalues --   -0.07231  -0.03930   0.00046   0.01746   0.02393
 Alpha virt. eigenvalues --    0.03253   0.03526   0.04582   0.05212   0.05610
 Alpha virt. eigenvalues --    0.06524   0.08148   0.08191   0.08819   0.09288

 Mulliken charges:
               1
     1  Mg   0.798895
     2  C    0.112739
     3  C   -0.181136
     4  C   -0.193374
     5  C   -0.156928
     6  N   -0.661579
     7  C    0.298200
     8  C   -0.159014
     9  C   -0.129590
    10  C    0.380455
    11  C   -0.278789
    12  C   -0.161026
    13  C   -0.254037
    14  C    0.611780
    15  O   -0.512078
    16  O   -0.454685
    17  N   -0.719837
    18  C    0.317880
    19  C    0.058025
    20  C    0.077062
    21  C    0.282729
    22  C   -0.417241
    23  C   -0.090815
    24  C   -0.271917
    25  N   -0.686454
    26  C    0.265169
    27  C    0.070699
    28  C    0.004846
    29  C    0.337227
    30  C   -0.373296
    31  C   -0.251555
    32  C   -0.301135
    33  N   -0.743820
    34  C    0.250848
    35  C    0.030703
    36  C   -0.028313
    37  C    0.364101
    38  C   -0.383384
    39  C    0.362291
    40  O   -0.449868
    41  C   -0.337135
    42  C    0.624484
    43  O   -0.502587
    44  O   -0.419987
    45  C   -0.102799
    46  C   -0.002240
    47  C   -0.113099
    48  C    0.138639
    49  C   -0.372710
    50  C   -0.235068
    51  C   -0.159072
    52  C   -0.171534
    53  C   -0.038070
    54  C   -0.302028
    55  C   -0.163106
    56  C   -0.156070
    57  C   -0.175153
    58  C   -0.053284
    59  C   -0.314420
    60  C   -0.168415
    61  C   -0.176785
    62  C   -0.144164
    63  C   -0.037606
    64  C   -0.311780
    65  C   -0.298047
    66  H    0.081068
    67  H    0.075214
    68  H    0.071777
    69  H    0.097647
    70  H    0.021815
    71  H    0.090030
    72  H    0.120675
    73  H    0.127856
    74  H    0.109953
    75  H    0.116939
    76  H    0.125951
    77  H    0.142869
    78  H    0.119625
    79  H    0.118939
    80  H    0.092415
    81  H    0.084889
    82  H    0.097341
    83  H    0.102626
    84  H    0.141773
    85  H    0.109260
    86  H    0.105162
    87  H    0.099375
    88  H    0.090799
    89  H    0.114175
    90  H    0.108164
    91  H    0.093878
    92  H    0.135820
    93  H    0.143393
    94  H    0.125688
    95  H    0.168856
    96  H    0.138209
    97  H    0.153331
    98  H    0.135308
    99  H    0.146256
   100  H    0.106537
   101  H    0.091036
   102  H    0.079069
   103  H    0.125316
   104  H    0.118965
   105  H    0.093408
   106  H    0.071632
   107  H    0.113623
   108  H    0.094824
   109  H    0.085696
   110  H    0.067610
   111  H    0.094856
   112  H    0.104510
   113  H    0.082164
   114  H    0.102274
   115  H    0.081023
   116  H    0.078864
   117  H    0.048064
   118  H    0.072901
   119  H    0.081286
   120  H    0.106174
   121  H    0.089409
   122  H    0.089502
   123  H    0.112132
   124  H    0.080314
   125  H    0.104514
   126  H    0.089627
   127  H    0.089397
   128  H    0.109499
   129  H    0.088449
   130  H    0.054523
   131  H    0.061760
   132  H    0.089779
   133  H    0.085959
   134  H    0.110859
   135  H    0.101344
   136  H    0.081893
   137  H    0.082397
 Sum of Mulliken charges =  -0.00000

 Dipole moment (field-independent basis, Debye):
    X=              1.7921    Y=              3.2122    Z=              0.5646  Tot=              3.7214
 Quadrupole moment (field-independent basis, Debye-Ang):
   XX=           -356.0520   YY=           -395.3521   ZZ=           -396.1888
   XY=            -10.8445   XZ=              7.4258   YZ=             -7.4149

 Normal termination of Gaussian 16 at Mon Sep  9 18:45:55 2019.
