 Gaussian 09, Revision D.01,
 Gaussian 09:  ES64L-G09RevD.01 24-Apr-2013

 -------------------------------------
 # td=(NStates=1) CAM-B3LYP/6-31G(d,p)
 -------------------------------------

 --
 TD
 --
 Symbolic Z-matrix:
 Charge =  0 Multiplicity = 1

                         Standard orientation:
 ---------------------------------------------------------------------
 Center     Atomic      Atomic             Coordinates (Angstroms)
 Number     Number       Type             X           Y           Z
 ---------------------------------------------------------------------
      1         12           0       -7.134949    0.605638    0.038915
      2          6           0       -4.899445   -1.883154    0.505249
      3          6           0       -4.741680    2.907383    1.150285
      4          6           0       -9.309780    3.071701   -0.428189
      5          6           0       -9.507835   -1.736329   -0.932894
      6          7           0       -5.121126    0.532775    0.887118
      7          6           0       -4.327335   -0.629306    0.929738
      8          6           0       -2.892803   -0.351340    1.370069
      9          6           0       -2.948972    1.117156    1.715176
     10          6           0       -4.438786    1.614703    1.288813
     11          6           0       -2.900618    1.343719    3.270646
     12          6           0       -1.930476   -0.681213    0.182000
     13          6           0       -0.515789   -0.512834    0.585663
     14          6           0        0.479038   -0.701277   -0.599752
     15          8           0        0.102385   -1.108006   -1.619562
     16          8           0        1.799319   -0.462335   -0.280043
     17          7           0       -7.078232    2.524305    0.296878
     18          6           0       -6.084664    3.367735    0.754331
     19          6           0       -6.334204    4.757631    0.781363
     20          6           0       -7.652714    4.878799    0.284669
     21          6           0       -8.053408    3.424072    0.005073
     22          6           0       -5.471031    5.912840    1.142939
     23          6           0       -8.503644    6.052577    0.030252
     24          6           0       -8.431816    7.232177    0.809506
     25          7           0       -9.137895    0.664685   -0.500299
     26          6           0       -9.865011    1.748994   -0.676685
     27          6           0      -11.171706    1.471353   -1.234899
     28          6           0      -11.172474    0.077680   -1.339334
     29          6           0       -9.910328   -0.406777   -0.883927
     30          6           0      -12.221228    2.437835   -1.475238
     31          6           0      -12.322885   -0.775692   -1.657911
     32          6           0      -12.393067   -1.198922   -3.215170
     33          7           0       -7.253371   -1.413923   -0.069780
     34          6           0       -8.269820   -2.239679   -0.472367
     35          6           0       -7.817561   -3.720084   -0.456723
     36          6           0       -6.441670   -3.678073   -0.082557
     37          6           0       -6.246645   -2.269221    0.113195
     38          6           0       -8.555197   -4.813844   -0.793927
     39          6           0       -5.253678   -4.381872    0.156189
     40          8           0       -5.202424   -5.623062    0.311561
     41          6           0       -4.176314   -3.191459    0.573876
     42          6           0       -3.506786   -3.635893    1.808388
     43          8           0       -3.658122   -3.121502    2.873819
     44          8           0       -2.676435   -4.623764    1.733307
     45          6           0       -2.033619   -5.040858    2.928429
     46          6           0        2.803975   -0.651657   -1.307845
     47          6           0        4.010575   -0.332918   -0.629680
     48          6           0        5.076926    0.435355   -1.046500
     49          6           0        5.029920    1.167022   -2.405725
     50          6           0        6.365407    0.313843   -0.338302
     51          6           0        7.653302   -0.221208   -1.006164
     52          6           0        8.869985   -0.125940   -0.062815
     53          6           0       10.190365   -0.469600   -0.862687
     54          6           0       10.052785   -1.987786   -1.433479
     55          6           0       11.446560   -0.218283    0.095309
     56          6           0       12.736702   -0.534267   -0.606884
     57          6           0       13.931784   -0.049735    0.210524
     58          6           0       15.302960   -0.210162   -0.402093
     59          6           0       15.601347   -1.695210   -0.759559
     60          6           0       16.448753    0.391336    0.473013
     61          6           0       17.725226    0.455962   -0.141600
     62          6           0       18.739253    1.141405    0.691308
     63          6           0       20.189415    1.347235    0.153985
     64          6           0       20.229684    2.215152   -1.224614
     65          6           0       21.059252    2.056568    1.189890
     66          1           0       -4.201981    3.655684    1.520343
     67          1           0       -9.971834    3.973918   -0.790627
     68          1           0      -10.282545   -2.487492   -1.183372
     69          1           0       -2.540364   -0.876014    2.325986
     70          1           0       -2.228270    1.581443    1.269621
     71          1           0       -2.036660    1.033260    3.618779
     72          1           0       -3.176909    2.318633    3.461879
     73          1           0       -3.645483    0.780875    3.864774
     74          1           0       -1.988413   -1.664507   -0.142061
     75          1           0       -2.246520   -0.069567   -0.555315
     76          1           0       -0.403383    0.491930    1.213565
     77          1           0       -0.403216   -1.361295    1.361951
     78          1           0       -5.493020    6.737815    0.318659
     79          1           0       -5.634815    6.210761    2.193653
     80          1           0       -4.354239    5.614422    1.074840
     81          1           0       -9.403640    6.077334   -0.651446
     82          1           0       -9.070669    7.984736    0.584277
     83          1           0       -7.752242    7.462613    1.593538
     84          1           0      -11.860300    3.124630   -2.217977
     85          1           0      -13.122939    2.089597   -1.899720
     86          1           0      -12.377244    3.069311   -0.527420
     87          1           0      -12.245877   -1.730773   -0.997611
     88          1           0      -13.396909   -0.311099   -1.469698
     89          1           0      -13.382304   -1.820638   -3.531851
     90          1           0      -12.274875   -0.341767   -3.729390
     91          1           0      -11.516000   -1.885443   -3.564740
     92          1           0       -8.530049   -5.058967   -1.982703
     93          1           0       -8.009266   -5.835139   -0.540443
     94          1           0       -9.494055   -4.867305   -0.309862
     95          1           0       -3.378007   -3.298265   -0.221984
     96          1           0       -1.306890   -4.262022    3.440830
     97          1           0       -2.708178   -5.649631    3.596651
     98          1           0       -1.336180   -5.931743    2.625913
     99          1           0        2.789302   -1.704294   -1.533314
    100          1           0        2.418672   -0.007292   -2.107701
    101          1           0        4.255637   -0.940761    0.140128
    102          1           0        4.017814    1.102427   -2.790693
    103          1           0        5.521830    2.268487   -2.150583
    104          1           0        5.805960    0.908795   -3.078544
    105          1           0        6.779632    1.366023   -0.017511
    106          1           0        6.152547    0.021407    0.713468
    107          1           0        7.573040   -1.343536   -1.392351
    108          1           0        7.747168    0.164826   -1.981808
    109          1           0        8.884970    0.811325    0.313353
    110          1           0        8.679255   -0.734386    0.911748
    111          1           0       10.228802    0.198098   -1.685902
    112          1           0        9.195161   -1.946611   -2.167818
    113          1           0       10.998522   -1.998285   -1.902621
    114          1           0        9.938042   -2.923259   -0.890371
    115          1           0       11.329861    0.907124    0.524423
    116          1           0       11.628467   -0.864363    1.005401
    117          1           0       12.747371   -1.702914   -0.788425
    118          1           0       12.632985   -0.229130   -1.724105
    119          1           0       13.745645    0.994949    0.282608
    120          1           0       13.997457   -0.595289    1.213293
    121          1           0       15.386635    0.391026   -1.288385
    122          1           0       15.560153   -2.340225    0.082604
    123          1           0       14.803653   -2.137002   -1.264248
    124          1           0       16.753937   -1.870544   -1.120292
    125          1           0       16.010805    1.132911    0.952478
    126          1           0       16.668569   -0.275377    1.271426
    127          1           0       18.171469   -0.632819   -0.300459
    128          1           0       17.676900    0.945378   -1.160317
    129          1           0       18.378836    2.142776    0.916063
    130          1           0       18.801395    0.613746    1.718126
    131          1           0       20.640938    0.271475    0.134877
    132          1           0       19.869172    3.289003   -0.965555
    133          1           0       21.249566    2.110194   -1.429435
    134          1           0       19.519883    1.911792   -1.852852
    135          1           0       21.267934    1.537424    2.128034
    136          1           0       22.094623    2.020824    0.964095
    137          1           0       20.845266    2.893719    1.320911
 ---------------------------------------------------------------------

 SCF Done:  E(RCAM-B3LYP) =  -2932.64341676     A.U. after   18 cycles

 Excitation energies and oscillator strengths:

 Excited State   1:      Singlet-A      2.0306 eV  610.56 nm  f=0.2619  <S**2>=0.000
     240 -> 242       -0.14972
     240 -> 243       -0.23894
     241 -> 242        0.62917
     241 -> 243       -0.10688
 This state for optimization and/or second-order correction.
 Total Energy, E(TD-HF/TD-KS) =  -2932.56879184
 Copying the excited state density for this state as the 1-particle RhoCI density.

 The electronic state is 1-A.
 Alpha  occ. eigenvalues --  -46.84530 -19.25617 -19.24597 -19.21383 -19.20251
 Alpha  occ. eigenvalues --  -19.18075 -14.40852 -14.40241 -14.39940 -14.39148
 Alpha  occ. eigenvalues --  -10.38943 -10.37155 -10.35267 -10.32477 -10.31372
 Alpha  occ. eigenvalues --  -10.31236 -10.30660 -10.29849 -10.29848 -10.29666
 Alpha  occ. eigenvalues --  -10.29452 -10.29425 -10.29384 -10.28887 -10.28782
 Alpha  occ. eigenvalues --  -10.28296 -10.28287 -10.28061 -10.27939 -10.27892
 Alpha  occ. eigenvalues --  -10.27774 -10.27771 -10.27766 -10.27629 -10.27465
 Alpha  occ. eigenvalues --  -10.27116 -10.26827 -10.26821 -10.26798 -10.26786
 Alpha  occ. eigenvalues --  -10.26690 -10.26688 -10.26633 -10.26541 -10.26426
 Alpha  occ. eigenvalues --  -10.26119 -10.25740 -10.25669 -10.25563 -10.25476
 Alpha  occ. eigenvalues --  -10.25439 -10.25438 -10.25279 -10.25177 -10.25138
 Alpha  occ. eigenvalues --  -10.24901 -10.24689 -10.24572 -10.24409 -10.24299
 Alpha  occ. eigenvalues --  -10.24140 -10.23990 -10.23308 -10.22464 -10.21467
 Alpha  occ. eigenvalues --   -3.13657  -1.88342  -1.87926  -1.87831  -1.19949
 Alpha  occ. eigenvalues --   -1.18438  -1.10492  -1.08949  -1.07999  -1.04733
 Alpha  occ. eigenvalues --   -1.04074  -1.03488  -1.01937  -0.91922  -0.91493
 Alpha  occ. eigenvalues --   -0.91060  -0.90356  -0.89518  -0.89351  -0.89006
 Alpha  occ. eigenvalues --   -0.88371  -0.87936  -0.87865  -0.87012  -0.86154
 Alpha  occ. eigenvalues --   -0.85346  -0.84305  -0.83636  -0.83439  -0.82325
 Alpha  occ. eigenvalues --   -0.81976  -0.81490  -0.80128  -0.79781  -0.78104
 Alpha  occ. eigenvalues --   -0.77779  -0.77284  -0.77078  -0.76292  -0.75637
 Alpha  occ. eigenvalues --   -0.75577  -0.75070  -0.74980  -0.73445  -0.71817
 Alpha  occ. eigenvalues --   -0.71316  -0.70670  -0.69452  -0.69068  -0.68724
 Alpha  occ. eigenvalues --   -0.67827  -0.67229  -0.65564  -0.65103  -0.64616
 Alpha  occ. eigenvalues --   -0.63660  -0.63448  -0.63370  -0.62696  -0.62075
 Alpha  occ. eigenvalues --   -0.61529  -0.60967  -0.60150  -0.60086  -0.59437
 Alpha  occ. eigenvalues --   -0.58784  -0.58137  -0.57949  -0.57274  -0.56960
 Alpha  occ. eigenvalues --   -0.56079  -0.55609  -0.55350  -0.54961  -0.54830
 Alpha  occ. eigenvalues --   -0.54691  -0.54095  -0.53864  -0.53365  -0.53339
 Alpha  occ. eigenvalues --   -0.52938  -0.52771  -0.52341  -0.52178  -0.51780
 Alpha  occ. eigenvalues --   -0.51541  -0.51340  -0.51212  -0.51014  -0.50752
 Alpha  occ. eigenvalues --   -0.50665  -0.50358  -0.50073  -0.49982  -0.49486
 Alpha  occ. eigenvalues --   -0.49460  -0.49153  -0.49029  -0.48638  -0.48591
 Alpha  occ. eigenvalues --   -0.48446  -0.47868  -0.47762  -0.47558  -0.47128
 Alpha  occ. eigenvalues --   -0.46949  -0.46604  -0.46290  -0.46048  -0.46019
 Alpha  occ. eigenvalues --   -0.45871  -0.45653  -0.45441  -0.45359  -0.45229
 Alpha  occ. eigenvalues --   -0.45057  -0.44743  -0.44538  -0.44304  -0.44059
 Alpha  occ. eigenvalues --   -0.44031  -0.43720  -0.43591  -0.43443  -0.43227
 Alpha  occ. eigenvalues --   -0.43041  -0.42766  -0.42620  -0.42585  -0.42522
 Alpha  occ. eigenvalues --   -0.42214  -0.42117  -0.41866  -0.41749  -0.41530
 Alpha  occ. eigenvalues --   -0.41349  -0.41253  -0.41103  -0.40606  -0.40246
 Alpha  occ. eigenvalues --   -0.39933  -0.39795  -0.39540  -0.39410  -0.39123
 Alpha  occ. eigenvalues --   -0.39051  -0.39006  -0.38814  -0.38085  -0.38045
 Alpha  occ. eigenvalues --   -0.37488  -0.37011  -0.36974  -0.36386  -0.36266
 Alpha  occ. eigenvalues --   -0.35973  -0.35727  -0.35544  -0.35348  -0.35255
 Alpha  occ. eigenvalues --   -0.35076  -0.35034  -0.34777  -0.34114  -0.33835
 Alpha  occ. eigenvalues --   -0.33305  -0.32284  -0.31719  -0.30314  -0.29714
 Alpha  occ. eigenvalues --   -0.29305  -0.28790  -0.27951  -0.27578  -0.22666
 Alpha  occ. eigenvalues --   -0.20891
 Alpha virt. eigenvalues --   -0.06365  -0.03437   0.00742   0.03430   0.05077
 Alpha virt. eigenvalues --    0.05159   0.06669   0.07127   0.07941   0.08309
 Alpha virt. eigenvalues --    0.08881   0.10828   0.11224   0.11755   0.11791

 Mulliken charges:
               1
     1  Mg   0.844439
     2  C    0.056060
     3  C   -0.159031
     4  C   -0.199116
     5  C   -0.179849
     6  N   -0.629440
     7  C    0.295791
     8  C   -0.157431
     9  C   -0.130470
    10  C    0.331450
    11  C   -0.321158
    12  C   -0.153289
    13  C   -0.280430
    14  C    0.604903
    15  O   -0.425437
    16  O   -0.508237
    17  N   -0.708132
    18  C    0.266134
    19  C    0.045921
    20  C    0.038489
    21  C    0.308519
    22  C   -0.382591
    23  C   -0.127082
    24  C   -0.222801
    25  N   -0.687070
    26  C    0.291478
    27  C    0.040956
    28  C    0.034726
    29  C    0.291248
    30  C   -0.380372
    31  C   -0.258669
    32  C   -0.303508
    33  N   -0.683272
    34  C    0.271823
    35  C    0.058848
    36  C    0.132883
    37  C    0.235966
    38  C   -0.446980
    39  C    0.312056
    40  O   -0.472921
    41  C   -0.366042
    42  C    0.622872
    43  O   -0.483639
    44  O   -0.417883
    45  C   -0.077759
    46  C    0.013437
    47  C   -0.107656
    48  C    0.120610
    49  C   -0.350751
    50  C   -0.245496
    51  C   -0.172912
    52  C   -0.160657
    53  C   -0.076962
    54  C   -0.321381
    55  C   -0.154940
    56  C   -0.194132
    57  C   -0.174825
    58  C   -0.060857
    59  C   -0.320556
    60  C   -0.151008
    61  C   -0.167458
    62  C   -0.159035
    63  C   -0.078805
    64  C   -0.307216
    65  C   -0.291151
    66  H    0.058393
    67  H    0.078604
    68  H    0.099572
    69  H    0.127732
    70  H    0.095526
    71  H    0.111765
    72  H    0.109909
    73  H    0.121251
    74  H    0.122466
    75  H    0.119191
    76  H    0.107946
    77  H    0.125250
    78  H    0.129756
    79  H    0.135442
    80  H    0.107696
    81  H    0.108333
    82  H    0.106604
    83  H    0.112247
    84  H    0.123592
    85  H    0.118770
    86  H    0.118042
    87  H    0.095619
    88  H    0.096642
    89  H    0.083743
    90  H    0.125125
    91  H    0.093835
    92  H    0.125110
    93  H    0.146680
    94  H    0.135739
    95  H    0.152516
    96  H    0.117644
    97  H    0.133664
    98  H    0.104490
    99  H    0.132498
   100  H    0.123863
   101  H    0.092509
   102  H    0.111287
   103  H    0.083735
   104  H    0.131074
   105  H    0.076797
   106  H    0.103059
   107  H    0.076071
   108  H    0.099515
   109  H    0.096412
   110  H    0.087828
   111  H    0.105195
   112  H    0.095158
   113  H    0.104553
   114  H    0.114182
   115  H    0.067776
   116  H    0.095766
   117  H    0.084217
   118  H    0.079346
   119  H    0.101238
   120  H    0.089295
   121  H    0.084854
   122  H    0.099128
   123  H    0.105141
   124  H    0.084724
   125  H    0.090469
   126  H    0.089757
   127  H    0.076654
   128  H    0.076418
   129  H    0.080964
   130  H    0.072139
   131  H    0.067109
   132  H    0.086909
   133  H    0.120654
   134  H    0.116043
   135  H    0.089943
   136  H    0.093010
   137  H    0.105615
 Sum of Mulliken charges =   0.00000

 Dipole moment (field-independent basis, Debye):
    X=              1.8611    Y=              5.5201    Z=             -0.7935  Tot=              5.8792
 Quadrupole moment (field-independent basis, Debye-Ang):
   XX=           -338.5011   YY=           -385.2623   ZZ=           -397.3719
   XY=            -28.0114   XZ=             20.8178   YZ=              1.6162

 Normal termination of Gaussian 09 at Sat Jul  6 22:47:20 2019.
