 Gaussian 09, Revision D.01,
 Gaussian 09:  ES64L-G09RevD.01 24-Apr-2013

 -------------------------------------
 # td=(NStates=1) CAM-B3LYP/6-31G(d,p)
 -------------------------------------

 --
 TD
 --
 Symbolic Z-matrix:
 Charge =  0 Multiplicity = 1

                         Standard orientation:
 ---------------------------------------------------------------------
 Center     Atomic      Atomic             Coordinates (Angstroms)
 Number     Number       Type             X           Y           Z
 ---------------------------------------------------------------------
      1         12           0       -7.062389    0.692486   -0.061474
      2          6           0       -4.818010   -1.929027    0.441731
      3          6           0       -4.724004    2.907486    1.090023
      4          6           0       -9.280057    3.177073   -0.501868
      5          6           0       -9.522034   -1.688779   -0.773908
      6          7           0       -5.101112    0.413285    0.709695
      7          6           0       -4.315665   -0.722813    0.830753
      8          6           0       -2.935257   -0.306371    1.325114
      9          6           0       -3.019758    1.063207    1.742841
     10          6           0       -4.414624    1.488666    1.156864
     11          6           0       -2.927297    1.303634    3.315157
     12          6           0       -2.040988   -0.562214    0.018737
     13          6           0       -0.529872   -0.317159    0.513853
     14          6           0        0.538401   -0.694157   -0.567144
     15          8           0        0.269634   -1.158446   -1.664061
     16          8           0        1.831426   -0.595363   -0.162024
     17          7           0       -7.069994    2.732415    0.224415
     18          6           0       -6.000145    3.389161    0.679845
     19          6           0       -6.337081    4.819070    0.750158
     20          6           0       -7.579034    4.938501    0.243819
     21          6           0       -8.092312    3.509893   -0.009054
     22          6           0       -5.408414    5.881768    1.141306
     23          6           0       -8.565315    6.028810    0.201534
     24          6           0       -8.436458    7.184256    0.991670
     25          7           0       -9.150706    0.669334   -0.533503
     26          6           0       -9.759590    1.886490   -0.715235
     27          6           0      -11.182450    1.480278   -1.180871
     28          6           0      -11.270963    0.097484   -1.287972
     29          6           0       -9.895625   -0.353516   -0.848616
     30          6           0      -12.430832    2.382724   -1.396521
     31          6           0      -12.312630   -0.845135   -1.731775
     32          6           0      -12.368548   -0.943108   -3.316034
     33          7           0       -7.257336   -1.381266   -0.200711
     34          6           0       -8.322594   -2.207796   -0.511150
     35          6           0       -7.838632   -3.544069   -0.583793
     36          6           0       -6.491103   -3.596203   -0.145005
     37          6           0       -6.188475   -2.247085    0.105321
     38          6           0       -8.563825   -4.763407   -1.010923
     39          6           0       -5.320351   -4.398539    0.168383
     40          8           0       -5.270381   -5.590371    0.157459
     41          6           0       -4.155209   -3.304273    0.574709
     42          6           0       -3.616697   -3.715444    1.974451
     43          8           0       -3.756253   -3.195593    3.071131
     44          8           0       -2.824674   -4.836308    1.926417
     45          6           0       -2.204718   -5.233897    3.150910
     46          6           0        2.776687   -0.847815   -1.149975
     47          6           0        4.115208   -0.658279   -0.548195
     48          6           0        5.099155    0.228872   -0.903349
     49          6           0        4.907962    1.051446   -2.079955
     50          6           0        6.435670    0.318770   -0.209273
     51          6           0        7.607387   -0.325712   -0.992953
     52          6           0        8.940422   -0.150680   -0.074973
     53          6           0       10.174057   -0.488439   -0.865945
     54          6           0       10.154715   -2.031000   -1.326485
     55          6           0       11.410760   -0.349935   -0.038491
     56          6           0       12.733082   -0.470755   -0.839300
     57          6           0       13.891277   -0.127919    0.117838
     58          6           0       15.308822   -0.206233   -0.580181
     59          6           0       15.703721   -1.669015   -0.830226
     60          6           0       16.395468    0.566824    0.331399
     61          6           0       17.805846    0.737880   -0.266218
     62          6           0       18.822657    1.424446    0.647873
     63          6           0       20.289303    1.416286    0.301130
     64          6           0       20.378521    2.170536   -1.089602
     65          6           0       21.239353    1.957173    1.340354
     66          1           0       -4.084346    3.760887    1.427793
     67          1           0      -10.114143    3.930254   -0.473917
     68          1           0      -10.403603   -2.458888   -1.374511
     69          1           0       -2.790720   -1.043817    2.269604
     70          1           0       -2.308191    1.868135    1.378768
     71          1           0       -1.933980    0.813214    3.440577
     72          1           0       -3.082417    2.307669    3.599082
     73          1           0       -3.735165    0.550839    3.742877
     74          1           0       -2.016273   -1.489656   -0.374425
     75          1           0       -2.322611    0.331944   -0.717317
     76          1           0       -0.351792    0.773308    0.733693
     77          1           0       -0.303330   -0.750858    1.588987
     78          1           0       -5.542667    6.841900    0.697018
     79          1           0       -5.468340    6.216515    2.178371
     80          1           0       -4.288347    5.669635    0.961722
     81          1           0       -9.279533    5.955844   -0.371199
     82          1           0       -9.261966    7.866102    0.943857
     83          1           0       -7.740953    7.134670    1.716397
     84          1           0      -12.257871    2.975070   -2.393031
     85          1           0      -13.277210    1.745866   -1.416542
     86          1           0      -12.569764    3.126520   -0.623392
     87          1           0      -12.343554   -1.830517   -1.097200
     88          1           0      -13.286855   -0.418460   -1.305447
     89          1           0      -13.257328   -1.388832   -3.771674
     90          1           0      -12.449891    0.076007   -3.621938
     91          1           0      -11.467413   -1.369720   -3.564849
     92          1           0       -8.625983   -4.662625   -2.305163
     93          1           0       -8.123361   -5.684418   -0.661068
     94          1           0       -9.485787   -4.760760   -0.486114
     95          1           0       -3.357323   -3.551753   -0.016293
     96          1           0       -1.380068   -4.463419    3.525830
     97          1           0       -2.869275   -5.427265    4.149388
     98          1           0       -1.593199   -5.991303    3.033487
     99          1           0        2.848947   -1.986614   -1.481358
    100          1           0        2.543510   -0.329432   -2.095168
    101          1           0        4.243375   -1.166664    0.300959
    102          1           0        3.915034    1.189493   -2.393592
    103          1           0        5.431369    2.137346   -1.951686
    104          1           0        5.639181    0.768297   -2.901957
    105          1           0        6.581120    1.293471    0.036157
    106          1           0        6.329453   -0.227527    0.730250
    107          1           0        7.226385   -1.482798   -1.098908
    108          1           0        7.674805    0.130503   -1.935155
    109          1           0        8.862258    0.947945    0.048462
    110          1           0        8.856219   -0.753962    0.942895
    111          1           0        9.963857    0.374008   -1.612822
    112          1           0        9.347600   -2.188217   -2.033532
    113          1           0       11.014343   -2.318072   -1.907459
    114          1           0       10.094853   -2.742574   -0.459750
    115          1           0       11.439646    0.546368    0.498757
    116          1           0       11.363683   -1.292441    0.712360
    117          1           0       12.794807   -1.443155   -1.171783
    118          1           0       12.685443    0.130210   -1.719456
    119          1           0       13.790447    0.813342    0.556858
    120          1           0       13.894185   -0.692346    1.096882
    121          1           0       15.342759    0.264607   -1.466380
    122          1           0       15.793067   -2.148919    0.217349
    123          1           0       15.060767   -2.245386   -1.430501
    124          1           0       16.708458   -1.903093   -1.448471
    125          1           0       15.757054    1.519052    0.557743
    126          1           0       16.482122   -0.281332    1.302647
    127          1           0       18.234854   -0.326466   -0.581898
    128          1           0       17.773095    1.124486   -1.224522
    129          1           0       18.598448    2.445128    0.881325
    130          1           0       18.432688    0.764545    1.747101
    131          1           0       20.677545    0.372351    0.036633
    132          1           0       19.880177    3.183970   -1.225670
    133          1           0       21.555910    2.442834   -1.195664
    134          1           0       20.066589    1.504119   -1.906858
    135          1           0       20.903729    1.402793    2.293613
    136          1           0       22.203819    1.796577    1.070896
    137          1           0       21.006893    3.116166    1.420669
 ---------------------------------------------------------------------

 SCF Done:  E(RCAM-B3LYP) =  -2932.65210992     A.U. after   18 cycles

 Excitation energies and oscillator strengths:

 Excited State   1:      Singlet-A      2.0654 eV  600.28 nm  f=0.2834  <S**2>=0.000
     240 -> 243        0.22624
     241 -> 242        0.66475
 This state for optimization and/or second-order correction.
 Total Energy, E(TD-HF/TD-KS) =  -2932.57620649
 Copying the excited state density for this state as the 1-particle RhoCI density.

 The electronic state is 1-A.
 Alpha  occ. eigenvalues --  -46.85800 -19.26691 -19.26088 -19.21212 -19.20839
 Alpha  occ. eigenvalues --  -19.20668 -14.42424 -14.39987 -14.39641 -14.38902
 Alpha  occ. eigenvalues --  -10.39894 -10.39541 -10.35625 -10.32511 -10.31870
 Alpha  occ. eigenvalues --  -10.31350 -10.30963 -10.30872 -10.30186 -10.29655
 Alpha  occ. eigenvalues --  -10.29427 -10.29129 -10.29066 -10.28886 -10.28731
 Alpha  occ. eigenvalues --  -10.28434 -10.28287 -10.28263 -10.27903 -10.27854
 Alpha  occ. eigenvalues --  -10.27730 -10.27669 -10.27477 -10.27334 -10.27262
 Alpha  occ. eigenvalues --  -10.27262 -10.27119 -10.27005 -10.26903 -10.26830
 Alpha  occ. eigenvalues --  -10.26741 -10.26662 -10.26609 -10.26578 -10.26556
 Alpha  occ. eigenvalues --  -10.26526 -10.26434 -10.26398 -10.26168 -10.26120
 Alpha  occ. eigenvalues --  -10.26105 -10.26050 -10.26028 -10.25656 -10.25352
 Alpha  occ. eigenvalues --  -10.25147 -10.25052 -10.25042 -10.24976 -10.24924
 Alpha  occ. eigenvalues --  -10.24834 -10.24755 -10.24695 -10.24283 -10.24094
 Alpha  occ. eigenvalues --   -3.14559  -1.89286  -1.88789  -1.88714  -1.19121
 Alpha  occ. eigenvalues --   -1.17477  -1.12551  -1.09354  -1.07820  -1.06063
 Alpha  occ. eigenvalues --   -1.04459  -1.03533  -1.01904  -0.92312  -0.91258
 Alpha  occ. eigenvalues --   -0.90316  -0.90147  -0.90013  -0.89421  -0.89318
 Alpha  occ. eigenvalues --   -0.87898  -0.87829  -0.87358  -0.86254  -0.85772
 Alpha  occ. eigenvalues --   -0.84934  -0.84071  -0.83979  -0.82942  -0.82349
 Alpha  occ. eigenvalues --   -0.81427  -0.81063  -0.80701  -0.79782  -0.78150
 Alpha  occ. eigenvalues --   -0.77929  -0.77107  -0.76220  -0.75911  -0.75267
 Alpha  occ. eigenvalues --   -0.75240  -0.74644  -0.73768  -0.73106  -0.72326
 Alpha  occ. eigenvalues --   -0.71839  -0.70801  -0.70261  -0.69471  -0.69223
 Alpha  occ. eigenvalues --   -0.67978  -0.66931  -0.65807  -0.65457  -0.64861
 Alpha  occ. eigenvalues --   -0.64323  -0.63695  -0.62899  -0.62493  -0.61941
 Alpha  occ. eigenvalues --   -0.61496  -0.61355  -0.60568  -0.59980  -0.59170
 Alpha  occ. eigenvalues --   -0.58836  -0.58353  -0.57124  -0.56953  -0.56779
 Alpha  occ. eigenvalues --   -0.56197  -0.55603  -0.55438  -0.55227  -0.54725
 Alpha  occ. eigenvalues --   -0.54428  -0.54292  -0.53615  -0.53544  -0.53110
 Alpha  occ. eigenvalues --   -0.52986  -0.52683  -0.52248  -0.52065  -0.51893
 Alpha  occ. eigenvalues --   -0.51467  -0.51147  -0.50952  -0.50545  -0.50494
 Alpha  occ. eigenvalues --   -0.50354  -0.50175  -0.49948  -0.49719  -0.49536
 Alpha  occ. eigenvalues --   -0.49372  -0.49105  -0.48859  -0.48656  -0.48560
 Alpha  occ. eigenvalues --   -0.48352  -0.48088  -0.48009  -0.47687  -0.47450
 Alpha  occ. eigenvalues --   -0.47186  -0.46770  -0.46469  -0.46436  -0.46035
 Alpha  occ. eigenvalues --   -0.45746  -0.45611  -0.45514  -0.45252  -0.45141
 Alpha  occ. eigenvalues --   -0.44972  -0.44842  -0.44431  -0.44257  -0.44037
 Alpha  occ. eigenvalues --   -0.43875  -0.43669  -0.43422  -0.43370  -0.43158
 Alpha  occ. eigenvalues --   -0.43021  -0.42870  -0.42707  -0.42465  -0.42345
 Alpha  occ. eigenvalues --   -0.42084  -0.41817  -0.41526  -0.41427  -0.41153
 Alpha  occ. eigenvalues --   -0.40831  -0.40720  -0.40615  -0.40461  -0.40375
 Alpha  occ. eigenvalues --   -0.40113  -0.40046  -0.39812  -0.39630  -0.39541
 Alpha  occ. eigenvalues --   -0.39108  -0.38785  -0.38346  -0.38114  -0.37816
 Alpha  occ. eigenvalues --   -0.37567  -0.37357  -0.37259  -0.37167  -0.36776
 Alpha  occ. eigenvalues --   -0.36312  -0.36221  -0.36007  -0.35833  -0.35602
 Alpha  occ. eigenvalues --   -0.35307  -0.35041  -0.34085  -0.33885  -0.33629
 Alpha  occ. eigenvalues --   -0.33323  -0.32864  -0.32383  -0.30925  -0.30258
 Alpha  occ. eigenvalues --   -0.28499  -0.28265  -0.28149  -0.27839  -0.23900
 Alpha  occ. eigenvalues --   -0.20942
 Alpha virt. eigenvalues --   -0.06330  -0.02906   0.01342   0.03370   0.04482
 Alpha virt. eigenvalues --    0.05599   0.05922   0.06411   0.07072   0.07265
 Alpha virt. eigenvalues --    0.08523   0.09999   0.10789   0.11167   0.11346

 Mulliken charges:
               1
     1  Mg   0.830089
     2  C    0.020450
     3  C   -0.203917
     4  C   -0.179682
     5  C   -0.192846
     6  N   -0.630443
     7  C    0.292255
     8  C   -0.176811
     9  C   -0.147117
    10  C    0.343541
    11  C   -0.296448
    12  C   -0.152424
    13  C   -0.282648
    14  C    0.597590
    15  O   -0.468467
    16  O   -0.450151
    17  N   -0.736697
    18  C    0.344485
    19  C    0.022803
    20  C   -0.013444
    21  C    0.336550
    22  C   -0.410458
    23  C   -0.040191
    24  C   -0.230155
    25  N   -0.683893
    26  C    0.288840
    27  C   -0.049973
    28  C    0.071324
    29  C    0.299538
    30  C   -0.363747
    31  C   -0.280515
    32  C   -0.302844
    33  N   -0.711939
    34  C    0.354022
    35  C   -0.039513
    36  C    0.053922
    37  C    0.248061
    38  C   -0.354071
    39  C    0.354758
    40  O   -0.430236
    41  C   -0.311623
    42  C    0.605850
    43  O   -0.475192
    44  O   -0.449669
    45  C   -0.058300
    46  C    0.020002
    47  C   -0.137322
    48  C    0.132338
    49  C   -0.366889
    50  C   -0.227012
    51  C   -0.179160
    52  C   -0.169341
    53  C   -0.050017
    54  C   -0.326070
    55  C   -0.159523
    56  C   -0.172146
    57  C   -0.184948
    58  C   -0.068030
    59  C   -0.298073
    60  C   -0.156759
    61  C   -0.176328
    62  C   -0.120568
    63  C   -0.061983
    64  C   -0.313119
    65  C   -0.288320
    66  H    0.087084
    67  H    0.100417
    68  H    0.084401
    69  H    0.133337
    70  H    0.108700
    71  H    0.113598
    72  H    0.122116
    73  H    0.115390
    74  H    0.143471
    75  H    0.118092
    76  H    0.129394
    77  H    0.129665
    78  H    0.136170
    79  H    0.126396
    80  H    0.106706
    81  H    0.067810
    82  H    0.106125
    83  H    0.101957
    84  H    0.105102
    85  H    0.119210
    86  H    0.117406
    87  H    0.103809
    88  H    0.094404
    89  H    0.106960
    90  H    0.120402
    91  H    0.124950
    92  H    0.093393
    93  H    0.145927
    94  H    0.124476
    95  H    0.162856
    96  H    0.086633
    97  H    0.115920
    98  H    0.130298
    99  H    0.101864
   100  H    0.118725
   101  H    0.083090
   102  H    0.120031
   103  H    0.077426
   104  H    0.114714
   105  H    0.105539
   106  H    0.099718
   107  H    0.083696
   108  H    0.101351
   109  H    0.094616
   110  H    0.078121
   111  H    0.071890
   112  H    0.106153
   113  H    0.107472
   114  H    0.105229
   115  H    0.088642
   116  H    0.067893
   117  H    0.108788
   118  H    0.096287
   119  H    0.092780
   120  H    0.086232
   121  H    0.093736
   122  H    0.088735
   123  H    0.108197
   124  H    0.073789
   125  H    0.084750
   126  H    0.052850
   127  H    0.082243
   128  H    0.101759
   129  H    0.096786
   130  H    0.024210
   131  H    0.080135
   132  H    0.099614
   133  H    0.070567
   134  H    0.111537
   135  H    0.102293
   136  H    0.116379
   137  H    0.082198
 Sum of Mulliken charges =   0.00000

 Dipole moment (field-independent basis, Debye):
    X=              1.1182    Y=              6.0521    Z=             -0.3667  Tot=              6.1654
 Quadrupole moment (field-independent basis, Debye-Ang):
   XX=           -362.6247   YY=           -395.7939   ZZ=           -399.2747
   XY=            -26.4746   XZ=             -1.1003   YZ=              1.0278

 Normal termination of Gaussian 09 at Fri Jul  5 14:07:31 2019.
