 Gaussian 16, Revision A.03,
 Gaussian 16:  ES64L-G16RevA.03 25-Dec-2016

 -------------------------------------
 # td=(NStates=1) CAM-B3LYP/6-31G(d,p)
 -------------------------------------

 --
 TD
 --
 Symbolic Z-matrix:
 Charge =  0 Multiplicity = 1

                         Standard orientation:
 ---------------------------------------------------------------------
 Center     Atomic      Atomic             Coordinates (Angstroms)
 Number     Number       Type             X           Y           Z
 ---------------------------------------------------------------------
      1         12           0       -7.158469    0.511140    0.052381
      2          6           0       -4.856988   -1.979230    0.533230
      3          6           0       -4.869133    2.910558    1.103351
      4          6           0       -9.411936    3.076974   -0.325392
      5          6           0       -9.516344   -1.806196   -0.959738
      6          7           0       -5.177740    0.484812    0.713256
      7          6           0       -4.342727   -0.671250    0.796789
      8          6           0       -2.968114   -0.325673    1.330169
      9          6           0       -3.060885    1.103804    1.734338
     10          6           0       -4.449356    1.564055    1.167304
     11          6           0       -3.110947    1.216148    3.309481
     12          6           0       -1.998930   -0.525586    0.200853
     13          6           0       -0.510415   -0.302984    0.574782
     14          6           0        0.429227   -0.625020   -0.522608
     15          8           0        0.147418   -0.826514   -1.679317
     16          8           0        1.740566   -0.383240   -0.153549
     17          7           0       -7.063350    2.591812    0.393145
     18          6           0       -6.069505    3.351587    0.751033
     19          6           0       -6.487726    4.765253    0.788335
     20          6           0       -7.875048    4.860778    0.387254
     21          6           0       -8.126990    3.454503    0.022800
     22          6           0       -5.428823    5.807270    1.287147
     23          6           0       -8.586777    6.033607    0.229337
     24          6           0       -8.526464    7.139983    0.961649
     25          7           0       -9.129110    0.586156   -0.695257
     26          6           0       -9.878199    1.749729   -0.730619
     27          6           0      -11.069157    1.425479   -1.181826
     28          6           0      -11.278171    0.063479   -1.381876
     29          6           0       -9.968736   -0.446005   -1.016377
     30          6           0      -12.258918    2.450974   -1.571234
     31          6           0      -12.451723   -0.693737   -1.878917
     32          6           0      -12.391035   -1.027575   -3.342056
     33          7           0       -7.220696   -1.441558   -0.105974
     34          6           0       -8.268334   -2.261135   -0.647800
     35          6           0       -7.764520   -3.690353   -0.524807
     36          6           0       -6.446596   -3.618085   -0.119347
     37          6           0       -6.217717   -2.225342    0.131733
     38          6           0       -8.555839   -4.975051   -0.976032
     39          6           0       -5.255753   -4.277557    0.204255
     40          8           0       -5.128361   -5.538022    0.206469
     41          6           0       -4.191650   -3.305380    0.664573
     42          6           0       -3.632114   -3.686459    2.012756
     43          8           0       -3.737661   -3.057288    3.026943
     44          8           0       -2.837730   -4.800012    1.955793
     45          6           0       -2.326380   -5.309433    3.260137
     46          6           0        2.822092   -0.573776   -1.160527
     47          6           0        4.201564   -0.431212   -0.600792
     48          6           0        5.193383    0.405492   -1.046094
     49          6           0        5.050312    1.298423   -2.142450
     50          6           0        6.506040    0.341168   -0.247721
     51          6           0        7.689027   -0.017712   -1.031894
     52          6           0        8.958874   -0.169958   -0.220679
     53          6           0       10.342343   -0.525795   -1.045539
     54          6           0       10.245561   -1.826237   -1.641948
     55          6           0       11.455376   -0.364337   -0.033402
     56          6           0       12.814361   -0.573226   -0.772669
     57          6           0       14.028397   -0.285075    0.206348
     58          6           0       15.455141   -0.204886   -0.431876
     59          6           0       15.886888   -1.598283   -0.931159
     60          6           0       16.442961    0.492400    0.381763
     61          6           0       17.826567    0.508536   -0.166610
     62          6           0       18.812526    1.254448    0.803682
     63          6           0       20.189825    1.362465    0.244905
     64          6           0       20.433280    2.094944   -0.968025
     65          6           0       21.210137    1.812471    1.283578
     66          1           0       -4.103938    3.614232    1.496336
     67          1           0      -10.153569    3.884998   -0.542761
     68          1           0      -10.206472   -2.484655   -1.233922
     69          1           0       -2.615813   -0.934837    2.145787
     70          1           0       -2.211557    1.885622    1.354299
     71          1           0       -2.054540    0.674594    3.776503
     72          1           0       -3.278664    2.069619    3.884113
     73          1           0       -4.039767    0.570889    3.629495
     74          1           0       -1.981188   -1.371488   -0.331437
     75          1           0       -2.292437    0.259819   -0.663756
     76          1           0       -0.215303    0.633811    0.958573
     77          1           0       -0.157450   -0.910659    1.560425
     78          1           0       -5.719926    6.941648    0.937546
     79          1           0       -5.632321    5.794234    2.337869
     80          1           0       -4.373107    5.587484    1.146051
     81          1           0       -9.360020    6.011885   -0.439666
     82          1           0       -9.272752    7.828281    0.640775
     83          1           0       -7.687102    7.319531    1.746266
     84          1           0      -11.954439    2.948565   -2.614115
     85          1           0      -13.245962    1.795681   -1.736782
     86          1           0      -12.236032    3.249714   -0.736078
     87          1           0      -12.476103   -1.745808   -1.402662
     88          1           0      -13.368282    0.025415   -1.597317
     89          1           0      -13.251794   -1.519649   -3.682611
     90          1           0      -12.285990   -0.100033   -3.913778
     91          1           0      -11.410043   -1.473212   -3.594386
     92          1           0       -9.002209   -4.884404   -2.003131
     93          1           0       -8.022524   -5.775448   -0.961298
     94          1           0       -9.398077   -5.165876   -0.378868
     95          1           0       -3.177755   -3.438493   -0.012583
     96          1           0       -1.410102   -4.621300    3.699199
     97          1           0       -3.280886   -5.545430    3.652379
     98          1           0       -1.842048   -6.374325    2.865977
     99          1           0        2.576505   -1.425466   -1.782754
    100          1           0        2.532070    0.305199   -1.967683
    101          1           0        4.442535   -1.168637    0.089763
    102          1           0        3.838625    1.417092   -2.496391
    103          1           0        5.154895    2.289317   -2.101033
    104          1           0        5.519862    0.955259   -3.084947
    105          1           0        6.777509    1.487522    0.097787
    106          1           0        6.397157   -0.328716    0.651241
    107          1           0        7.528817   -1.056840   -1.614313
    108          1           0        7.815679    0.772406   -1.828491
    109          1           0        9.066637    0.809415    0.243134
    110          1           0        8.706919   -1.030516    0.720769
    111          1           0       10.304545    0.202608   -1.832819
    112          1           0        9.233614   -1.928095   -2.010412
    113          1           0       11.027530   -2.025563   -2.353341
    114          1           0       10.227072   -2.450919   -0.732925
    115          1           0       11.611938    0.701926    0.492537
    116          1           0       11.225939   -1.120067    0.806120
    117          1           0       12.682497   -1.483115   -1.244245
    118          1           0       12.915934    0.067261   -1.721892
    119          1           0       13.768581    0.603377    0.871499
    120          1           0       14.096551   -1.044071    1.095685
    121          1           0       15.189483    0.486662   -1.356689
    122          1           0       16.118564   -2.281210   -0.084226
    123          1           0       15.188049   -2.119738   -1.443126
    124          1           0       16.741742   -1.741878   -1.634166
    125          1           0       16.239558    1.403370    0.873544
    126          1           0       16.404958   -0.301420    1.293985
    127          1           0       18.160261   -0.344506   -0.535749
    128          1           0       17.919805    1.099477   -1.033579
    129          1           0       18.572550    2.280120    1.052877
    130          1           0       18.895845    0.777118    1.886303
    131          1           0       20.472727    0.322776   -0.034601
    132          1           0       20.306568    3.177146   -0.899215
    133          1           0       21.364638    1.975034   -1.455906
    134          1           0       19.816851    1.684475   -1.840241
    135          1           0       20.931460    1.372608    2.328030
    136          1           0       22.250742    1.649721    1.001144
    137          1           0       21.205400    3.086949    1.473005
 ---------------------------------------------------------------------

 SCF Done:  E(RCAM-B3LYP) =  -2932.65181779     A.U. after   17 cycles

 Excitation energies and oscillator strengths:

 Excited State   1:      Singlet-A      2.2086 eV  561.38 nm  f=0.1514  <S**2>=0.000
     240 -> 242       -0.11337
     240 -> 243        0.28856
     241 -> 242        0.61370
     241 -> 243        0.11907
 This state for optimization and/or second-order correction.
 Total Energy, E(TD-HF/TD-DFT) =  -2932.57065427
 Copying the excited state density for this state as the 1-particle RhoCI density.

 The electronic state is 1-A.
 Alpha  occ. eigenvalues --  -46.84376 -19.25012 -19.24724 -19.20847 -19.20815
 Alpha  occ. eigenvalues --  -19.19358 -14.42194 -14.40155 -14.39536 -14.38259
 Alpha  occ. eigenvalues --  -10.39089 -10.38962 -10.34614 -10.33616 -10.32431
 Alpha  occ. eigenvalues --  -10.32285 -10.32030 -10.30643 -10.30110 -10.29900
 Alpha  occ. eigenvalues --  -10.29893 -10.29862 -10.29723 -10.29139 -10.28491
 Alpha  occ. eigenvalues --  -10.28373 -10.28068 -10.28017 -10.28007 -10.27991
 Alpha  occ. eigenvalues --  -10.27862 -10.27688 -10.27594 -10.27586 -10.27556
 Alpha  occ. eigenvalues --  -10.27556 -10.27515 -10.27453 -10.27270 -10.27193
 Alpha  occ. eigenvalues --  -10.27087 -10.26777 -10.26614 -10.26597 -10.26589
 Alpha  occ. eigenvalues --  -10.26560 -10.26337 -10.26268 -10.26245 -10.26013
 Alpha  occ. eigenvalues --  -10.25896 -10.25556 -10.25464 -10.25326 -10.25258
 Alpha  occ. eigenvalues --  -10.25172 -10.25072 -10.25007 -10.24867 -10.24511
 Alpha  occ. eigenvalues --  -10.24393 -10.24165 -10.23991 -10.23827 -10.23380
 Alpha  occ. eigenvalues --   -3.13408  -1.88117  -1.87667  -1.87567  -1.17233
 Alpha  occ. eigenvalues --   -1.16367  -1.08467  -1.08117  -1.07858  -1.04690
 Alpha  occ. eigenvalues --   -1.04102  -1.02638  -1.02162  -0.93328  -0.92078
 Alpha  occ. eigenvalues --   -0.91326  -0.91178  -0.90642  -0.90444  -0.89185
 Alpha  occ. eigenvalues --   -0.88643  -0.87718  -0.87277  -0.87171  -0.86349
 Alpha  occ. eigenvalues --   -0.85424  -0.84066  -0.83651  -0.83537  -0.82565
 Alpha  occ. eigenvalues --   -0.81479  -0.81165  -0.80831  -0.80483  -0.79025
 Alpha  occ. eigenvalues --   -0.78042  -0.76540  -0.76304  -0.76221  -0.75898
 Alpha  occ. eigenvalues --   -0.75441  -0.74330  -0.74094  -0.73017  -0.72567
 Alpha  occ. eigenvalues --   -0.71720  -0.70950  -0.69615  -0.69244  -0.68883
 Alpha  occ. eigenvalues --   -0.68043  -0.67098  -0.65219  -0.64860  -0.64037
 Alpha  occ. eigenvalues --   -0.63882  -0.63573  -0.62661  -0.62108  -0.61713
 Alpha  occ. eigenvalues --   -0.61370  -0.60856  -0.60490  -0.59943  -0.59604
 Alpha  occ. eigenvalues --   -0.59151  -0.58655  -0.57577  -0.57075  -0.56623
 Alpha  occ. eigenvalues --   -0.56163  -0.55489  -0.55346  -0.55064  -0.54941
 Alpha  occ. eigenvalues --   -0.54656  -0.54502  -0.54058  -0.53526  -0.53024
 Alpha  occ. eigenvalues --   -0.52863  -0.52711  -0.52346  -0.51918  -0.51815
 Alpha  occ. eigenvalues --   -0.51481  -0.51184  -0.51073  -0.50846  -0.50620
 Alpha  occ. eigenvalues --   -0.50253  -0.50039  -0.49984  -0.49631  -0.49382
 Alpha  occ. eigenvalues --   -0.49275  -0.49042  -0.48797  -0.48706  -0.48422
 Alpha  occ. eigenvalues --   -0.48035  -0.47811  -0.47737  -0.47499  -0.46939
 Alpha  occ. eigenvalues --   -0.46801  -0.46597  -0.46524  -0.46316  -0.46161
 Alpha  occ. eigenvalues --   -0.45901  -0.45709  -0.45445  -0.45337  -0.45248
 Alpha  occ. eigenvalues --   -0.44784  -0.44393  -0.44288  -0.44166  -0.44115
 Alpha  occ. eigenvalues --   -0.43969  -0.43611  -0.43494  -0.43439  -0.43219
 Alpha  occ. eigenvalues --   -0.42961  -0.42603  -0.42468  -0.42094  -0.42067
 Alpha  occ. eigenvalues --   -0.41921  -0.41774  -0.41531  -0.41426  -0.41192
 Alpha  occ. eigenvalues --   -0.41091  -0.40691  -0.40560  -0.40128  -0.40023
 Alpha  occ. eigenvalues --   -0.39949  -0.39795  -0.39610  -0.39493  -0.39472
 Alpha  occ. eigenvalues --   -0.39319  -0.38780  -0.38451  -0.38283  -0.38119
 Alpha  occ. eigenvalues --   -0.37972  -0.37709  -0.37187  -0.37171  -0.36846
 Alpha  occ. eigenvalues --   -0.36575  -0.36371  -0.36004  -0.35798  -0.35654
 Alpha  occ. eigenvalues --   -0.34870  -0.34116  -0.33794  -0.33637  -0.33575
 Alpha  occ. eigenvalues --   -0.33396  -0.33133  -0.32645  -0.30849  -0.30313
 Alpha  occ. eigenvalues --   -0.29962  -0.29877  -0.27190  -0.26743  -0.23479
 Alpha  occ. eigenvalues --   -0.21721
 Alpha virt. eigenvalues --   -0.05944  -0.03955   0.00888   0.03493   0.04455
 Alpha virt. eigenvalues --    0.05441   0.05985   0.06319   0.06686   0.07298
 Alpha virt. eigenvalues --    0.07493   0.10317   0.10929   0.11119   0.11313

 Mulliken charges:
               1
     1  Mg   0.822639
     2  C    0.064778
     3  C   -0.236689
     4  C   -0.168786
     5  C   -0.136229
     6  N   -0.647335
     7  C    0.286771
     8  C   -0.133612
     9  C   -0.137159
    10  C    0.340163
    11  C   -0.298874
    12  C   -0.165867
    13  C   -0.276160
    14  C    0.614296
    15  O   -0.469059
    16  O   -0.516033
    17  N   -0.691904
    18  C    0.421067
    19  C   -0.034453
    20  C    0.050809
    21  C    0.258692
    22  C   -0.378491
    23  C   -0.077501
    24  C   -0.234980
    25  N   -0.704771
    26  C    0.323324
    27  C   -0.038369
    28  C    0.062402
    29  C    0.238778
    30  C   -0.346993
    31  C   -0.236470
    32  C   -0.302165
    33  N   -0.747876
    34  C    0.248213
    35  C   -0.024753
    36  C    0.106434
    37  C    0.326101
    38  C   -0.358829
    39  C    0.326796
    40  O   -0.495174
    41  C   -0.324512
    42  C    0.620484
    43  O   -0.460211
    44  O   -0.478606
    45  C   -0.067946
    46  C    0.017827
    47  C   -0.132698
    48  C    0.173460
    49  C   -0.387531
    50  C   -0.215060
    51  C   -0.165480
    52  C   -0.162810
    53  C   -0.070054
    54  C   -0.293994
    55  C   -0.154675
    56  C   -0.182342
    57  C   -0.178622
    58  C   -0.047941
    59  C   -0.320941
    60  C   -0.148412
    61  C   -0.172493
    62  C   -0.170890
    63  C   -0.044006
    64  C   -0.306406
    65  C   -0.290029
    66  H    0.075837
    67  H    0.090849
    68  H    0.080910
    69  H    0.142267
    70  H    0.099632
    71  H    0.072298
    72  H    0.125660
    73  H    0.117453
    74  H    0.131539
    75  H    0.102778
    76  H    0.153493
    77  H    0.112239
    78  H    0.099647
    79  H    0.140440
    80  H    0.126629
    81  H    0.090300
    82  H    0.104198
    83  H    0.102064
    84  H    0.106271
    85  H    0.094651
    86  H    0.107912
    87  H    0.096573
    88  H    0.086569
    89  H    0.112874
    90  H    0.105441
    91  H    0.108287
    92  H    0.118318
    93  H    0.152228
    94  H    0.130523
    95  H    0.162592
    96  H    0.127359
    97  H    0.157860
    98  H    0.114389
    99  H    0.140252
   100  H    0.094609
   101  H    0.095553
   102  H    0.077552
   103  H    0.136666
   104  H    0.131717
   105  H    0.077272
   106  H    0.101394
   107  H    0.072204
   108  H    0.093132
   109  H    0.095280
   110  H    0.040171
   111  H    0.089220
   112  H    0.104198
   113  H    0.109679
   114  H    0.097055
   115  H    0.074672
   116  H    0.089289
   117  H    0.107758
   118  H    0.082606
   119  H    0.085600
   120  H    0.072393
   121  H    0.058117
   122  H    0.097624
   123  H    0.114664
   124  H    0.096765
   125  H    0.100984
   126  H    0.053955
   127  H    0.104079
   128  H    0.101780
   129  H    0.092078
   130  H    0.072898
   131  H    0.083575
   132  H    0.098760
   133  H    0.110012
   134  H    0.080895
   135  H    0.088058
   136  H    0.109597
   137  H    0.048964
 Sum of Mulliken charges =  -0.00000

 Dipole moment (field-independent basis, Debye):
    X=              2.4568    Y=              3.4236    Z=              0.0007  Tot=              4.2139
 Quadrupole moment (field-independent basis, Debye-Ang):
   XX=           -361.7515   YY=           -392.2739   ZZ=           -395.5742
   XY=            -15.9881   XZ=             -3.6715   YZ=             -0.4608

 Normal termination of Gaussian 16 at Sun Jun 30 13:27:27 2019.
