 Gaussian 16, Revision A.03,
 Gaussian 16:  ES64L-G16RevA.03 25-Dec-2016

 ----------------------------------------------------------------------
 # td=(NStates=1) iop(3/107=0140000000,3/108=0140000000) CAM-B3LYP/6-31
 G(d,p)
 ----------------------------------------------------------------------

 --
 TD
 --
 Symbolic Z-matrix:
 Charge =  0 Multiplicity = 1

                         Standard orientation:
 ---------------------------------------------------------------------
 Center     Atomic      Atomic             Coordinates (Angstroms)
 Number     Number       Type             X           Y           Z
 ---------------------------------------------------------------------
      1         12           0       -7.004849    0.710555    0.081511
      2          6           0       -4.852662   -1.900286    0.523032
      3          6           0       -4.753947    2.902668    1.244130
      4          6           0       -9.267903    3.163901   -0.420495
      5          6           0       -9.528356   -1.625799   -0.930176
      6          7           0       -5.051391    0.466679    0.652506
      7          6           0       -4.347610   -0.682755    0.698276
      8          6           0       -2.996721   -0.427354    1.219129
      9          6           0       -3.058718    0.946241    1.724923
     10          6           0       -4.348349    1.522094    1.134502
     11          6           0       -2.994031    1.239026    3.178923
     12          6           0       -1.964527   -0.588599    0.141936
     13          6           0       -0.485069   -0.635867    0.544688
     14          6           0        0.395094   -0.810212   -0.609577
     15          8           0        0.239647   -1.278349   -1.745377
     16          8           0        1.743868   -0.337374   -0.315367
     17          7           0       -6.919257    2.658698    0.388762
     18          6           0       -5.904058    3.392417    0.791454
     19          6           0       -6.263713    4.834279    0.837045
     20          6           0       -7.578176    4.917453    0.364350
     21          6           0       -8.003384    3.545360    0.031456
     22          6           0       -5.390723    5.994058    1.250903
     23          6           0       -8.501652    6.086156    0.126178
     24          6           0       -8.327902    7.295270    0.644518
     25          7           0       -9.093197    0.761042   -0.540478
     26          6           0       -9.844500    1.858215   -0.678235
     27          6           0      -11.214356    1.545842   -1.180776
     28          6           0      -11.254099    0.171231   -1.259540
     29          6           0       -9.829845   -0.341250   -0.927368
     30          6           0      -12.330362    2.544933   -1.180190
     31          6           0      -12.413299   -0.641264   -1.641613
     32          6           0      -12.343484   -1.111724   -3.110303
     33          7           0       -7.151957   -1.294590   -0.301520
     34          6           0       -8.254033   -2.146814   -0.580216
     35          6           0       -7.860566   -3.587596   -0.472365
     36          6           0       -6.593643   -3.522092   -0.023133
     37          6           0       -6.203223   -2.146719    0.056589
     38          6           0       -8.678228   -4.778888   -0.802072
     39          6           0       -5.425712   -4.416076    0.210341
     40          8           0       -5.362943   -5.610664    0.278805
     41          6           0       -4.191568   -3.374540    0.483367
     42          6           0       -3.656468   -3.848882    1.906732
     43          8           0       -3.871431   -3.287419    2.930009
     44          8           0       -2.846541   -4.920993    1.798824
     45          6           0       -2.382042   -5.405919    2.975530
     46          6           0        2.844637   -0.630312   -1.370465
     47          6           0        4.025637   -0.437999   -0.643427
     48          6           0        5.051132    0.263109   -1.080377
     49          6           0        5.062722    1.222514   -2.270000
     50          6           0        6.414568    0.314953   -0.221943
     51          6           0        7.563772   -0.283071   -0.975391
     52          6           0        8.848740   -0.303527   -0.162605
     53          6           0       10.088859   -0.629770   -0.909680
     54          6           0       10.197001   -2.164272   -1.385643
     55          6           0       11.409921   -0.381194   -0.124162
     56          6           0       12.755943   -0.385288   -0.716661
     57          6           0       13.965187    0.164583    0.134042
     58          6           0       15.339860   -0.160116   -0.536606
     59          6           0       15.538390   -1.675667   -0.758751
     60          6           0       16.542723    0.392903    0.406648
     61          6           0       17.901071    0.554683   -0.188192
     62          6           0       18.824157    1.258801    0.794831
     63          6           0       20.284654    1.401528    0.369898
     64          6           0       20.484777    2.135950   -0.905852
     65          6           0       21.164061    1.988907    1.454373
     66          1           0       -4.030722    3.465404    1.701190
     67          1           0      -10.020201    4.023168   -0.574730
     68          1           0      -10.368252   -2.253265   -1.061737
     69          1           0       -2.768623   -1.048121    1.866951
     70          1           0       -2.291926    1.589122    1.096827
     71          1           0       -2.068862    0.785961    3.403198
     72          1           0       -3.170841    2.259453    3.434440
     73          1           0       -3.768275    0.670420    3.642743
     74          1           0       -2.210982   -1.614678   -0.347543
     75          1           0       -2.183463    0.076256   -0.670969
     76          1           0       -0.318586    0.288661    0.868526
     77          1           0       -0.161292   -1.436486    1.335111
     78          1           0       -5.594609    6.875211    0.514131
     79          1           0       -5.519334    6.364462    2.454813
     80          1           0       -4.331297    5.641734    1.096250
     81          1           0       -9.564702    5.878759   -0.305662
     82          1           0       -8.966739    8.062435    0.600584
     83          1           0       -7.478170    7.524071    1.182492
     84          1           0      -11.924665    3.358674   -1.820513
     85          1           0      -13.162278    2.005434   -1.540758
     86          1           0      -12.665129    2.753156   -0.100770
     87          1           0      -12.361565   -1.632840   -1.139282
     88          1           0      -13.385317   -0.111548   -1.543825
     89          1           0      -13.311140   -1.474239   -3.386892
     90          1           0      -12.160300   -0.328670   -3.875582
     91          1           0      -11.555730   -2.076477   -3.285351
     92          1           0       -9.263504   -4.678388   -1.729943
     93          1           0       -7.976443   -5.475069   -0.652270
     94          1           0       -9.624511   -4.960663   -0.251678
     95          1           0       -3.480019   -3.332016   -0.159632
     96          1           0       -2.089407   -4.460456    3.584864
     97          1           0       -3.145307   -6.031609    3.370874
     98          1           0       -1.559921   -6.000273    2.668692
     99          1           0        2.832460   -1.512442   -1.710243
    100          1           0        2.587060    0.071850   -2.185353
    101          1           0        4.276958   -0.843750    0.360539
    102          1           0        4.115695    1.505805   -2.549983
    103          1           0        5.668955    2.132691   -2.010733
    104          1           0        5.637201    0.706365   -3.185019
    105          1           0        6.653352    1.326689   -0.003748
    106          1           0        6.383983   -0.446963    0.624423
    107          1           0        7.277480   -1.280035   -1.373218
    108          1           0        7.685413    0.354148   -1.967233
    109          1           0        9.054128    0.718134    0.293526
    110          1           0        8.826781   -0.977719    0.660135
    111          1           0       10.360691   -0.123331   -2.038550
    112          1           0        9.503581   -2.482209   -2.288400
    113          1           0       11.155674   -2.129731   -1.808002
    114          1           0       10.001713   -2.921345   -0.485073
    115          1           0       11.137556    0.539743    0.311243
    116          1           0       11.527819   -0.983779    0.733055
    117          1           0       12.872200   -1.401355   -1.131742
    118          1           0       12.912112    0.306497   -1.610386
    119          1           0       13.993999    1.374942    0.221975
    120          1           0       13.868049   -0.210346    1.233623
    121          1           0       15.446394    0.301235   -1.606805
    122          1           0       15.323972   -2.397844    0.075990
    123          1           0       14.967037   -1.933034   -1.647553
    124          1           0       16.404163   -1.878877   -1.125255
    125          1           0       16.237376    1.484326    0.680150
    126          1           0       16.425350   -0.269944    1.314468
    127          1           0       18.406195   -0.299187   -0.309857
    128          1           0       17.704833    0.995526   -1.126671
    129          1           0       18.369486    2.286501    1.008169
    130          1           0       18.667006    0.779717    1.673491
    131          1           0       20.415690    0.149428    0.219646
    132          1           0       20.347388    3.341566   -1.015662
    133          1           0       21.557904    2.065014   -1.308371
    134          1           0       20.061966    1.856466   -1.759344
    135          1           0       21.218869    1.295680    2.451596
    136          1           0       22.166874    2.017965    1.212163
    137          1           0       20.816917    2.903598    1.758397
 ---------------------------------------------------------------------

 SCF Done:  E(RCAM-B3LYP) =  -2933.49056668     A.U. after   15 cycles

 Excitation energies and oscillator strengths:

 Excited State   1:      Singlet-A      2.1299 eV  582.12 nm  f=0.2814  <S**2>=0.000
     240 -> 243        0.22209
     241 -> 242        0.66741
 This state for optimization and/or second-order correction.
 Total Energy, E(TD-HF/TD-DFT) =  -2933.41229461
 Copying the excited state density for this state as the 1-particle RhoCI density.

 The electronic state is 1-A.
 Alpha  occ. eigenvalues --  -46.79848 -19.21361 -19.19165 -19.16855 -19.16850
 Alpha  occ. eigenvalues --  -19.16832 -14.37177 -14.35563 -14.35343 -14.35196
 Alpha  occ. eigenvalues --  -10.34533 -10.34242 -10.30971 -10.26760 -10.25940
 Alpha  occ. eigenvalues --  -10.25523 -10.25361 -10.25209 -10.25162 -10.24675
 Alpha  occ. eigenvalues --  -10.24667 -10.24434 -10.24016 -10.23951 -10.23939
 Alpha  occ. eigenvalues --  -10.23896 -10.23704 -10.23613 -10.23390 -10.23372
 Alpha  occ. eigenvalues --  -10.23287 -10.23241 -10.23085 -10.23040 -10.23019
 Alpha  occ. eigenvalues --  -10.22872 -10.22802 -10.22762 -10.22503 -10.22385
 Alpha  occ. eigenvalues --  -10.22187 -10.22122 -10.22090 -10.21984 -10.21947
 Alpha  occ. eigenvalues --  -10.21707 -10.21638 -10.21604 -10.21261 -10.21226
 Alpha  occ. eigenvalues --  -10.21087 -10.21085 -10.20756 -10.20659 -10.20631
 Alpha  occ. eigenvalues --  -10.20560 -10.20340 -10.20316 -10.20311 -10.20284
 Alpha  occ. eigenvalues --  -10.19903 -10.19634 -10.19266 -10.18826 -10.18582
 Alpha  occ. eigenvalues --   -3.08512  -1.83454  -1.82980  -1.82926  -1.14872
 Alpha  occ. eigenvalues --   -1.08398  -1.07430  -1.06081  -1.00273  -1.00082
 Alpha  occ. eigenvalues --   -0.98243  -0.98093  -0.97048  -0.87271  -0.86064
 Alpha  occ. eigenvalues --   -0.85964  -0.85352  -0.84813  -0.84231  -0.83984
 Alpha  occ. eigenvalues --   -0.83470  -0.82967  -0.82820  -0.82540  -0.82127
 Alpha  occ. eigenvalues --   -0.80903  -0.79761  -0.78884  -0.78740  -0.78461
 Alpha  occ. eigenvalues --   -0.77332  -0.76818  -0.76623  -0.75379  -0.74731
 Alpha  occ. eigenvalues --   -0.72984  -0.72332  -0.71791  -0.71659  -0.71260
 Alpha  occ. eigenvalues --   -0.70727  -0.70333  -0.69634  -0.69091  -0.67862
 Alpha  occ. eigenvalues --   -0.67428  -0.66562  -0.64984  -0.64800  -0.63789
 Alpha  occ. eigenvalues --   -0.63026  -0.62075  -0.61783  -0.60986  -0.59903
 Alpha  occ. eigenvalues --   -0.59714  -0.59029  -0.58470  -0.58182  -0.57497
 Alpha  occ. eigenvalues --   -0.56849  -0.56545  -0.55970  -0.55680  -0.55218
 Alpha  occ. eigenvalues --   -0.54777  -0.54716  -0.53970  -0.53299  -0.52821
 Alpha  occ. eigenvalues --   -0.52716  -0.52107  -0.51802  -0.51689  -0.51633
 Alpha  occ. eigenvalues --   -0.51018  -0.50570  -0.50321  -0.49893  -0.49844
 Alpha  occ. eigenvalues --   -0.49410  -0.49027  -0.48638  -0.48252  -0.48153
 Alpha  occ. eigenvalues --   -0.47804  -0.47550  -0.47443  -0.47266  -0.47160
 Alpha  occ. eigenvalues --   -0.46890  -0.46618  -0.46519  -0.46363  -0.45916
 Alpha  occ. eigenvalues --   -0.45842  -0.45626  -0.45442  -0.45182  -0.45050
 Alpha  occ. eigenvalues --   -0.44760  -0.44563  -0.44409  -0.44158  -0.43929
 Alpha  occ. eigenvalues --   -0.43612  -0.43507  -0.43341  -0.43157  -0.42895
 Alpha  occ. eigenvalues --   -0.42735  -0.42512  -0.42371  -0.41888  -0.41783
 Alpha  occ. eigenvalues --   -0.41510  -0.41243  -0.41028  -0.40921  -0.40793
 Alpha  occ. eigenvalues --   -0.40775  -0.40590  -0.40334  -0.40110  -0.39666
 Alpha  occ. eigenvalues --   -0.39578  -0.39339  -0.39211  -0.39116  -0.38862
 Alpha  occ. eigenvalues --   -0.38826  -0.38713  -0.38567  -0.38279  -0.38108
 Alpha  occ. eigenvalues --   -0.37973  -0.37757  -0.37715  -0.37238  -0.36967
 Alpha  occ. eigenvalues --   -0.36758  -0.36587  -0.36357  -0.36310  -0.36056
 Alpha  occ. eigenvalues --   -0.35866  -0.35830  -0.35801  -0.34951  -0.34809
 Alpha  occ. eigenvalues --   -0.34653  -0.34409  -0.34133  -0.33986  -0.33823
 Alpha  occ. eigenvalues --   -0.33073  -0.32724  -0.32505  -0.32491  -0.32191
 Alpha  occ. eigenvalues --   -0.31644  -0.31393  -0.31222  -0.30660  -0.30604
 Alpha  occ. eigenvalues --   -0.30386  -0.29616  -0.29485  -0.28341  -0.27351
 Alpha  occ. eigenvalues --   -0.26993  -0.26918  -0.25700  -0.25289  -0.21860
 Alpha  occ. eigenvalues --   -0.19601
 Alpha virt. eigenvalues --   -0.06362  -0.03175   0.00171   0.02277   0.02880
 Alpha virt. eigenvalues --    0.04753   0.05099   0.05229   0.05361   0.05707
 Alpha virt. eigenvalues --    0.06499   0.08904   0.09183   0.09945   0.10006

 Mulliken charges:
               1
     1  Mg   0.811341
     2  C    0.087412
     3  C   -0.194824
     4  C   -0.201472
     5  C   -0.147041
     6  N   -0.658995
     7  C    0.283213
     8  C   -0.073335
     9  C   -0.163371
    10  C    0.308660
    11  C   -0.298039
    12  C   -0.210888
    13  C   -0.238707
    14  C    0.591760
    15  O   -0.472650
    16  O   -0.537143
    17  N   -0.741347
    18  C    0.397075
    19  C    0.008728
    20  C    0.030927
    21  C    0.291468
    22  C   -0.371048
    23  C   -0.066351
    24  C   -0.230843
    25  N   -0.672738
    26  C    0.310813
    27  C   -0.012383
    28  C    0.048283
    29  C    0.310456
    30  C   -0.351592
    31  C   -0.263970
    32  C   -0.300752
    33  N   -0.690517
    34  C    0.201156
    35  C    0.041637
    36  C    0.007366
    37  C    0.285107
    38  C   -0.370066
    39  C    0.369240
    40  O   -0.444269
    41  C   -0.299131
    42  C    0.591089
    43  O   -0.449558
    44  O   -0.415053
    45  C   -0.089128
    46  C    0.027272
    47  C   -0.113250
    48  C    0.107629
    49  C   -0.358485
    50  C   -0.215263
    51  C   -0.171432
    52  C   -0.159877
    53  C   -0.056140
    54  C   -0.298464
    55  C   -0.169815
    56  C   -0.178861
    57  C   -0.164304
    58  C   -0.067691
    59  C   -0.304594
    60  C   -0.174041
    61  C   -0.158787
    62  C   -0.167113
    63  C   -0.032226
    64  C   -0.304224
    65  C   -0.302154
    66  H    0.066268
    67  H    0.072916
    68  H    0.073334
    69  H    0.083657
    70  H    0.082783
    71  H    0.113486
    72  H    0.118349
    73  H    0.130431
    74  H    0.103116
    75  H    0.120572
    76  H    0.152038
    77  H    0.145295
    78  H    0.123124
    79  H    0.100097
    80  H    0.111945
    81  H    0.085250
    82  H    0.103033
    83  H    0.100163
    84  H    0.123220
    85  H    0.112546
    86  H    0.123909
    87  H    0.111030
    88  H    0.105709
    89  H    0.109329
    90  H    0.113265
    91  H    0.075810
    92  H    0.122311
    93  H    0.145453
    94  H    0.120942
    95  H    0.143736
    96  H    0.112219
    97  H    0.129618
    98  H    0.119483
    99  H    0.141623
   100  H    0.122769
   101  H    0.091642
   102  H    0.121736
   103  H    0.111366
   104  H    0.104380
   105  H    0.105735
   106  H    0.085752
   107  H    0.100559
   108  H    0.073479
   109  H    0.082451
   110  H    0.103584
   111  H    0.051832
   112  H    0.079140
   113  H    0.110231
   114  H    0.079199
   115  H    0.085061
   116  H    0.091754
   117  H    0.102674
   118  H    0.080471
   119  H    0.074412
   120  H    0.078056
   121  H    0.068250
   122  H    0.096064
   123  H    0.095540
   124  H    0.109927
   125  H    0.070537
   126  H    0.082684
   127  H    0.096636
   128  H    0.096249
   129  H    0.064762
   130  H    0.103302
   131  H    0.048199
   132  H    0.077535
   133  H    0.088043
   134  H    0.119205
   135  H    0.068809
   136  H    0.114043
   137  H    0.119171
 Sum of Mulliken charges =  -0.00000

 Dipole moment (field-independent basis, Debye):
    X=              0.2877    Y=              4.4017    Z=              0.6601  Tot=              4.4602
 Quadrupole moment (field-independent basis, Debye-Ang):
   XX=           -326.8591   YY=           -392.8798   ZZ=           -398.0782
   XY=            -23.1278   XZ=              4.0923   YZ=             -1.4024

 Normal termination of Gaussian 16 at Thu Sep 12 21:49:07 2019.
