 Gaussian 16, Revision A.03,
 Gaussian 16:  ES64L-G16RevA.03 25-Dec-2016

 -------------------------------------
 # td=(NStates=1) CAM-B3LYP/6-31G(d,p)
 -------------------------------------

 --
 TD
 --
 Symbolic Z-matrix:
 Charge =  0 Multiplicity = 1

                         Standard orientation:
 ---------------------------------------------------------------------
 Center     Atomic      Atomic             Coordinates (Angstroms)
 Number     Number       Type             X           Y           Z
 ---------------------------------------------------------------------
      1         12           0       -7.134422    0.651460    0.102801
      2          6           0       -4.875450   -2.039559    0.440994
      3          6           0       -4.818226    2.761030    1.218810
      4          6           0       -9.328193    3.111193   -0.400072
      5          6           0       -9.540339   -1.713893   -0.848123
      6          7           0       -5.074008    0.458241    0.626565
      7          6           0       -4.308325   -0.761787    0.772423
      8          6           0       -2.944874   -0.446412    1.240934
      9          6           0       -2.925760    1.146071    1.579689
     10          6           0       -4.389376    1.519350    1.094288
     11          6           0       -2.924543    1.352786    3.092484
     12          6           0       -1.928835   -0.783364    0.119798
     13          6           0       -0.447313   -0.591512    0.473730
     14          6           0        0.592729   -0.951721   -0.617654
     15          8           0        0.207709   -1.251088   -1.734287
     16          8           0        1.779299   -0.622508   -0.208395
     17          7           0       -7.095194    2.676227    0.406618
     18          6           0       -5.973287    3.300990    0.856389
     19          6           0       -6.318208    4.790205    0.833725
     20          6           0       -7.641192    4.888022    0.348835
     21          6           0       -8.088224    3.497959    0.129799
     22          6           0       -5.480820    5.868283    1.193873
     23          6           0       -8.447424    6.070366    0.040288
     24          6           0       -8.372424    7.248388    0.644734
     25          7           0       -9.098664    0.693830   -0.439965
     26          6           0       -9.806619    1.835883   -0.693514
     27          6           0      -11.168667    1.632207   -1.173789
     28          6           0      -11.277450    0.222263   -1.246351
     29          6           0       -9.936842   -0.354715   -0.832411
     30          6           0      -12.236141    2.664664   -1.254581
     31          6           0      -12.504626   -0.556991   -1.690619
     32          6           0      -12.464903   -0.829907   -3.190189
     33          7           0       -7.256749   -1.360641   -0.121821
     34          6           0       -8.332271   -2.176222   -0.559695
     35          6           0       -7.886289   -3.611717   -0.531782
     36          6           0       -6.530398   -3.604467   -0.218601
     37          6           0       -6.265879   -2.182990    0.002504
     38          6           0       -8.748761   -4.735634   -0.863160
     39          6           0       -5.365379   -4.311608    0.187392
     40          8           0       -5.309726   -5.574128    0.349937
     41          6           0       -4.147648   -3.389725    0.445444
     42          6           0       -3.545755   -3.706505    1.834777
     43          8           0       -3.780159   -3.220065    2.863069
     44          8           0       -2.767646   -4.716692    1.705908
     45          6           0       -2.259930   -5.243688    2.964487
     46          6           0        2.869191   -0.858624   -1.137161
     47          6           0        4.112691   -0.590239   -0.442016
     48          6           0        5.107053    0.169702   -0.943323
     49          6           0        5.038185    0.998290   -2.232691
     50          6           0        6.459622    0.329120   -0.167982
     51          6           0        7.617405   -0.280812   -0.840345
     52          6           0        8.928103   -0.105528   -0.072244
     53          6           0       10.183036   -0.590528   -0.809959
     54          6           0       10.145258   -2.219805   -1.085880
     55          6           0       11.405101   -0.360278    0.005609
     56          6           0       12.835297   -0.412296   -0.683890
     57          6           0       14.028706    0.024480    0.126029
     58          6           0       15.347949   -0.175265   -0.489537
     59          6           0       15.751467   -1.585557   -0.864674
     60          6           0       16.377445    0.459554    0.415717
     61          6           0       17.801213    0.598278   -0.238460
     62          6           0       18.795133    1.262246    0.645196
     63          6           0       20.252885    1.455366    0.124968
     64          6           0       20.357330    2.281200   -1.158105
     65          6           0       21.081654    2.190730    1.315502
     66          1           0       -4.031115    3.367943    1.569041
     67          1           0      -10.157724    3.886721   -0.395084
     68          1           0      -10.282280   -2.428413   -1.230699
     69          1           0       -2.643333   -0.893804    2.194121
     70          1           0       -2.056685    1.613843    1.082214
     71          1           0       -2.058199    0.809487    3.470974
     72          1           0       -2.698621    2.346887    3.301945
     73          1           0       -3.803456    0.719202    3.541282
     74          1           0       -2.011436   -1.823087   -0.277574
     75          1           0       -1.994999   -0.227751   -0.938561
     76          1           0       -0.167197    0.541100    0.923851
     77          1           0       -0.156213   -1.255517    1.222268
     78          1           0       -5.742451    6.689373    0.618026
     79          1           0       -5.520988    6.346468    2.357096
     80          1           0       -4.462334    5.677240    0.953466
     81          1           0       -9.205657    6.009035   -0.705012
     82          1           0       -8.972573    7.993604    0.335193
     83          1           0       -7.666827    7.355117    1.418357
     84          1           0      -12.041927    3.415815   -2.080836
     85          1           0      -13.226740    2.110385   -1.536818
     86          1           0      -12.136120    3.075988   -0.305091
     87          1           0      -12.573216   -1.576310   -1.277071
     88          1           0      -13.408364   -0.112062   -1.449086
     89          1           0      -13.316643   -1.240511   -3.782686
     90          1           0      -12.230536    0.229301   -3.690723
     91          1           0      -11.587939   -1.405921   -3.632507
     92          1           0       -9.175230   -4.641659   -1.841248
     93          1           0       -8.391447   -5.740896   -0.973680
     94          1           0       -9.804287   -4.897487   -0.256891
     95          1           0       -3.479976   -3.405993   -0.303375
     96          1           0       -1.932714   -4.271180    3.543626
     97          1           0       -2.933995   -5.525943    3.621493
     98          1           0       -1.544040   -5.754848    2.666100
     99          1           0        2.690099   -2.089909   -1.290317
    100          1           0        2.729431   -0.290283   -2.060701
    101          1           0        4.139774   -1.084506    0.588336
    102          1           0        4.007731    0.811143   -2.728333
    103          1           0        5.321655    2.057549   -2.157677
    104          1           0        5.963167    0.545555   -2.828219
    105          1           0        6.510134    1.293078    0.044887
    106          1           0        6.290382   -0.161521    0.746298
    107          1           0        7.464043   -1.336297   -1.012360
    108          1           0        7.878395    0.390398   -1.751739
    109          1           0        9.169766    0.918451    0.131279
    110          1           0        8.778026   -0.761632    0.875135
    111          1           0       10.192509   -0.181015   -1.835572
    112          1           0        9.482583   -2.293478   -1.922717
    113          1           0       10.982608   -2.469746   -1.546857
    114          1           0        9.764700   -2.754342   -0.061447
    115          1           0       11.338517    0.590598    0.495615
    116          1           0       11.432766   -0.875603    0.874548
    117          1           0       13.024639   -1.447308   -1.047666
    118          1           0       12.637883    0.236088   -1.544940
    119          1           0       13.864104    1.069931    0.500017
    120          1           0       14.041439   -0.591762    1.042652
    121          1           0       15.387143    0.448503   -1.376633
    122          1           0       15.675757   -2.197568   -0.052071
    123          1           0       15.192154   -2.219707   -1.741667
    124          1           0       16.740073   -1.694541   -1.370284
    125          1           0       16.132119    1.490875    0.608216
    126          1           0       16.438958    0.012236    1.404322
    127          1           0       18.128516   -0.405737   -0.214706
    128          1           0       17.657610    0.994348   -1.166230
    129          1           0       18.602449    2.370883    0.702502
    130          1           0       18.865126    0.695114    1.693175
    131          1           0       20.838586    0.528636    0.076051
    132          1           0       19.938303    3.181717   -0.954799
    133          1           0       21.473392    2.300355   -1.564983
    134          1           0       19.626824    1.712451   -1.887841
    135          1           0       21.153092    1.604504    2.166235
    136          1           0       22.200961    2.227651    0.814032
    137          1           0       20.766913    3.329844    1.699455
 ---------------------------------------------------------------------

 SCF Done:  E(RCAM-B3LYP) =  -2932.70800544     A.U. after   18 cycles

 Excitation energies and oscillator strengths:

 Excited State   1:      Singlet-A      2.0180 eV  614.40 nm  f=0.2713  <S**2>=0.000
     240 -> 243       -0.22718
     241 -> 242        0.66138
 This state for optimization and/or second-order correction.
 Total Energy, E(TD-HF/TD-DFT) =  -2932.63384649
 Copying the excited state density for this state as the 1-particle RhoCI density.

 The electronic state is 1-A.
 Alpha  occ. eigenvalues --  -46.84130 -19.27225 -19.25875 -19.20416 -19.20286
 Alpha  occ. eigenvalues --  -19.19093 -14.41387 -14.39947 -14.39306 -14.38928
 Alpha  occ. eigenvalues --  -10.38913 -10.38046 -10.34695 -10.33488 -10.31200
 Alpha  occ. eigenvalues --  -10.29970 -10.29618 -10.29491 -10.29437 -10.29181
 Alpha  occ. eigenvalues --  -10.29111 -10.28919 -10.28742 -10.28619 -10.28256
 Alpha  occ. eigenvalues --  -10.28205 -10.27926 -10.27703 -10.27626 -10.27594
 Alpha  occ. eigenvalues --  -10.27414 -10.27273 -10.26933 -10.26907 -10.26730
 Alpha  occ. eigenvalues --  -10.26656 -10.26612 -10.26599 -10.26534 -10.26498
 Alpha  occ. eigenvalues --  -10.26391 -10.26351 -10.26315 -10.26246 -10.26230
 Alpha  occ. eigenvalues --  -10.26155 -10.26136 -10.26015 -10.25964 -10.25865
 Alpha  occ. eigenvalues --  -10.25781 -10.25560 -10.25525 -10.25514 -10.25446
 Alpha  occ. eigenvalues --  -10.25178 -10.25016 -10.24914 -10.24764 -10.24639
 Alpha  occ. eigenvalues --  -10.24333 -10.24256 -10.23749 -10.23550 -10.23542
 Alpha  occ. eigenvalues --   -3.13193  -1.87903  -1.87409  -1.87392  -1.21144
 Alpha  occ. eigenvalues --   -1.19878  -1.10761  -1.09460  -1.07301  -1.04385
 Alpha  occ. eigenvalues --   -1.03857  -1.01792  -1.01191  -0.92237  -0.92120
 Alpha  occ. eigenvalues --   -0.91619  -0.89921  -0.89521  -0.89071  -0.88837
 Alpha  occ. eigenvalues --   -0.88497  -0.88083  -0.87923  -0.87375  -0.86802
 Alpha  occ. eigenvalues --   -0.85346  -0.84557  -0.84367  -0.83672  -0.83048
 Alpha  occ. eigenvalues --   -0.82435  -0.81849  -0.80740  -0.80081  -0.78438
 Alpha  occ. eigenvalues --   -0.77775  -0.76830  -0.76639  -0.76243  -0.76118
 Alpha  occ. eigenvalues --   -0.75122  -0.74996  -0.74552  -0.73727  -0.72371
 Alpha  occ. eigenvalues --   -0.71059  -0.70372  -0.69219  -0.68891  -0.68146
 Alpha  occ. eigenvalues --   -0.67200  -0.66991  -0.65121  -0.64999  -0.64627
 Alpha  occ. eigenvalues --   -0.64360  -0.63920  -0.63380  -0.62959  -0.62550
 Alpha  occ. eigenvalues --   -0.61713  -0.60491  -0.60195  -0.60015  -0.59711
 Alpha  occ. eigenvalues --   -0.59208  -0.58795  -0.58548  -0.57631  -0.57338
 Alpha  occ. eigenvalues --   -0.56662  -0.56587  -0.56060  -0.56025  -0.55202
 Alpha  occ. eigenvalues --   -0.54635  -0.54302  -0.54202  -0.53863  -0.53627
 Alpha  occ. eigenvalues --   -0.53038  -0.52928  -0.52400  -0.52100  -0.51981
 Alpha  occ. eigenvalues --   -0.51821  -0.51502  -0.51284  -0.50833  -0.50599
 Alpha  occ. eigenvalues --   -0.50416  -0.50318  -0.50151  -0.49664  -0.49619
 Alpha  occ. eigenvalues --   -0.49464  -0.49229  -0.48919  -0.48737  -0.48632
 Alpha  occ. eigenvalues --   -0.48403  -0.48141  -0.47930  -0.47466  -0.47052
 Alpha  occ. eigenvalues --   -0.46781  -0.46604  -0.46501  -0.46232  -0.45708
 Alpha  occ. eigenvalues --   -0.45619  -0.45420  -0.45323  -0.45283  -0.44926
 Alpha  occ. eigenvalues --   -0.44840  -0.44752  -0.44547  -0.44381  -0.44341
 Alpha  occ. eigenvalues --   -0.44185  -0.44069  -0.43616  -0.43511  -0.43271
 Alpha  occ. eigenvalues --   -0.43112  -0.43090  -0.42864  -0.42521  -0.42274
 Alpha  occ. eigenvalues --   -0.41815  -0.41708  -0.41588  -0.41580  -0.41200
 Alpha  occ. eigenvalues --   -0.41111  -0.40954  -0.40879  -0.40743  -0.40573
 Alpha  occ. eigenvalues --   -0.40140  -0.40028  -0.39594  -0.39544  -0.39393
 Alpha  occ. eigenvalues --   -0.38998  -0.38947  -0.38343  -0.38079  -0.37666
 Alpha  occ. eigenvalues --   -0.37664  -0.37200  -0.37129  -0.36933  -0.36643
 Alpha  occ. eigenvalues --   -0.36342  -0.36130  -0.36014  -0.35822  -0.35542
 Alpha  occ. eigenvalues --   -0.35303  -0.35274  -0.34651  -0.33809  -0.33539
 Alpha  occ. eigenvalues --   -0.33150  -0.32844  -0.32366  -0.30361  -0.30054
 Alpha  occ. eigenvalues --   -0.29836  -0.29423  -0.27848  -0.26827  -0.23268
 Alpha  occ. eigenvalues --   -0.20291
 Alpha virt. eigenvalues --   -0.05851  -0.02902   0.01467   0.04377   0.04938
 Alpha virt. eigenvalues --    0.06064   0.06711   0.06881   0.07695   0.08247
 Alpha virt. eigenvalues --    0.08793   0.11117   0.11285   0.11644   0.11746

 Mulliken charges:
               1
     1  Mg   0.812112
     2  C    0.000846
     3  C   -0.168278
     4  C   -0.196380
     5  C   -0.192753
     6  N   -0.652018
     7  C    0.294952
     8  C   -0.161701
     9  C   -0.152179
    10  C    0.357417
    11  C   -0.313377
    12  C   -0.188914
    13  C   -0.255308
    14  C    0.591857
    15  O   -0.482106
    16  O   -0.442900
    17  N   -0.737648
    18  C    0.350413
    19  C    0.019101
    20  C    0.010819
    21  C    0.323492
    22  C   -0.392800
    23  C   -0.086681
    24  C   -0.222479
    25  N   -0.684375
    26  C    0.306986
    27  C    0.028788
    28  C   -0.003507
    29  C    0.264750
    30  C   -0.362896
    31  C   -0.232336
    32  C   -0.313418
    33  N   -0.712346
    34  C    0.287506
    35  C    0.044628
    36  C    0.069208
    37  C    0.317610
    38  C   -0.407220
    39  C    0.331558
    40  O   -0.501257
    41  C   -0.273087
    42  C    0.615386
    43  O   -0.461794
    44  O   -0.431725
    45  C   -0.063627
    46  C    0.007366
    47  C   -0.115620
    48  C    0.084884
    49  C   -0.350827
    50  C   -0.202836
    51  C   -0.172793
    52  C   -0.168737
    53  C   -0.077248
    54  C   -0.309705
    55  C   -0.168834
    56  C   -0.182111
    57  C   -0.170550
    58  C   -0.043309
    59  C   -0.317192
    60  C   -0.192193
    61  C   -0.172123
    62  C   -0.154986
    63  C   -0.075349
    64  C   -0.289201
    65  C   -0.297297
    66  H    0.074046
    67  H    0.083439
    68  H    0.099286
    69  H    0.130217
    70  H    0.108960
    71  H    0.105161
    72  H    0.119923
    73  H    0.127548
    74  H    0.114021
    75  H    0.113919
    76  H    0.097163
    77  H    0.127568
    78  H    0.132462
    79  H    0.087964
    80  H    0.113132
    81  H    0.091695
    82  H    0.097265
    83  H    0.099410
    84  H    0.119980
    85  H    0.107626
    86  H    0.142129
    87  H    0.105315
    88  H    0.114681
    89  H    0.102839
    90  H    0.082799
    91  H    0.104444
    92  H    0.132420
    93  H    0.151422
    94  H    0.103559
    95  H    0.167318
    96  H    0.108063
    97  H    0.151628
    98  H    0.118654
    99  H    0.102082
   100  H    0.129230
   101  H    0.097341
   102  H    0.102793
   103  H    0.128810
   104  H    0.113524
   105  H    0.111458
   106  H    0.099838
   107  H    0.113477
   108  H    0.077433
   109  H    0.097049
   110  H    0.074527
   111  H    0.079453
   112  H    0.096796
   113  H    0.114783
   114  H    0.087138
   115  H    0.072537
   116  H    0.096421
   117  H    0.093225
   118  H    0.086298
   119  H    0.088728
   120  H    0.081880
   121  H    0.083829
   122  H    0.113926
   123  H    0.073762
   124  H    0.110048
   125  H    0.092112
   126  H    0.085040
   127  H    0.103503
   128  H    0.096829
   129  H    0.078561
   130  H    0.076073
   131  H    0.086520
   132  H    0.117790
   133  H    0.096058
   134  H    0.086011
   135  H    0.113667
   136  H    0.066877
   137  H    0.072859
 Sum of Mulliken charges =  -0.00000

 Dipole moment (field-independent basis, Debye):
    X=              4.1053    Y=              3.8077    Z=              0.1918  Tot=              5.6026
 Quadrupole moment (field-independent basis, Debye-Ang):
   XX=           -350.9334   YY=           -397.4719   ZZ=           -397.1743
   XY=            -21.5874   XZ=             11.6208   YZ=             -2.6201

 Normal termination of Gaussian 16 at Sat Jun 29 12:39:17 2019.
