 Gaussian 09, Revision D.01,
 Gaussian 09:  ES64L-G09RevD.01 24-Apr-2013

 -------------------------------------
 # td=(NStates=1) CAM-B3LYP/6-31G(d,p)
 -------------------------------------

 --
 TD
 --
 Symbolic Z-matrix:
 Charge =  0 Multiplicity = 1

                         Standard orientation:
 ---------------------------------------------------------------------
 Center     Atomic      Atomic             Coordinates (Angstroms)
 Number     Number       Type             X           Y           Z
 ---------------------------------------------------------------------
      1         12           0       -7.243118    0.620449    0.197426
      2          6           0       -4.800930   -1.994040    0.460529
      3          6           0       -4.880985    2.795811    1.213009
      4          6           0       -9.429509    3.107150   -0.457248
      5          6           0       -9.552860   -1.722093   -0.968250
      6          7           0       -5.188248    0.474181    0.839588
      7          6           0       -4.343710   -0.752037    0.819984
      8          6           0       -2.891644   -0.355255    1.355476
      9          6           0       -3.120713    1.132592    1.812556
     10          6           0       -4.445036    1.492226    1.171757
     11          6           0       -3.106924    1.289411    3.356643
     12          6           0       -1.975954   -0.574899    0.046901
     13          6           0       -0.507278   -0.355181    0.444524
     14          6           0        0.509194   -0.645765   -0.665246
     15          8           0        0.262941   -0.981333   -1.753703
     16          8           0        1.847541   -0.413295   -0.239997
     17          7           0       -7.163700    2.588517    0.370845
     18          6           0       -6.039040    3.316333    0.842272
     19          6           0       -6.376403    4.683656    0.723706
     20          6           0       -7.671920    4.832623    0.239404
     21          6           0       -8.155421    3.433576    0.021987
     22          6           0       -5.435476    5.842624    0.994905
     23          6           0       -8.482425    6.042662    0.169103
     24          6           0       -8.336473    7.238938    0.762874
     25          7           0       -9.096191    0.712874   -0.387376
     26          6           0       -9.924114    1.764024   -0.642891
     27          6           0      -11.232231    1.401382   -1.156629
     28          6           0      -11.155613    0.024248   -1.260106
     29          6           0       -9.886657   -0.409099   -0.836841
     30          6           0      -12.208342    2.371536   -1.521056
     31          6           0      -12.277487   -0.738486   -1.764344
     32          6           0      -12.267534   -0.932613   -3.252065
     33          7           0       -7.250165   -1.358418   -0.255483
     34          6           0       -8.276133   -2.254739   -0.563001
     35          6           0       -7.880486   -3.649032   -0.477901
     36          6           0       -6.556783   -3.560819   -0.043990
     37          6           0       -6.192802   -2.136972   -0.007742
     38          6           0       -8.652591   -4.838877   -0.827035
     39          6           0       -5.352238   -4.305695    0.229886
     40          8           0       -5.119170   -5.550432    0.149097
     41          6           0       -4.210244   -3.406971    0.529465
     42          6           0       -3.504250   -3.623677    1.890349
     43          8           0       -3.618233   -2.925876    2.936581
     44          8           0       -2.766949   -4.761562    1.856776
     45          6           0       -2.279107   -5.207590    3.066555
     46          6           0        2.767082   -0.669459   -1.244944
     47          6           0        4.073938   -0.489127   -0.621205
     48          6           0        5.136740    0.397667   -0.950448
     49          6           0        5.059804    1.192899   -2.247702
     50          6           0        6.439108    0.392295   -0.166278
     51          6           0        7.705205   -0.249328   -0.952109
     52          6           0        9.012794   -0.225720   -0.132038
     53          6           0       10.264400   -0.618604   -0.912508
     54          6           0       10.073507   -2.084205   -1.379161
     55          6           0       11.454995   -0.405963   -0.082281
     56          6           0       12.876272   -0.586426   -0.754004
     57          6           0       13.953326   -0.252312    0.239318
     58          6           0       15.337880   -0.134111   -0.529093
     59          6           0       15.621234   -1.621377   -0.814489
     60          6           0       16.433687    0.369859    0.356754
     61          6           0       17.811371    0.534189   -0.170164
     62          6           0       18.786877    1.390923    0.761876
     63          6           0       20.252855    1.444229    0.214944
     64          6           0       20.422798    2.153390   -1.019852
     65          6           0       21.001604    1.994608    1.357806
     66          1           0       -4.037005    3.447522    1.474542
     67          1           0      -10.193843    3.859838   -0.530183
     68          1           0      -10.279081   -2.474496   -1.098520
     69          1           0       -2.713947   -1.020557    2.147444
     70          1           0       -2.407743    1.941706    1.599497
     71          1           0       -2.120268    0.885128    3.602592
     72          1           0       -3.128312    2.161226    3.782256
     73          1           0       -3.640195    0.691678    3.988990
     74          1           0       -1.978433   -1.547843   -0.397160
     75          1           0       -2.313114    0.066827   -0.814982
     76          1           0       -0.223563    0.840046    0.675846
     77          1           0       -0.074130   -0.602510    1.452364
     78          1           0       -5.601026    6.889154    0.497765
     79          1           0       -5.695762    6.155424    1.949721
     80          1           0       -4.483127    5.564668    1.059622
     81          1           0       -9.211499    5.980418   -0.524993
     82          1           0       -8.932942    7.948436    0.296132
     83          1           0       -7.586993    7.424299    1.269493
     84          1           0      -12.090390    2.923535   -2.459383
     85          1           0      -13.115763    1.671669   -1.508300
     86          1           0      -12.312740    3.056266   -0.630225
     87          1           0      -12.183672   -1.677653   -1.316731
     88          1           0      -13.253215   -0.284410   -1.550007
     89          1           0      -13.185438   -1.608283   -3.545609
     90          1           0      -12.380413   -0.109977   -3.914304
     91          1           0      -11.228782   -1.423428   -3.571505
     92          1           0       -8.848505   -4.983665   -2.002291
     93          1           0       -8.173319   -5.756974   -0.421165
     94          1           0       -9.691320   -4.842434   -0.295266
     95          1           0       -3.523316   -3.815794   -0.185329
     96          1           0       -1.685287   -4.209058    3.423439
     97          1           0       -2.876968   -5.416685    3.831564
     98          1           0       -1.547681   -5.995678    2.849615
     99          1           0        2.604522   -1.711174   -1.512632
    100          1           0        2.742280   -0.167087   -2.084204
    101          1           0        4.167362   -0.968473    0.316579
    102          1           0        4.093012    1.334422   -2.679067
    103          1           0        5.018136    2.288077   -1.954031
    104          1           0        5.621008    0.911030   -3.109754
    105          1           0        6.891356    1.492601    0.010026
    106          1           0        6.475535    0.114746    0.895522
    107          1           0        7.407888   -1.223069   -1.375077
    108          1           0        7.807951    0.241544   -1.940607
    109          1           0        9.207337    0.860268    0.272691
    110          1           0        8.958045   -1.031592    0.765828
    111          1           0       10.037679   -0.129749   -1.916818
    112          1           0        9.234044   -2.260621   -2.044960
    113          1           0       10.903293   -2.541699   -1.995729
    114          1           0       10.178749   -2.823343   -0.590747
    115          1           0       11.532031    0.530169    0.614288
    116          1           0       11.232294   -0.993705    0.793977
    117          1           0       13.003304   -1.675975   -0.952948
    118          1           0       12.907938   -0.029757   -1.510151
    119          1           0       13.628674    0.841466    0.587179
    120          1           0       14.129472   -0.606848    1.203295
    121          1           0       15.285302    0.709250   -1.296675
    122          1           0       15.494813   -2.152570   -0.007934
    123          1           0       14.926715   -2.139982   -1.670971
    124          1           0       16.716647   -2.004326   -1.195218
    125          1           0       16.212134    1.430519    0.475866
    126          1           0       16.505856   -0.207730    1.532773
    127          1           0       18.280031   -0.526380   -0.526298
    128          1           0       17.600486    0.980841   -1.171826
    129          1           0       18.383167    2.510870    0.739569
    130          1           0       18.896781    0.883557    1.670502
    131          1           0       20.624647    0.383126   -0.200800
    132          1           0       20.155581    3.382371   -0.958219
    133          1           0       21.407138    2.082024   -1.380426
    134          1           0       20.051474    1.722249   -2.041093
    135          1           0       21.078974    1.471784    2.315666
    136          1           0       22.094021    1.944953    1.210702
    137          1           0       20.666480    3.004073    1.672877
 ---------------------------------------------------------------------

 SCF Done:  E(RCAM-B3LYP) =  -2932.59772245     A.U. after   17 cycles

 Excitation energies and oscillator strengths:

 Excited State   1:      Singlet-A      2.0882 eV  593.75 nm  f=0.2546  <S**2>=0.000
     240 -> 242       -0.11305
     240 -> 243        0.19478
     241 -> 242        0.65651
 This state for optimization and/or second-order correction.
 Total Energy, E(TD-HF/TD-KS) =  -2932.52098416
 Copying the excited state density for this state as the 1-particle RhoCI density.

 The electronic state is 1-A.
 Alpha  occ. eigenvalues --  -46.83096 -19.27176 -19.24725 -19.22162 -19.21785
 Alpha  occ. eigenvalues --  -19.18394 -14.42324 -14.40041 -14.39300 -14.39010
 Alpha  occ. eigenvalues --  -10.40713 -10.39296 -10.33991 -10.31253 -10.31161
 Alpha  occ. eigenvalues --  -10.30845 -10.30329 -10.30296 -10.29588 -10.29436
 Alpha  occ. eigenvalues --  -10.29294 -10.29040 -10.28997 -10.28872 -10.28568
 Alpha  occ. eigenvalues --  -10.28530 -10.28424 -10.28317 -10.28312 -10.28210
 Alpha  occ. eigenvalues --  -10.27629 -10.27569 -10.27505 -10.27263 -10.27221
 Alpha  occ. eigenvalues --  -10.27139 -10.26790 -10.26750 -10.26522 -10.26491
 Alpha  occ. eigenvalues --  -10.26436 -10.26424 -10.26288 -10.26034 -10.25917
 Alpha  occ. eigenvalues --  -10.25913 -10.25897 -10.25737 -10.25705 -10.25670
 Alpha  occ. eigenvalues --  -10.25659 -10.25546 -10.25446 -10.25365 -10.25314
 Alpha  occ. eigenvalues --  -10.25274 -10.25227 -10.25186 -10.25166 -10.24819
 Alpha  occ. eigenvalues --  -10.24299 -10.24205 -10.24199 -10.24181 -10.24087
 Alpha  occ. eigenvalues --   -3.12486  -1.87160  -1.86740  -1.86686  -1.19038
 Alpha  occ. eigenvalues --   -1.18828  -1.10930  -1.08318  -1.07307  -1.04105
 Alpha  occ. eigenvalues --   -1.03242  -1.02823  -1.01792  -0.92582  -0.91180
 Alpha  occ. eigenvalues --   -0.90736  -0.90283  -0.89666  -0.89408  -0.89332
 Alpha  occ. eigenvalues --   -0.89228  -0.88517  -0.87978  -0.87257  -0.86374
 Alpha  occ. eigenvalues --   -0.85242  -0.84837  -0.84395  -0.83501  -0.83036
 Alpha  occ. eigenvalues --   -0.81804  -0.81474  -0.80752  -0.79663  -0.78888
 Alpha  occ. eigenvalues --   -0.78238  -0.78030  -0.76816  -0.76767  -0.75646
 Alpha  occ. eigenvalues --   -0.75542  -0.74991  -0.74603  -0.73487  -0.72755
 Alpha  occ. eigenvalues --   -0.71686  -0.70946  -0.70200  -0.69318  -0.69118
 Alpha  occ. eigenvalues --   -0.67816  -0.66342  -0.66132  -0.65737  -0.65280
 Alpha  occ. eigenvalues --   -0.64648  -0.63832  -0.63112  -0.62685  -0.61813
 Alpha  occ. eigenvalues --   -0.61527  -0.61060  -0.60390  -0.60339  -0.59863
 Alpha  occ. eigenvalues --   -0.58785  -0.58586  -0.58411  -0.57296  -0.56894
 Alpha  occ. eigenvalues --   -0.56682  -0.56293  -0.55734  -0.55260  -0.55007
 Alpha  occ. eigenvalues --   -0.54721  -0.54320  -0.54163  -0.53591  -0.53343
 Alpha  occ. eigenvalues --   -0.53095  -0.53021  -0.52670  -0.51920  -0.51779
 Alpha  occ. eigenvalues --   -0.51720  -0.51689  -0.51046  -0.51038  -0.50936
 Alpha  occ. eigenvalues --   -0.50599  -0.50342  -0.50310  -0.49907  -0.49815
 Alpha  occ. eigenvalues --   -0.49436  -0.49154  -0.49071  -0.48695  -0.48404
 Alpha  occ. eigenvalues --   -0.48334  -0.48219  -0.47715  -0.47577  -0.47378
 Alpha  occ. eigenvalues --   -0.47356  -0.46824  -0.46593  -0.46319  -0.45921
 Alpha  occ. eigenvalues --   -0.45715  -0.45560  -0.45470  -0.45278  -0.45074
 Alpha  occ. eigenvalues --   -0.44949  -0.44835  -0.44758  -0.44656  -0.44397
 Alpha  occ. eigenvalues --   -0.44358  -0.44082  -0.43863  -0.43701  -0.43367
 Alpha  occ. eigenvalues --   -0.43096  -0.42892  -0.42514  -0.42307  -0.42169
 Alpha  occ. eigenvalues --   -0.41761  -0.41710  -0.41522  -0.41508  -0.41406
 Alpha  occ. eigenvalues --   -0.40975  -0.40694  -0.40503  -0.40199  -0.39949
 Alpha  occ. eigenvalues --   -0.39747  -0.39735  -0.39459  -0.39266  -0.39180
 Alpha  occ. eigenvalues --   -0.38890  -0.38596  -0.38387  -0.38281  -0.37286
 Alpha  occ. eigenvalues --   -0.37214  -0.36702  -0.36431  -0.36368  -0.36332
 Alpha  occ. eigenvalues --   -0.36003  -0.35651  -0.35584  -0.35433  -0.35316
 Alpha  occ. eigenvalues --   -0.35102  -0.34926  -0.34444  -0.34144  -0.33921
 Alpha  occ. eigenvalues --   -0.33430  -0.33307  -0.32490  -0.31440  -0.29572
 Alpha  occ. eigenvalues --   -0.29051  -0.28220  -0.27998  -0.27598  -0.23809
 Alpha  occ. eigenvalues --   -0.21289
 Alpha virt. eigenvalues --   -0.06565  -0.03073   0.01206   0.03468   0.04519
 Alpha virt. eigenvalues --    0.05187   0.05989   0.06479   0.07070   0.07435
 Alpha virt. eigenvalues --    0.07972   0.10578   0.11227   0.11840   0.12031

 Mulliken charges:
               1
     1  Mg   0.825000
     2  C    0.065834
     3  C   -0.230356
     4  C   -0.207139
     5  C   -0.156702
     6  N   -0.616475
     7  C    0.212719
     8  C   -0.153623
     9  C   -0.139704
    10  C    0.396357
    11  C   -0.321240
    12  C   -0.176360
    13  C   -0.275908
    14  C    0.609856
    15  O   -0.429864
    16  O   -0.506696
    17  N   -0.770559
    18  C    0.378735
    19  C   -0.008750
    20  C   -0.008793
    21  C    0.360741
    22  C   -0.369581
    23  C   -0.080413
    24  C   -0.184769
    25  N   -0.715339
    26  C    0.298011
    27  C    0.043980
    28  C    0.039457
    29  C    0.304883
    30  C   -0.372996
    31  C   -0.243116
    32  C   -0.299372
    33  N   -0.699042
    34  C    0.198860
    35  C    0.079962
    36  C   -0.001953
    37  C    0.279657
    38  C   -0.391536
    39  C    0.333542
    40  O   -0.511817
    41  C   -0.265996
    42  C    0.621717
    43  O   -0.497978
    44  O   -0.419531
    45  C   -0.074563
    46  C    0.059848
    47  C   -0.133491
    48  C    0.097674
    49  C   -0.380541
    50  C   -0.224466
    51  C   -0.191606
    52  C   -0.150905
    53  C   -0.054983
    54  C   -0.322169
    55  C   -0.192113
    56  C   -0.132716
    57  C   -0.192921
    58  C   -0.060090
    59  C   -0.293607
    60  C   -0.142872
    61  C   -0.178184
    62  C   -0.150183
    63  C   -0.036127
    64  C   -0.286746
    65  C   -0.317535
    66  H    0.078027
    67  H    0.081815
    68  H    0.099505
    69  H    0.144531
    70  H    0.106062
    71  H    0.105372
    72  H    0.119364
    73  H    0.136151
    74  H    0.136294
    75  H    0.128562
    76  H    0.106747
    77  H    0.146948
    78  H    0.120280
    79  H    0.139854
    80  H    0.114547
    81  H    0.085879
    82  H    0.101512
    83  H    0.069228
    84  H    0.134481
    85  H    0.097691
    86  H    0.118706
    87  H    0.109604
    88  H    0.109903
    89  H    0.086913
    90  H    0.120008
    91  H    0.093153
    92  H    0.117417
    93  H    0.150514
    94  H    0.105576
    95  H    0.180036
    96  H    0.090771
    97  H    0.144433
    98  H    0.123503
    99  H    0.107201
   100  H    0.108297
   101  H    0.086248
   102  H    0.114710
   103  H    0.108403
   104  H    0.128357
   105  H    0.074377
   106  H    0.110053
   107  H    0.103072
   108  H    0.093217
   109  H    0.082890
   110  H    0.071540
   111  H    0.078112
   112  H    0.108509
   113  H    0.087246
   114  H    0.098464
   115  H    0.072374
   116  H    0.095777
   117  H    0.103969
   118  H    0.109818
   119  H    0.055039
   120  H    0.109816
   121  H    0.084517
   122  H    0.128082
   123  H    0.078772
   124  H    0.071119
   125  H    0.089030
   126  H    0.028709
   127  H    0.061995
   128  H    0.085390
   129  H    0.082815
   130  H    0.109574
   131  H    0.072489
   132  H    0.057299
   133  H    0.109757
   134  H    0.092878
   135  H    0.104488
   136  H    0.091469
   137  H    0.105327
 Sum of Mulliken charges =   0.00000

 Dipole moment (field-independent basis, Debye):
    X=              0.1728    Y=              5.1665    Z=              0.8421  Tot=              5.2375
 Quadrupole moment (field-independent basis, Debye-Ang):
   XX=           -336.4388   YY=           -395.8069   ZZ=           -391.6436
   XY=            -27.1290   XZ=             11.4278   YZ=             -3.0956

 Normal termination of Gaussian 09 at Wed Jul  3 21:22:51 2019.
