 Gaussian 09, Revision D.01,
 Gaussian 09:  ES64L-G09RevD.01 24-Apr-2013

 -------------------------------------
 # td=(NStates=1) CAM-B3LYP/6-31G(d,p)
 -------------------------------------

 --
 TD
 --
 Symbolic Z-matrix:
 Charge =  0 Multiplicity = 1

                         Standard orientation:
 ---------------------------------------------------------------------
 Center     Atomic      Atomic             Coordinates (Angstroms)
 Number     Number       Type             X           Y           Z
 ---------------------------------------------------------------------
      1         12           0       -7.117444    0.624212    0.113522
      2          6           0       -4.822018   -1.930589    0.567863
      3          6           0       -4.915373    2.795797    1.283713
      4          6           0       -9.392492    3.079111   -0.396772
      5          6           0       -9.454674   -1.730205   -0.875185
      6          7           0       -5.162111    0.474794    0.806838
      7          6           0       -4.362142   -0.692256    0.834089
      8          6           0       -2.880793   -0.306772    1.277535
      9          6           0       -3.039131    1.048641    1.694463
     10          6           0       -4.438276    1.565120    1.140975
     11          6           0       -3.111068    1.135392    3.197464
     12          6           0       -1.924209   -0.523795    0.137797
     13          6           0       -0.443831   -0.235877    0.523803
     14          6           0        0.551522   -0.532240   -0.550976
     15          8           0        0.208437   -1.032831   -1.635088
     16          8           0        1.816580   -0.325617   -0.221594
     17          7           0       -7.165661    2.577709    0.285472
     18          6           0       -6.159790    3.395160    0.914989
     19          6           0       -6.414574    4.784610    0.923491
     20          6           0       -7.822355    4.810722    0.409852
     21          6           0       -8.173720    3.497218    0.033284
     22          6           0       -5.555381    5.894458    1.247884
     23          6           0       -8.525031    6.004484    0.271082
     24          6           0       -8.432038    7.211793    0.789497
     25          7           0       -9.248988    0.633066   -0.590755
     26          6           0       -9.899290    1.792434   -0.760875
     27          6           0      -11.213395    1.439130   -1.221736
     28          6           0      -11.248925    0.076063   -1.354962
     29          6           0       -9.928232   -0.398953   -0.845047
     30          6           0      -12.297959    2.349926   -1.580037
     31          6           0      -12.368152   -0.846432   -1.904162
     32          6           0      -12.061586   -1.080929   -3.428122
     33          7           0       -7.239770   -1.393251   -0.063020
     34          6           0       -8.193126   -2.187789   -0.411072
     35          6           0       -7.806865   -3.626287   -0.403936
     36          6           0       -6.472452   -3.514628    0.005905
     37          6           0       -6.104546   -2.128114    0.156831
     38          6           0       -8.558777   -4.815338   -0.757777
     39          6           0       -5.360761   -4.363513    0.300140
     40          8           0       -5.396728   -5.602720    0.289995
     41          6           0       -4.160348   -3.367434    0.616981
     42          6           0       -3.457541   -3.726389    1.872325
     43          8           0       -3.516049   -3.151625    2.928520
     44          8           0       -2.744792   -4.895986    1.691520
     45          6           0       -2.068462   -5.318039    2.889830
     46          6           0        2.789633   -0.682654   -1.187793
     47          6           0        4.097319   -0.346452   -0.611635
     48          6           0        5.179096    0.337526   -1.110647
     49          6           0        5.026956    1.219873   -2.338239
     50          6           0        6.510092    0.376048   -0.323931
     51          6           0        7.576302   -0.090233   -1.150018
     52          6           0        8.902048   -0.046672   -0.274587
     53          6           0       10.244868   -0.639681   -1.096551
     54          6           0       10.120927   -2.176269   -1.273767
     55          6           0       11.415731   -0.326234   -0.163913
     56          6           0       12.758480   -0.549094   -0.753197
     57          6           0       13.964975   -0.103897    0.290261
     58          6           0       15.355284   -0.231102   -0.455133
     59          6           0       15.804573   -1.744539   -0.595781
     60          6           0       16.434403    0.324071    0.461282
     61          6           0       17.812249    0.677135   -0.243008
     62          6           0       18.743441    1.257968    0.716115
     63          6           0       20.249735    1.402287    0.232772
     64          6           0       20.328644    2.232773   -1.054234
     65          6           0       21.178711    1.938777    1.355078
     66          1           0       -4.167126    3.575669    1.649612
     67          1           0      -10.063251    3.947061   -0.710509
     68          1           0      -10.144176   -2.510337   -1.372135
     69          1           0       -2.435148   -0.928987    1.928042
     70          1           0       -2.393959    1.824845    1.255380
     71          1           0       -2.137445    1.090816    3.590514
     72          1           0       -3.442374    2.265874    3.709187
     73          1           0       -3.994387    0.408678    3.379931
     74          1           0       -1.799144   -1.590775   -0.105292
     75          1           0       -2.137799    0.242463   -0.718436
     76          1           0       -0.289575    0.787525    0.717667
     77          1           0       -0.134847   -0.872103    1.244533
     78          1           0       -5.568530    6.800166    0.360474
     79          1           0       -5.680142    6.159226    2.282995
     80          1           0       -4.469694    5.644308    1.313414
     81          1           0       -9.576571    5.855496   -0.236441
     82          1           0       -9.264877    7.821962    0.670357
     83          1           0       -7.780948    7.632394    1.574658
     84          1           0      -12.152669    2.763939   -2.621563
     85          1           0      -13.387063    1.846109   -1.601633
     86          1           0      -12.448188    3.140927   -0.692811
     87          1           0      -12.394434   -1.759332   -1.579569
     88          1           0      -13.384448   -0.604842   -1.817680
     89          1           0      -12.705530   -1.762375   -3.799574
     90          1           0      -12.147813   -0.129864   -4.112246
     91          1           0      -11.045972   -1.573062   -3.706955
     92          1           0       -9.205459   -4.503906   -1.719477
     93          1           0       -7.968422   -5.602596   -0.855172
     94          1           0       -9.472889   -4.836218    0.029672
     95          1           0       -3.378455   -3.342883   -0.133025
     96          1           0       -1.501423   -4.636084    3.371991
     97          1           0       -2.854619   -5.731451    3.716355
     98          1           0       -1.457773   -6.075364    2.713636
     99          1           0        2.551625   -1.774075   -1.366347
    100          1           0        2.453820   -0.121700   -1.949909
    101          1           0        4.126103   -0.785657    0.453845
    102          1           0        4.084219    1.168258   -2.794742
    103          1           0        5.343936    2.346410   -2.121078
    104          1           0        5.845317    0.739269   -3.124702
    105          1           0        6.505342    1.423936    0.268613
    106          1           0        6.061123   -0.344617    0.518500
    107          1           0        7.370266   -0.988309   -1.508271
    108          1           0        7.876145    0.452964   -1.949761
    109          1           0        9.244748    0.923805   -0.135690
    110          1           0        8.940917   -0.515265    0.825110
    111          1           0       10.311742   -0.074168   -2.052506
    112          1           0        9.230366   -2.555202   -1.885673
    113          1           0       11.029076   -2.502022   -1.931857
    114          1           0        9.935408   -2.640657   -0.177176
    115          1           0       11.317326    0.910529   -0.041232
    116          1           0       11.264529   -0.655129    1.082983
    117          1           0       12.838942   -1.566266   -0.839040
    118          1           0       12.917220   -0.249771   -1.695350
    119          1           0       13.573852    1.003403    0.365875
    120          1           0       13.852566   -0.600641    1.261098
    121          1           0       15.232932    0.317272   -1.462304
    122          1           0       16.324787   -2.280480    0.296255
    123          1           0       15.079328   -2.372470   -1.082932
    124          1           0       16.819475   -1.823693   -1.322458
    125          1           0       16.098431    1.137973    1.106117
    126          1           0       16.644928   -0.465071    1.215733
    127          1           0       18.245236   -0.231974   -0.915886
    128          1           0       17.604036    1.397107   -0.987957
    129          1           0       18.584705    2.226625    1.128974
    130          1           0       18.799044    0.728214    1.603664
    131          1           0       20.517649    0.526147   -0.109712
    132          1           0       19.797844    3.339727   -0.736802
    133          1           0       21.293599    2.407123   -1.340977
    134          1           0       19.688933    1.850250   -1.922077
    135          1           0       21.023388    1.390150    2.266710
    136          1           0       22.128575    2.178206    0.784792
    137          1           0       20.747073    2.961334    1.558172
 ---------------------------------------------------------------------

 SCF Done:  E(RCAM-B3LYP) =  -2932.57216737     A.U. after   16 cycles

 Excitation energies and oscillator strengths:

 Excited State   1:      Singlet-A      1.9881 eV  623.64 nm  f=0.2885  <S**2>=0.000
     240 -> 243        0.24420
     241 -> 242        0.65728
 This state for optimization and/or second-order correction.
 Total Energy, E(TD-HF/TD-KS) =  -2932.49910703
 Copying the excited state density for this state as the 1-particle RhoCI density.

 The electronic state is 1-A.
 Alpha  occ. eigenvalues --  -46.84507 -19.26470 -19.26373 -19.21617 -19.20785
 Alpha  occ. eigenvalues --  -19.19894 -14.41499 -14.39869 -14.39093 -14.38559
 Alpha  occ. eigenvalues --  -10.39600 -10.38775 -10.35570 -10.31467 -10.31104
 Alpha  occ. eigenvalues --  -10.30041 -10.29813 -10.29710 -10.29669 -10.29582
 Alpha  occ. eigenvalues --  -10.29331 -10.28908 -10.28669 -10.28598 -10.28372
 Alpha  occ. eigenvalues --  -10.28266 -10.28231 -10.27928 -10.27823 -10.27816
 Alpha  occ. eigenvalues --  -10.27736 -10.27599 -10.27536 -10.27497 -10.27319
 Alpha  occ. eigenvalues --  -10.27286 -10.27219 -10.27191 -10.27167 -10.27109
 Alpha  occ. eigenvalues --  -10.27019 -10.26953 -10.26863 -10.26686 -10.26658
 Alpha  occ. eigenvalues --  -10.26547 -10.26542 -10.26287 -10.26203 -10.26127
 Alpha  occ. eigenvalues --  -10.25815 -10.25399 -10.25301 -10.25300 -10.25296
 Alpha  occ. eigenvalues --  -10.25267 -10.25180 -10.25167 -10.25153 -10.25133
 Alpha  occ. eigenvalues --  -10.24792 -10.24509 -10.24186 -10.23559 -10.23211
 Alpha  occ. eigenvalues --   -3.13548  -1.88251  -1.87772  -1.87747  -1.19413
 Alpha  occ. eigenvalues --   -1.17955  -1.10098  -1.09575  -1.07956  -1.06144
 Alpha  occ. eigenvalues --   -1.05214  -1.03126  -1.01396  -0.93632  -0.91919
 Alpha  occ. eigenvalues --   -0.91515  -0.90041  -0.89191  -0.89090  -0.89001
 Alpha  occ. eigenvalues --   -0.88304  -0.87966  -0.87829  -0.87180  -0.86888
 Alpha  occ. eigenvalues --   -0.85795  -0.85046  -0.84061  -0.83052  -0.82862
 Alpha  occ. eigenvalues --   -0.81936  -0.81481  -0.80842  -0.80136  -0.78874
 Alpha  occ. eigenvalues --   -0.78217  -0.77619  -0.76082  -0.75520  -0.75161
 Alpha  occ. eigenvalues --   -0.74988  -0.73775  -0.73732  -0.72951  -0.72673
 Alpha  occ. eigenvalues --   -0.71670  -0.70628  -0.70167  -0.69371  -0.68914
 Alpha  occ. eigenvalues --   -0.67745  -0.67220  -0.65731  -0.65620  -0.65023
 Alpha  occ. eigenvalues --   -0.64290  -0.63816  -0.63638  -0.63171  -0.62343
 Alpha  occ. eigenvalues --   -0.61515  -0.61430  -0.60398  -0.59629  -0.59327
 Alpha  occ. eigenvalues --   -0.59005  -0.58620  -0.58108  -0.57994  -0.57414
 Alpha  occ. eigenvalues --   -0.56168  -0.55977  -0.55736  -0.55185  -0.54864
 Alpha  occ. eigenvalues --   -0.54650  -0.54413  -0.53773  -0.53522  -0.53382
 Alpha  occ. eigenvalues --   -0.53179  -0.52947  -0.52263  -0.51825  -0.51740
 Alpha  occ. eigenvalues --   -0.51618  -0.51418  -0.51274  -0.50992  -0.50777
 Alpha  occ. eigenvalues --   -0.50692  -0.50499  -0.50221  -0.50081  -0.49850
 Alpha  occ. eigenvalues --   -0.49488  -0.49302  -0.48829  -0.48562  -0.48445
 Alpha  occ. eigenvalues --   -0.48089  -0.47809  -0.47641  -0.47453  -0.47181
 Alpha  occ. eigenvalues --   -0.46763  -0.46648  -0.46408  -0.45873  -0.45860
 Alpha  occ. eigenvalues --   -0.45564  -0.45257  -0.45187  -0.45110  -0.44806
 Alpha  occ. eigenvalues --   -0.44602  -0.44553  -0.44501  -0.44243  -0.44167
 Alpha  occ. eigenvalues --   -0.43901  -0.43742  -0.43704  -0.43288  -0.43145
 Alpha  occ. eigenvalues --   -0.43059  -0.42886  -0.42711  -0.42630  -0.42296
 Alpha  occ. eigenvalues --   -0.42212  -0.41865  -0.41748  -0.41446  -0.41338
 Alpha  occ. eigenvalues --   -0.40903  -0.40758  -0.40719  -0.40589  -0.40220
 Alpha  occ. eigenvalues --   -0.39913  -0.39825  -0.39594  -0.39515  -0.39152
 Alpha  occ. eigenvalues --   -0.38808  -0.38638  -0.38564  -0.38060  -0.37726
 Alpha  occ. eigenvalues --   -0.37525  -0.37327  -0.37289  -0.36926  -0.36544
 Alpha  occ. eigenvalues --   -0.36373  -0.36226  -0.36015  -0.35955  -0.35346
 Alpha  occ. eigenvalues --   -0.34870  -0.34780  -0.34389  -0.33653  -0.32875
 Alpha  occ. eigenvalues --   -0.32780  -0.32430  -0.32109  -0.31312  -0.30585
 Alpha  occ. eigenvalues --   -0.29441  -0.29308  -0.27895  -0.26242  -0.22980
 Alpha  occ. eigenvalues --   -0.21416
 Alpha virt. eigenvalues --   -0.07001  -0.03236   0.00697   0.04399   0.05049
 Alpha virt. eigenvalues --    0.05934   0.06009   0.06718   0.07184   0.07751
 Alpha virt. eigenvalues --    0.08639   0.10637   0.11162   0.11255   0.11692

 Mulliken charges:
               1
     1  Mg   0.826479
     2  C    0.070158
     3  C   -0.217728
     4  C   -0.169464
     5  C   -0.173395
     6  N   -0.657721
     7  C    0.270722
     8  C   -0.089268
     9  C   -0.152321
    10  C    0.336630
    11  C   -0.271422
    12  C   -0.178207
    13  C   -0.260118
    14  C    0.579066
    15  O   -0.503173
    16  O   -0.467059
    17  N   -0.733687
    18  C    0.271705
    19  C    0.078279
    20  C    0.020180
    21  C    0.352344
    22  C   -0.388754
    23  C   -0.111375
    24  C   -0.248889
    25  N   -0.645579
    26  C    0.280415
    27  C    0.025508
    28  C    0.004082
    29  C    0.297746
    30  C   -0.380661
    31  C   -0.221034
    32  C   -0.319764
    33  N   -0.718673
    34  C    0.287762
    35  C    0.060815
    36  C   -0.018166
    37  C    0.301063
    38  C   -0.357190
    39  C    0.369129
    40  O   -0.472583
    41  C   -0.317279
    42  C    0.628734
    43  O   -0.460159
    44  O   -0.464684
    45  C   -0.071224
    46  C    0.031275
    47  C   -0.142120
    48  C    0.089949
    49  C   -0.338182
    50  C   -0.208101
    51  C   -0.158449
    52  C   -0.191989
    53  C   -0.079801
    54  C   -0.286990
    55  C   -0.143240
    56  C   -0.190445
    57  C   -0.185090
    58  C   -0.046582
    59  C   -0.310274
    60  C   -0.180602
    61  C   -0.173610
    62  C   -0.166675
    63  C   -0.067043
    64  C   -0.297559
    65  C   -0.315969
    66  H    0.065299
    67  H    0.090747
    68  H    0.093192
    69  H    0.114976
    70  H    0.094817
    71  H    0.118622
    72  H    0.064132
    73  H    0.127813
    74  H    0.113954
    75  H    0.104534
    76  H    0.134553
    77  H    0.137447
    78  H    0.113447
    79  H    0.137011
    80  H    0.113537
    81  H    0.071081
    82  H    0.101137
    83  H    0.105585
    84  H    0.124616
    85  H    0.098161
    86  H    0.100647
    87  H    0.111314
    88  H    0.110656
    89  H    0.109105
    90  H    0.093961
    91  H    0.094078
    92  H    0.109481
    93  H    0.154997
    94  H    0.125533
    95  H    0.178252
    96  H    0.132546
    97  H    0.101774
    98  H    0.125887
    99  H    0.128262
   100  H    0.122429
   101  H    0.085535
   102  H    0.123160
   103  H    0.110209
   104  H    0.086622
   105  H    0.095913
   106  H    0.094371
   107  H    0.118177
   108  H    0.114829
   109  H    0.106426
   110  H    0.075135
   111  H    0.087976
   112  H    0.090686
   113  H    0.093257
   114  H    0.093148
   115  H    0.044842
   116  H    0.062828
   117  H    0.109891
   118  H    0.099585
   119  H    0.082472
   120  H    0.100136
   121  H    0.086533
   122  H    0.107133
   123  H    0.107233
   124  H    0.066983
   125  H    0.088965
   126  H    0.090491
   127  H    0.072862
   128  H    0.105426
   129  H    0.091581
   130  H    0.087286
   131  H    0.097750
   132  H    0.050033
   133  H    0.107356
   134  H    0.099693
   135  H    0.114549
   136  H    0.103201
   137  H    0.094404
 Sum of Mulliken charges =   0.00000

 Dipole moment (field-independent basis, Debye):
    X=              2.4268    Y=              3.1049    Z=             -0.1412  Tot=              3.9433
 Quadrupole moment (field-independent basis, Debye-Ang):
   XX=           -354.5428   YY=           -399.5667   ZZ=           -397.0897
   XY=            -15.2171   XZ=              7.5144   YZ=              1.4072

 Normal termination of Gaussian 09 at Sat Jul  6 12:26:30 2019.
