 Gaussian 09, Revision D.01,
 Gaussian 09:  ES64L-G09RevD.01 24-Apr-2013

 -------------------------------------
 # td=(NStates=1) CAM-B3LYP/6-31G(d,p)
 -------------------------------------

 --
 TD
 --
 Symbolic Z-matrix:
 Charge =  0 Multiplicity = 1

                         Standard orientation:
 ---------------------------------------------------------------------
 Center     Atomic      Atomic             Coordinates (Angstroms)
 Number     Number       Type             X           Y           Z
 ---------------------------------------------------------------------
      1         12           0       -7.045821    0.508888    0.127610
      2          6           0       -4.847690   -1.900178    0.478652
      3          6           0       -4.833533    2.796999    1.128356
      4          6           0       -9.351526    3.036094   -0.387040
      5          6           0       -9.558242   -1.736190   -0.810276
      6          7           0       -5.162571    0.452906    0.822354
      7          6           0       -4.374949   -0.721890    0.752256
      8          6           0       -2.892051   -0.390059    1.173822
      9          6           0       -3.002655    1.104145    1.717992
     10          6           0       -4.412992    1.505198    1.226417
     11          6           0       -2.743623    1.384027    3.141287
     12          6           0       -1.909315   -0.616372    0.127745
     13          6           0       -0.421093   -0.503346    0.546698
     14          6           0        0.518250   -0.694536   -0.518478
     15          8           0        0.255067   -0.796589   -1.764533
     16          8           0        1.695233   -0.439649   -0.032821
     17          7           0       -7.039813    2.600446    0.279847
     18          6           0       -6.052545    3.392421    0.721762
     19          6           0       -6.330656    4.794525    0.658900
     20          6           0       -7.687749    4.843944    0.294316
     21          6           0       -8.156927    3.499439    0.031264
     22          6           0       -5.342349    5.842887    1.116750
     23          6           0       -8.529589    6.088500    0.082033
     24          6           0       -8.435305    7.132001    0.718921
     25          7           0       -9.168208    0.587595   -0.489545
     26          6           0       -9.855844    1.771812   -0.617582
     27          6           0      -11.157083    1.393950   -1.130400
     28          6           0      -11.282559    0.061628   -1.290725
     29          6           0       -9.980180   -0.456124   -0.845925
     30          6           0      -12.186879    2.487642   -1.395954
     31          6           0      -12.446780   -0.698090   -1.936759
     32          6           0      -12.329222   -0.943681   -3.418290
     33          7           0       -7.270438   -1.368079   -0.082900
     34          6           0       -8.276241   -2.253127   -0.553901
     35          6           0       -7.862219   -3.601566   -0.599445
     36          6           0       -6.481763   -3.513719   -0.094676
     37          6           0       -6.272045   -2.131013    0.134885
     38          6           0       -8.550506   -4.786418   -0.993038
     39          6           0       -5.351582   -4.392883    0.235583
     40          8           0       -5.039108   -5.543602    0.036922
     41          6           0       -4.085366   -3.194217    0.510496
     42          6           0       -3.625819   -3.561250    1.882932
     43          8           0       -3.994402   -3.134389    3.016586
     44          8           0       -2.604447   -4.577290    1.716981
     45          6           0       -2.196850   -5.247892    2.818813
     46          6           0        2.696466   -0.695393   -1.055758
     47          6           0        4.028729   -0.526955   -0.362527
     48          6           0        5.019511    0.167935   -0.771919
     49          6           0        5.012259    1.169301   -1.967361
     50          6           0        6.324704    0.140542   -0.075392
     51          6           0        7.617943   -0.224540   -0.779715
     52          6           0        8.820889   -0.331549    0.006566
     53          6           0       10.163190   -0.634470   -0.681845
     54          6           0       10.195806   -2.062065   -1.200299
     55          6           0       11.384978   -0.406798    0.081003
     56          6           0       12.824506   -0.547313   -0.590274
     57          6           0       13.979497   -0.019681    0.248779
     58          6           0       15.362111   -0.212078   -0.514722
     59          6           0       15.625017   -1.681210   -0.900520
     60          6           0       16.415948    0.423678    0.301445
     61          6           0       17.727979    0.726123   -0.414441
     62          6           0       18.780056    1.326748    0.532069
     63          6           0       20.220043    1.368097    0.032198
     64          6           0       20.376627    2.138978   -1.262705
     65          6           0       21.133462    2.027062    1.109522
     66          1           0       -3.958039    3.435940    1.237157
     67          1           0      -10.132574    3.699823   -0.706846
     68          1           0      -10.433029   -2.326258   -1.234707
     69          1           0       -2.634698   -1.081234    2.231680
     70          1           0       -2.177922    1.553261    1.292165
     71          1           0       -1.926041    0.828112    3.485028
     72          1           0       -2.728531    2.533342    3.449066
     73          1           0       -3.587244    0.869763    3.614640
     74          1           0       -2.181354   -1.587233   -0.315595
     75          1           0       -1.829317    0.005654   -0.865667
     76          1           0       -0.253560    0.724932    0.737614
     77          1           0       -0.145711   -1.069652    1.510126
     78          1           0       -5.634902    6.894448    0.925594
     79          1           0       -5.241162    5.709644    2.201073
     80          1           0       -4.405332    5.579874    0.824031
     81          1           0       -9.204966    5.949284   -0.654653
     82          1           0       -9.110977    7.985499    0.592812
     83          1           0       -7.598486    7.236661    1.483238
     84          1           0      -11.893617    3.198650   -2.098185
     85          1           0      -13.184492    1.957419   -1.408305
     86          1           0      -12.009474    3.137360   -0.377502
     87          1           0      -12.562935   -1.630800   -1.389971
     88          1           0      -13.344798   -0.053170   -1.667259
     89          1           0      -13.216790   -1.410054   -3.680992
     90          1           0      -12.407233    0.205166   -3.773432
     91          1           0      -11.461100   -1.424787   -3.689699
     92          1           0       -9.330027   -4.773607   -1.713399
     93          1           0       -7.803173   -5.632527   -1.069481
     94          1           0       -9.238619   -5.119435   -0.072852
     95          1           0       -3.381026   -3.485314   -0.296996
     96          1           0       -1.866874   -4.323594    3.788359
     97          1           0       -3.072819   -5.996447    3.333807
     98          1           0       -1.138952   -5.748743    2.408879
     99          1           0        2.360557   -1.682513   -1.663423
    100          1           0        2.624989    0.097813   -1.714248
    101          1           0        4.398664   -1.041519    0.472412
    102          1           0        4.016678    1.070077   -2.529684
    103          1           0        5.387878    2.193765   -1.554485
    104          1           0        5.671633    0.634719   -2.601438
    105          1           0        6.453182    1.462651    0.523572
    106          1           0        6.449936   -0.515881    1.030376
    107          1           0        7.386258   -1.226549   -1.408212
    108          1           0        7.827093    0.648274   -1.714597
    109          1           0        8.868351    0.544897    0.569225
    110          1           0        8.529118   -1.184793    0.899333
    111          1           0       10.137227    0.121480   -1.594350
    112          1           0        9.346953   -2.210349   -1.797166
    113          1           0       11.103026   -2.250679   -1.886998
    114          1           0       10.149477   -2.805403   -0.207428
    115          1           0       11.252043    0.738257    0.638143
    116          1           0       11.336250   -1.001034    1.035957
    117          1           0       12.755738   -1.718906   -0.554556
    118          1           0       12.890385   -0.030304   -1.727297
    119          1           0       13.835449    1.138908    0.651476
    120          1           0       14.053427   -0.455978    1.228970
    121          1           0       15.255218    0.500342   -1.363770
    122          1           0       15.698279   -2.303465   -0.029428
    123          1           0       14.669167   -1.836579   -1.695579
    124          1           0       16.461411   -1.969213   -1.510152
    125          1           0       16.180046    1.427346    0.733425
    126          1           0       16.584449   -0.067521    1.259320
    127          1           0       18.187945   -0.281222   -0.971081
    128          1           0       17.565117    1.440312   -1.298818
    129          1           0       18.362758    2.384899    0.864040
    130          1           0       18.986156    0.752078    1.440454
    131          1           0       20.581512    0.422533   -0.127305
    132          1           0       20.139761    3.052641   -1.023369
    133          1           0       21.527767    2.291065   -1.519274
    134          1           0       19.832224    1.759833   -2.053863
    135          1           0       21.262032    1.442175    2.087162
    136          1           0       22.183242    1.914741    0.875202
    137          1           0       20.897248    2.982118    1.264065
 ---------------------------------------------------------------------

 SCF Done:  E(RCAM-B3LYP) =  -2932.53145077     A.U. after   17 cycles

 Excitation energies and oscillator strengths:

 Excited State   1:      Singlet-A      2.1704 eV  571.25 nm  f=0.2522  <S**2>=0.000
     240 -> 243       -0.21590
     241 -> 242        0.65918
 This state for optimization and/or second-order correction.
 Total Energy, E(TD-HF/TD-KS) =  -2932.45169007
 Copying the excited state density for this state as the 1-particle RhoCI density.

 The electronic state is 1-A.
 Alpha  occ. eigenvalues --  -46.84100 -19.27282 -19.24944 -19.21617 -19.21018
 Alpha  occ. eigenvalues --  -19.20362 -14.40817 -14.39996 -14.39537 -14.39379
 Alpha  occ. eigenvalues --  -10.39470 -10.38956 -10.36420 -10.33965 -10.32541
 Alpha  occ. eigenvalues --  -10.30937 -10.30927 -10.30338 -10.30308 -10.29619
 Alpha  occ. eigenvalues --  -10.29434 -10.29294 -10.29162 -10.28969 -10.28938
 Alpha  occ. eigenvalues --  -10.28930 -10.28860 -10.28457 -10.28416 -10.28360
 Alpha  occ. eigenvalues --  -10.28286 -10.28196 -10.28076 -10.27425 -10.27314
 Alpha  occ. eigenvalues --  -10.27259 -10.27210 -10.27031 -10.27004 -10.26952
 Alpha  occ. eigenvalues --  -10.26938 -10.26611 -10.26586 -10.26538 -10.26524
 Alpha  occ. eigenvalues --  -10.26491 -10.26469 -10.26350 -10.26269 -10.26133
 Alpha  occ. eigenvalues --  -10.26069 -10.25997 -10.25888 -10.25785 -10.25763
 Alpha  occ. eigenvalues --  -10.25682 -10.25618 -10.25440 -10.25406 -10.24947
 Alpha  occ. eigenvalues --  -10.24708 -10.24662 -10.24332 -10.23511 -10.22606
 Alpha  occ. eigenvalues --   -3.13339  -1.88020  -1.87638  -1.87495  -1.20231
 Alpha  occ. eigenvalues --   -1.15157  -1.11883  -1.07167  -1.06696  -1.05716
 Alpha  occ. eigenvalues --   -1.03473  -1.02879  -1.01913  -0.92596  -0.91937
 Alpha  occ. eigenvalues --   -0.91087  -0.90385  -0.90299  -0.90124  -0.89797
 Alpha  occ. eigenvalues --   -0.88870  -0.88742  -0.88681  -0.87775  -0.86967
 Alpha  occ. eigenvalues --   -0.85874  -0.85374  -0.84201  -0.83939  -0.83135
 Alpha  occ. eigenvalues --   -0.82328  -0.81199  -0.80440  -0.79754  -0.79019
 Alpha  occ. eigenvalues --   -0.78538  -0.77831  -0.76534  -0.76301  -0.75809
 Alpha  occ. eigenvalues --   -0.75304  -0.74498  -0.74096  -0.73549  -0.73048
 Alpha  occ. eigenvalues --   -0.71010  -0.70495  -0.69624  -0.69090  -0.68048
 Alpha  occ. eigenvalues --   -0.67323  -0.66102  -0.65667  -0.64526  -0.63377
 Alpha  occ. eigenvalues --   -0.63335  -0.63207  -0.62727  -0.62391  -0.61398
 Alpha  occ. eigenvalues --   -0.61306  -0.60789  -0.59964  -0.59552  -0.59039
 Alpha  occ. eigenvalues --   -0.58604  -0.58482  -0.58327  -0.57393  -0.56475
 Alpha  occ. eigenvalues --   -0.56229  -0.55702  -0.55199  -0.54946  -0.54170
 Alpha  occ. eigenvalues --   -0.54062  -0.53895  -0.53434  -0.53261  -0.53159
 Alpha  occ. eigenvalues --   -0.52998  -0.52563  -0.52323  -0.52134  -0.51951
 Alpha  occ. eigenvalues --   -0.51544  -0.51134  -0.50993  -0.50941  -0.50642
 Alpha  occ. eigenvalues --   -0.50455  -0.50435  -0.50348  -0.50056  -0.49968
 Alpha  occ. eigenvalues --   -0.49689  -0.49182  -0.49014  -0.48908  -0.48780
 Alpha  occ. eigenvalues --   -0.48301  -0.48229  -0.48037  -0.47706  -0.47358
 Alpha  occ. eigenvalues --   -0.47193  -0.46862  -0.46600  -0.46162  -0.46146
 Alpha  occ. eigenvalues --   -0.46000  -0.45869  -0.45773  -0.45739  -0.45607
 Alpha  occ. eigenvalues --   -0.45521  -0.44984  -0.44687  -0.44422  -0.44198
 Alpha  occ. eigenvalues --   -0.44083  -0.43954  -0.43894  -0.43663  -0.43328
 Alpha  occ. eigenvalues --   -0.43109  -0.42849  -0.42542  -0.42390  -0.42334
 Alpha  occ. eigenvalues --   -0.41876  -0.41432  -0.41378  -0.41292  -0.41055
 Alpha  occ. eigenvalues --   -0.40692  -0.40500  -0.40103  -0.39908  -0.39822
 Alpha  occ. eigenvalues --   -0.39702  -0.39241  -0.39180  -0.39107  -0.38865
 Alpha  occ. eigenvalues --   -0.38806  -0.38358  -0.38210  -0.37758  -0.37757
 Alpha  occ. eigenvalues --   -0.37420  -0.37263  -0.37191  -0.36743  -0.36687
 Alpha  occ. eigenvalues --   -0.36466  -0.35939  -0.35727  -0.35499  -0.34986
 Alpha  occ. eigenvalues --   -0.34771  -0.34109  -0.33826  -0.33487  -0.33260
 Alpha  occ. eigenvalues --   -0.33146  -0.32697  -0.32537  -0.31804  -0.30805
 Alpha  occ. eigenvalues --   -0.29637  -0.29063  -0.28763  -0.28226  -0.23496
 Alpha  occ. eigenvalues --   -0.22546
 Alpha virt. eigenvalues --   -0.07216  -0.02198   0.01477   0.04223   0.04592
 Alpha virt. eigenvalues --    0.05359   0.05483   0.05935   0.06888   0.07371
 Alpha virt. eigenvalues --    0.08511   0.09649   0.10380   0.10843   0.11420

 Mulliken charges:
               1
     1  Mg   0.825838
     2  C    0.065719
     3  C   -0.240815
     4  C   -0.186634
     5  C   -0.160464
     6  N   -0.688841
     7  C    0.302139
     8  C   -0.152149
     9  C   -0.129365
    10  C    0.360553
    11  C   -0.306116
    12  C   -0.169388
    13  C   -0.276533
    14  C    0.637275
    15  O   -0.531004
    16  O   -0.441848
    17  N   -0.694768
    18  C    0.354964
    19  C    0.037633
    20  C   -0.053860
    21  C    0.319982
    22  C   -0.366670
    23  C    0.008813
    24  C   -0.256542
    25  N   -0.682508
    26  C    0.320335
    27  C   -0.004001
    28  C    0.032800
    29  C    0.266882
    30  C   -0.364731
    31  C   -0.247126
    32  C   -0.279309
    33  N   -0.755505
    34  C    0.204333
    35  C    0.118679
    36  C   -0.068075
    37  C    0.407347
    38  C   -0.407724
    39  C    0.345181
    40  O   -0.431110
    41  C   -0.350091
    42  C    0.640976
    43  O   -0.492229
    44  O   -0.444135
    45  C   -0.035332
    46  C    0.006360
    47  C   -0.112088
    48  C    0.116435
    49  C   -0.349939
    50  C   -0.178276
    51  C   -0.137341
    52  C   -0.145807
    53  C   -0.039861
    54  C   -0.296772
    55  C   -0.167937
    56  C   -0.165350
    57  C   -0.165354
    58  C   -0.054339
    59  C   -0.299896
    60  C   -0.170446
    61  C   -0.170327
    62  C   -0.151539
    63  C   -0.071235
    64  C   -0.296076
    65  C   -0.324472
    66  H    0.063966
    67  H    0.074494
    68  H    0.086076
    69  H    0.100499
    70  H    0.104982
    71  H    0.118274
    72  H    0.098969
    73  H    0.120672
    74  H    0.121047
    75  H    0.122169
    76  H    0.122452
    77  H    0.134476
    78  H    0.122681
    79  H    0.134110
    80  H    0.133309
    81  H    0.088032
    82  H    0.104672
    83  H    0.093870
    84  H    0.137890
    85  H    0.110703
    86  H    0.095542
    87  H    0.103208
    88  H    0.097952
    89  H    0.120284
    90  H    0.090642
    91  H    0.123485
    92  H    0.133211
    93  H    0.151714
    94  H    0.118124
    95  H    0.170151
    96  H    0.051822
    97  H    0.101716
    98  H    0.099385
    99  H    0.139815
   100  H    0.131922
   101  H    0.081688
   102  H    0.104060
   103  H    0.123046
   104  H    0.137346
   105  H    0.009775
   106  H    0.070798
   107  H    0.085559
   108  H    0.057016
   109  H    0.111506
   110  H    0.047803
   111  H    0.073190
   112  H    0.108136
   113  H    0.102875
   114  H    0.076630
   115  H    0.030634
   116  H    0.091543
   117  H    0.112550
   118  H    0.073575
   119  H    0.071517
   120  H    0.098305
   121  H    0.085635
   122  H    0.110054
   123  H    0.081480
   124  H    0.113534
   125  H    0.083833
   126  H    0.087393
   127  H    0.054817
   128  H    0.088017
   129  H    0.069030
   130  H    0.095334
   131  H    0.095796
   132  H    0.111001
   133  H    0.070775
   134  H    0.107243
   135  H    0.083366
   136  H    0.099560
   137  H    0.114953
 Sum of Mulliken charges =   0.00000

 Dipole moment (field-independent basis, Debye):
    X=             -0.3705    Y=              5.1865    Z=             -1.3158  Tot=              5.3637
 Quadrupole moment (field-independent basis, Debye-Ang):
   XX=           -317.3032   YY=           -391.9731   ZZ=           -406.5926
   XY=            -27.0455   XZ=             23.2302   YZ=              6.8668

 Normal termination of Gaussian 09 at Fri Jul  5 04:22:31 2019.
