 Gaussian 16, Revision A.03,
 Gaussian 16:  ES64L-G16RevA.03 25-Dec-2016

 -------------------------------------
 # td=(NStates=1) CAM-B3LYP/6-31G(d,p)
 -------------------------------------

 --
 TD
 --
 Symbolic Z-matrix:
 Charge =  0 Multiplicity = 1

                         Standard orientation:
 ---------------------------------------------------------------------
 Center     Atomic      Atomic             Coordinates (Angstroms)
 Number     Number       Type             X           Y           Z
 ---------------------------------------------------------------------
      1         12           0       -7.203660    0.621010    0.092334
      2          6           0       -4.948834   -2.042587    0.537645
      3          6           0       -4.785521    2.804018    1.024859
      4          6           0       -9.327751    3.271820   -0.462174
      5          6           0       -9.482790   -1.559485   -1.012226
      6          7           0       -5.132514    0.469425    0.666958
      7          6           0       -4.358548   -0.724048    0.874394
      8          6           0       -2.950556   -0.457654    1.278419
      9          6           0       -2.980050    0.971637    1.647100
     10          6           0       -4.368796    1.434145    1.075245
     11          6           0       -3.025672    1.198020    3.205182
     12          6           0       -1.853345   -0.743011    0.189017
     13          6           0       -0.531507   -0.474400    0.521388
     14          6           0        0.507314   -0.724687   -0.580093
     15          8           0        0.290187   -1.145531   -1.722684
     16          8           0        1.826280   -0.658472   -0.039283
     17          7           0       -7.079224    2.655456    0.382596
     18          6           0       -5.991191    3.352724    0.690813
     19          6           0       -6.274509    4.764118    0.751282
     20          6           0       -7.645827    4.983990    0.311373
     21          6           0       -8.046820    3.582993   -0.022343
     22          6           0       -5.327727    5.877416    1.248887
     23          6           0       -8.418765    6.125185    0.042765
     24          6           0       -8.449565    7.262031    0.761646
     25          7           0       -9.051699    0.744522   -0.548807
     26          6           0       -9.886399    1.941900   -0.597625
     27          6           0      -11.279270    1.534819   -0.958859
     28          6           0      -11.269028    0.257799   -1.230072
     29          6           0       -9.931347   -0.182061   -0.998220
     30          6           0      -12.334610    2.632359   -1.151668
     31          6           0      -12.438032   -0.588020   -1.694672
     32          6           0      -12.261111   -0.929314   -3.245060
     33          7           0       -7.234677   -1.287436   -0.161583
     34          6           0       -8.282661   -2.110652   -0.672313
     35          6           0       -7.826111   -3.509993   -0.587397
     36          6           0       -6.544277   -3.492167   -0.186160
     37          6           0       -6.253232   -2.142760    0.084592
     38          6           0       -8.594362   -4.660998   -1.113894
     39          6           0       -5.406428   -4.362676    0.075467
     40          8           0       -5.282357   -5.621472   -0.054491
     41          6           0       -4.246266   -3.358558    0.501221
     42          6           0       -3.719621   -3.810466    1.906730
     43          8           0       -3.896937   -3.263663    2.903361
     44          8           0       -2.938092   -4.878018    1.745338
     45          6           0       -2.463679   -5.542538    2.964124
     46          6           0        2.804899   -0.918779   -1.144297
     47          6           0        4.092809   -0.683138   -0.422470
     48          6           0        5.075963    0.079768   -0.951813
     49          6           0        5.035169    0.997868   -2.080142
     50          6           0        6.410152    0.167194   -0.129709
     51          6           0        7.640287   -0.217791   -0.865117
     52          6           0        9.008958   -0.186263   -0.048511
     53          6           0       10.253151   -0.650383   -0.732465
     54          6           0       10.250043   -2.152733   -1.018048
     55          6           0       11.500639   -0.328933    0.101949
     56          6           0       12.782674   -0.460890   -0.673070
     57          6           0       13.981934    0.054676    0.158992
     58          6           0       15.379975   -0.172430   -0.657309
     59          6           0       15.759132   -1.661206   -0.788016
     60          6           0       16.383419    0.640552    0.263374
     61          6           0       17.858919    0.673157   -0.253351
     62          6           0       18.803593    1.329395    0.650621
     63          6           0       20.226615    1.485385    0.121084
     64          6           0       20.414559    2.334869   -1.175638
     65          6           0       21.225021    2.014009    1.198055
     66          1           0       -4.043621    3.469720    1.511562
     67          1           0      -10.131334    4.051225   -0.318590
     68          1           0      -10.241499   -2.413662   -1.358916
     69          1           0       -2.762643   -1.204133    2.033325
     70          1           0       -2.257635    1.712169    1.155680
     71          1           0       -2.117032    0.902867    3.770402
     72          1           0       -3.127889    2.253299    3.384813
     73          1           0       -3.788317    0.570888    3.839842
     74          1           0       -1.885499   -1.673345   -0.181153
     75          1           0       -2.095429   -0.439479   -0.732913
     76          1           0       -0.274838    0.560116    0.936061
     77          1           0       -0.127506   -0.987975    1.525510
     78          1           0       -5.660544    6.727430    0.789582
     79          1           0       -5.150697    5.938386    2.377146
     80          1           0       -4.310256    5.611324    0.855683
     81          1           0       -9.008896    6.125556   -0.940429
     82          1           0       -8.993832    7.987933    0.544450
     83          1           0       -7.790100    7.294144    1.697355
     84          1           0      -12.051975    3.459410   -1.612231
     85          1           0      -13.265691    2.330291   -1.487185
     86          1           0      -12.587318    3.138513   -0.221234
     87          1           0      -12.367704   -1.622142   -1.045275
     88          1           0      -13.356516   -0.232665   -1.493858
     89          1           0      -13.053303   -1.854508   -3.395812
     90          1           0      -12.450728   -0.058335   -3.844747
     91          1           0      -11.428831   -1.288129   -3.311726
     92          1           0       -9.053994   -4.450238   -2.097633
     93          1           0       -7.948741   -5.522355   -1.059579
     94          1           0       -9.143051   -4.815285   -0.292208
     95          1           0       -3.560163   -3.448544   -0.311260
     96          1           0       -1.942770   -4.762533    3.362100
     97          1           0       -3.364974   -5.978263    3.632820
     98          1           0       -1.907433   -6.209488    2.503992
     99          1           0        2.747563   -2.056006   -1.559001
    100          1           0        2.496932   -0.138332   -1.882228
    101          1           0        4.305771   -1.356426    0.429797
    102          1           0        3.998692    1.102705   -2.529486
    103          1           0        5.323793    1.896733   -2.051956
    104          1           0        5.744393    0.451287   -2.822263
    105          1           0        6.555824    1.104573    0.100345
    106          1           0        6.126285   -0.482565    0.883344
    107          1           0        7.650276   -1.192553   -1.223469
    108          1           0        7.733393    0.462024   -1.754267
    109          1           0        9.163376    0.641475    0.585422
    110          1           0        8.791641   -0.641321    0.916512
    111          1           0       10.325689   -0.100211   -1.788347
    112          1           0        9.259941   -2.325674   -1.561471
    113          1           0       11.081678   -2.601090   -1.590037
    114          1           0       10.152975   -2.841176   -0.133946
    115          1           0       11.420549    0.828110    0.276606
    116          1           0       11.676825   -0.743584    1.168203
    117          1           0       12.987889   -1.523417   -0.740637
    118          1           0       12.743524    0.083845   -1.627762
    119          1           0       13.842919    1.000042    0.268027
    120          1           0       13.972756   -0.577919    1.098867
    121          1           0       15.147766    0.413552   -1.528416
    122          1           0       16.139098   -2.084272    0.216659
    123          1           0       14.976861   -2.154732   -1.201417
    124          1           0       16.689426   -1.887269   -1.340020
    125          1           0       16.149587    1.699758    0.418542
    126          1           0       16.550898    0.315620    1.372928
    127          1           0       18.307035   -0.141961   -0.505956
    128          1           0       17.913278    1.347427   -1.103337
    129          1           0       18.636177    2.325717    0.856123
    130          1           0       19.077429    0.916537    1.656229
    131          1           0       20.720164    0.397765   -0.095898
    132          1           0       20.089590    3.324729   -0.840443
    133          1           0       21.443697    2.450330   -1.370218
    134          1           0       19.560020    2.050065   -2.061787
    135          1           0       21.236212    1.278406    1.933586
    136          1           0       22.140243    1.956168    0.790627
    137          1           0       20.962557    3.101492    1.583922
 ---------------------------------------------------------------------

 SCF Done:  E(RCAM-B3LYP) =  -2932.58545769     A.U. after   18 cycles

 Excitation energies and oscillator strengths:

 Excited State   1:      Singlet-A      1.9828 eV  625.30 nm  f=0.1983  <S**2>=0.000
     240 -> 243        0.25920
     241 -> 242        0.64239
 This state for optimization and/or second-order correction.
 Total Energy, E(TD-HF/TD-DFT) =  -2932.51259087
 Copying the excited state density for this state as the 1-particle RhoCI density.

 The electronic state is 1-A.
 Alpha  occ. eigenvalues --  -46.83105 -19.25440 -19.25312 -19.22139 -19.21557
 Alpha  occ. eigenvalues --  -19.20748 -14.42174 -14.39491 -14.39224 -14.38817
 Alpha  occ. eigenvalues --  -10.40080 -10.38962 -10.35793 -10.32488 -10.31890
 Alpha  occ. eigenvalues --  -10.30865 -10.30766 -10.29188 -10.29049 -10.29038
 Alpha  occ. eigenvalues --  -10.28975 -10.28885 -10.28868 -10.28827 -10.28526
 Alpha  occ. eigenvalues --  -10.28386 -10.28198 -10.28009 -10.27842 -10.27379
 Alpha  occ. eigenvalues --  -10.27349 -10.27198 -10.27195 -10.27106 -10.27087
 Alpha  occ. eigenvalues --  -10.26956 -10.26786 -10.26776 -10.26715 -10.26490
 Alpha  occ. eigenvalues --  -10.26234 -10.25768 -10.25758 -10.25752 -10.25708
 Alpha  occ. eigenvalues --  -10.25631 -10.25437 -10.25418 -10.25343 -10.25317
 Alpha  occ. eigenvalues --  -10.25098 -10.25036 -10.24942 -10.24835 -10.24779
 Alpha  occ. eigenvalues --  -10.24632 -10.24610 -10.24572 -10.24492 -10.24195
 Alpha  occ. eigenvalues --  -10.24193 -10.23857 -10.23821 -10.23407 -10.22702
 Alpha  occ. eigenvalues --   -3.12516  -1.87184  -1.86782  -1.86716  -1.19963
 Alpha  occ. eigenvalues --   -1.15414  -1.11240  -1.08249  -1.07707  -1.05011
 Alpha  occ. eigenvalues --   -1.03922  -1.02778  -1.01590  -0.93002  -0.92323
 Alpha  occ. eigenvalues --   -0.91401  -0.90448  -0.89935  -0.89105  -0.88827
 Alpha  occ. eigenvalues --   -0.88584  -0.87877  -0.87251  -0.86952  -0.85929
 Alpha  occ. eigenvalues --   -0.85143  -0.83926  -0.83614  -0.83422  -0.82632
 Alpha  occ. eigenvalues --   -0.81836  -0.81589  -0.80733  -0.80420  -0.79001
 Alpha  occ. eigenvalues --   -0.78642  -0.77115  -0.76775  -0.76459  -0.75807
 Alpha  occ. eigenvalues --   -0.75400  -0.75099  -0.74468  -0.74021  -0.71935
 Alpha  occ. eigenvalues --   -0.71706  -0.71402  -0.70259  -0.69317  -0.69110
 Alpha  occ. eigenvalues --   -0.67412  -0.67229  -0.65848  -0.65326  -0.64426
 Alpha  occ. eigenvalues --   -0.63601  -0.63022  -0.62773  -0.62502  -0.61335
 Alpha  occ. eigenvalues --   -0.61209  -0.60727  -0.60523  -0.59465  -0.59283
 Alpha  occ. eigenvalues --   -0.58983  -0.57905  -0.57763  -0.57201  -0.56321
 Alpha  occ. eigenvalues --   -0.55934  -0.55544  -0.55312  -0.55084  -0.54672
 Alpha  occ. eigenvalues --   -0.54365  -0.54328  -0.54137  -0.53883  -0.53196
 Alpha  occ. eigenvalues --   -0.52968  -0.52869  -0.52558  -0.52461  -0.52106
 Alpha  occ. eigenvalues --   -0.51908  -0.51767  -0.51493  -0.51078  -0.50472
 Alpha  occ. eigenvalues --   -0.50271  -0.50194  -0.50134  -0.49834  -0.49499
 Alpha  occ. eigenvalues --   -0.49379  -0.49142  -0.48944  -0.48677  -0.48553
 Alpha  occ. eigenvalues --   -0.48327  -0.48087  -0.47842  -0.47543  -0.47485
 Alpha  occ. eigenvalues --   -0.47371  -0.47182  -0.46867  -0.46333  -0.46101
 Alpha  occ. eigenvalues --   -0.45846  -0.45676  -0.45482  -0.45247  -0.45137
 Alpha  occ. eigenvalues --   -0.45104  -0.44845  -0.44439  -0.44431  -0.44187
 Alpha  occ. eigenvalues --   -0.43962  -0.43883  -0.43575  -0.43418  -0.43292
 Alpha  occ. eigenvalues --   -0.43086  -0.42914  -0.42790  -0.42633  -0.42487
 Alpha  occ. eigenvalues --   -0.42429  -0.42149  -0.41938  -0.41793  -0.41532
 Alpha  occ. eigenvalues --   -0.41497  -0.41385  -0.41144  -0.41098  -0.40853
 Alpha  occ. eigenvalues --   -0.40396  -0.40068  -0.39959  -0.39791  -0.39555
 Alpha  occ. eigenvalues --   -0.39196  -0.38732  -0.38317  -0.38087  -0.38026
 Alpha  occ. eigenvalues --   -0.37450  -0.37384  -0.37030  -0.36764  -0.36474
 Alpha  occ. eigenvalues --   -0.36131  -0.35925  -0.35768  -0.35625  -0.35409
 Alpha  occ. eigenvalues --   -0.35275  -0.35040  -0.34792  -0.34439  -0.34285
 Alpha  occ. eigenvalues --   -0.33912  -0.32355  -0.32272  -0.30680  -0.30268
 Alpha  occ. eigenvalues --   -0.29520  -0.29363  -0.29033  -0.26595  -0.22975
 Alpha  occ. eigenvalues --   -0.20157
 Alpha virt. eigenvalues --   -0.05631  -0.03324   0.00581   0.04063   0.04587
 Alpha virt. eigenvalues --    0.06095   0.06666   0.06798   0.07079   0.07897
 Alpha virt. eigenvalues --    0.08485   0.10743   0.11229   0.11728   0.12238

 Mulliken charges:
               1
     1  Mg   0.828130
     2  C    0.020781
     3  C   -0.244553
     4  C   -0.193971
     5  C   -0.218348
     6  N   -0.595171
     7  C    0.258515
     8  C   -0.136709
     9  C   -0.144656
    10  C    0.351580
    11  C   -0.314326
    12  C   -0.173016
    13  C   -0.257987
    14  C    0.611408
    15  O   -0.474775
    16  O   -0.513156
    17  N   -0.687845
    18  C    0.397660
    19  C   -0.034069
    20  C    0.042596
    21  C    0.260468
    22  C   -0.358344
    23  C   -0.115118
    24  C   -0.210948
    25  N   -0.674825
    26  C    0.215118
    27  C    0.017303
    28  C    0.069094
    29  C    0.279555
    30  C   -0.377204
    31  C   -0.235258
    32  C   -0.279821
    33  N   -0.760528
    34  C    0.279565
    35  C   -0.044590
    36  C    0.068556
    37  C    0.353206
    38  C   -0.360879
    39  C    0.352762
    40  O   -0.489185
    41  C   -0.330711
    42  C    0.612705
    43  O   -0.429874
    44  O   -0.470473
    45  C   -0.069277
    46  C    0.014227
    47  C   -0.131088
    48  C    0.115469
    49  C   -0.348498
    50  C   -0.205662
    51  C   -0.179072
    52  C   -0.190180
    53  C   -0.035260
    54  C   -0.309285
    55  C   -0.173246
    56  C   -0.188680
    57  C   -0.170348
    58  C   -0.059617
    59  C   -0.315409
    60  C   -0.182252
    61  C   -0.161873
    62  C   -0.161211
    63  C   -0.080684
    64  C   -0.295884
    65  C   -0.307934
    66  H    0.066848
    67  H    0.095923
    68  H    0.081879
    69  H    0.134338
    70  H    0.117759
    71  H    0.106513
    72  H    0.114715
    73  H    0.120324
    74  H    0.120242
    75  H    0.128723
    76  H    0.128000
    77  H    0.126104
    78  H    0.128282
    79  H    0.115711
    80  H    0.107306
    81  H    0.102896
    82  H    0.091347
    83  H    0.099207
    84  H    0.133100
    85  H    0.114176
    86  H    0.114917
    87  H    0.080042
    88  H    0.110965
    89  H    0.072042
    90  H    0.118191
    91  H    0.124138
    92  H    0.129902
    93  H    0.146529
    94  H    0.144729
    95  H    0.173168
    96  H    0.137061
    97  H    0.123033
    98  H    0.141734
    99  H    0.119180
   100  H    0.128601
   101  H    0.098998
   102  H    0.097963
   103  H    0.131718
   104  H    0.113937
   105  H    0.116108
   106  H    0.067798
   107  H    0.109003
   108  H    0.085731
   109  H    0.087147
   110  H    0.086425
   111  H    0.074358
   112  H    0.084760
   113  H    0.106310
   114  H    0.098389
   115  H    0.065043
   116  H    0.087283
   117  H    0.097347
   118  H    0.086432
   119  H    0.099367
   120  H    0.082856
   121  H    0.092745
   122  H    0.098456
   123  H    0.116261
   124  H    0.105298
   125  H    0.090502
   126  H    0.078973
   127  H    0.099749
   128  H    0.086289
   129  H    0.090369
   130  H    0.076263
   131  H    0.044361
   132  H    0.096443
   133  H    0.110612
   134  H    0.077451
   135  H    0.109364
   136  H    0.111787
   137  H    0.083577
 Sum of Mulliken charges =  -0.00000

 Dipole moment (field-independent basis, Debye):
    X=              1.9146    Y=              3.2979    Z=              1.1964  Tot=              3.9967
 Quadrupole moment (field-independent basis, Debye-Ang):
   XX=           -353.8356   YY=           -391.0575   ZZ=           -395.2955
   XY=            -17.6250   XZ=              7.7411   YZ=             -7.5140

 Normal termination of Gaussian 16 at Sun Jun 30 07:43:32 2019.
