 Gaussian 09, Revision D.01,
 Gaussian 09:  ES64L-G09RevD.01 24-Apr-2013

 -------------------------------------
 # td=(NStates=1) CAM-B3LYP/6-31G(d,p)
 -------------------------------------

 --
 TD
 --
 Symbolic Z-matrix:
 Charge =  0 Multiplicity = 1

                         Standard orientation:
 ---------------------------------------------------------------------
 Center     Atomic      Atomic             Coordinates (Angstroms)
 Number     Number       Type             X           Y           Z
 ---------------------------------------------------------------------
      1         12           0       -7.161338    0.565048    0.012216
      2          6           0       -4.854494   -2.023968    0.343883
      3          6           0       -4.854028    2.860585    1.093953
      4          6           0       -9.431542    3.034213   -0.376738
      5          6           0       -9.475464   -1.776619   -0.888760
      6          7           0       -5.104994    0.439880    0.621648
      7          6           0       -4.442082   -0.778584    0.775375
      8          6           0       -3.048354   -0.450072    1.281866
      9          6           0       -3.044314    1.145871    1.594110
     10          6           0       -4.485396    1.507680    1.157043
     11          6           0       -2.962524    1.240185    3.190179
     12          6           0       -1.994205   -0.617036    0.161383
     13          6           0       -0.541435   -0.493210    0.587612
     14          6           0        0.454852   -0.655523   -0.486728
     15          8           0        0.250056   -1.061019   -1.595057
     16          8           0        1.753335   -0.374416   -0.067764
     17          7           0       -7.177303    2.621199    0.283684
     18          6           0       -6.130195    3.362145    0.767487
     19          6           0       -6.471413    4.791574    0.788045
     20          6           0       -7.838809    4.802477    0.424328
     21          6           0       -8.200291    3.510616    0.005273
     22          6           0       -5.551609    5.890868    1.299388
     23          6           0       -8.762702    5.978749    0.260580
     24          6           0       -8.599949    7.143083    0.895680
     25          7           0       -9.052269    0.575838   -0.591830
     26          6           0       -9.780940    1.798362   -0.729303
     27          6           0      -11.178770    1.446049   -1.200851
     28          6           0      -11.254572    0.051549   -1.376728
     29          6           0       -9.946624   -0.461652   -0.947195
     30          6           0      -12.231976    2.448536   -1.386460
     31          6           0      -12.282015   -0.780006   -1.909893
     32          6           0      -12.236240   -1.085350   -3.424542
     33          7           0       -7.149160   -1.413403   -0.298751
     34          6           0       -8.247705   -2.247518   -0.506353
     35          6           0       -7.781922   -3.602656   -0.467025
     36          6           0       -6.492888   -3.562927   -0.111940
     37          6           0       -6.120304   -2.158193   -0.000719
     38          6           0       -8.598627   -4.929834   -0.628756
     39          6           0       -5.307277   -4.392591    0.253551
     40          8           0       -5.181504   -5.576244    0.211266
     41          6           0       -4.171290   -3.327060    0.581201
     42          6           0       -3.460964   -3.660873    1.842300
     43          8           0       -3.555333   -3.084371    2.945755
     44          8           0       -2.590696   -4.690135    1.723786
     45          6           0       -2.091459   -5.245883    2.997993
     46          6           0        2.790726   -0.613012   -0.933173
     47          6           0        4.131238   -0.256229   -0.282241
     48          6           0        5.051923    0.453735   -0.866358
     49          6           0        5.023157    1.185646   -2.236016
     50          6           0        6.419007    0.580871   -0.236244
     51          6           0        7.645338   -0.079463   -0.961747
     52          6           0        8.933293   -0.140540   -0.095323
     53          6           0       10.210273   -0.573557   -0.849578
     54          6           0       10.044904   -1.966694   -1.319327
     55          6           0       11.485134   -0.338399    0.037283
     56          6           0       12.753391   -0.479888   -0.593254
     57          6           0       13.947401   -0.125101    0.265218
     58          6           0       15.308015   -0.230290   -0.526519
     59          6           0       15.755147   -1.591906   -0.872521
     60          6           0       16.472789    0.481553    0.317284
     61          6           0       17.798681    0.527453   -0.258409
     62          6           0       18.835952    1.193928    0.672501
     63          6           0       20.252365    1.321775    0.100023
     64          6           0       20.388403    2.165678   -1.204560
     65          6           0       21.133198    1.876963    1.267965
     66          1           0       -4.281924    3.412055    1.367683
     67          1           0       -9.971184    3.806058   -0.660270
     68          1           0      -10.368093   -2.362944   -0.949517
     69          1           0       -2.728192   -1.034272    2.131484
     70          1           0       -2.322053    1.846754    1.326027
     71          1           0       -1.965604    0.766022    3.407830
     72          1           0       -3.036514    2.310679    3.575749
     73          1           0       -3.729405    0.773912    3.924400
     74          1           0       -2.125212   -1.611690   -0.244618
     75          1           0       -2.188770   -0.000736   -0.755538
     76          1           0       -0.376220    0.625889    1.083287
     77          1           0       -0.359097   -1.088045    1.389005
     78          1           0       -5.922032    6.744683    0.823806
     79          1           0       -5.324110    6.012410    2.243489
     80          1           0       -4.535580    5.601817    0.856480
     81          1           0       -9.678311    5.954552   -0.275900
     82          1           0       -9.149328    7.934169    0.769271
     83          1           0       -7.833384    7.312632    1.506598
     84          1           0      -12.012826    3.008094   -2.283361
     85          1           0      -13.078687    1.988385   -1.785972
     86          1           0      -12.505062    3.306589   -0.597313
     87          1           0      -12.587884   -1.631657   -1.492372
     88          1           0      -13.185678   -0.343229   -1.611268
     89          1           0      -13.050397   -1.568824   -3.830814
     90          1           0      -11.896548   -0.156092   -3.939972
     91          1           0      -11.341742   -1.471507   -3.500423
     92          1           0       -8.832339   -5.203529   -1.801652
     93          1           0       -7.925848   -5.837976   -0.502317
     94          1           0       -9.532975   -4.915619    0.005903
     95          1           0       -3.619255   -3.435238   -0.305150
     96          1           0       -1.620598   -4.297181    3.484148
     97          1           0       -2.810890   -5.874360    3.558338
     98          1           0       -1.438396   -5.900856    2.621766
     99          1           0        3.073208   -1.590314   -1.501787
    100          1           0        2.832521    0.283796   -1.662274
    101          1           0        4.309857   -0.631223    0.676178
    102          1           0        4.136331    1.838401   -2.684057
    103          1           0        5.739000    2.119192   -2.167174
    104          1           0        5.582663    0.769485   -3.093686
    105          1           0        6.745764    1.798335   -0.141436
    106          1           0        6.274500    0.069592    0.712814
    107          1           0        7.401446   -1.229794   -1.389858
    108          1           0        7.632002    0.577042   -1.873468
    109          1           0        9.018003    0.785785    0.633681
    110          1           0        9.022950   -0.960419    0.760463
    111          1           0       10.442091   -0.055198   -1.618076
    112          1           0        9.437430   -2.290274   -2.158427
    113          1           0       10.962848   -2.180622   -1.825131
    114          1           0        9.904788   -2.767350   -0.464922
    115          1           0       11.402054    0.889556    0.223903
    116          1           0       11.322439   -0.637018    0.934033
    117          1           0       13.097226   -1.444171   -0.992386
    118          1           0       12.794841    0.279382   -1.520113
    119          1           0       13.908227    0.880526    0.516059
    120          1           0       14.111329   -0.704893    1.206743
    121          1           0       14.989260    0.364284   -1.324518
    122          1           0       16.052925   -2.214316    0.122118
    123          1           0       14.971306   -2.281007   -1.316411
    124          1           0       16.639581   -1.597270   -1.521573
    125          1           0       16.137248    1.524159    0.620531
    126          1           0       16.565027   -0.006928    1.286891
    127          1           0       18.039380   -0.381208   -0.649796
    128          1           0       17.745364    0.894293   -1.221299
    129          1           0       18.360021    2.190470    0.875503
    130          1           0       19.007201    0.430384    1.586069
    131          1           0       20.544397    0.292143   -0.039807
    132          1           0       20.041785    3.137514   -1.220891
    133          1           0       21.485054    2.226450   -1.470599
    134          1           0       19.884807    1.598396   -1.920252
    135          1           0       20.867034    1.555288    2.297745
    136          1           0       22.139132    1.844648    0.882463
    137          1           0       20.851523    2.963185    1.204782
 ---------------------------------------------------------------------

 SCF Done:  E(RCAM-B3LYP) =  -2932.55805691     A.U. after   15 cycles

 Excitation energies and oscillator strengths:

 Excited State   1:      Singlet-A      2.0043 eV  618.60 nm  f=0.2727  <S**2>=0.000
     240 -> 243        0.23830
     241 -> 242        0.66224
 This state for optimization and/or second-order correction.
 Total Energy, E(TD-HF/TD-KS) =  -2932.48440088
 Copying the excited state density for this state as the 1-particle RhoCI density.

 The electronic state is 1-A.
 Alpha  occ. eigenvalues --  -46.83293 -19.26321 -19.26048 -19.21840 -19.21535
 Alpha  occ. eigenvalues --  -19.20858 -14.41771 -14.39313 -14.39211 -14.38538
 Alpha  occ. eigenvalues --  -10.40160 -10.39650 -10.36323 -10.31979 -10.31429
 Alpha  occ. eigenvalues --  -10.31417 -10.30770 -10.29326 -10.29188 -10.29042
 Alpha  occ. eigenvalues --  -10.29027 -10.28761 -10.28354 -10.28293 -10.28219
 Alpha  occ. eigenvalues --  -10.28123 -10.27889 -10.27793 -10.27557 -10.27539
 Alpha  occ. eigenvalues --  -10.27456 -10.27347 -10.27080 -10.27004 -10.26991
 Alpha  occ. eigenvalues --  -10.26936 -10.26894 -10.26886 -10.26791 -10.26707
 Alpha  occ. eigenvalues --  -10.26651 -10.26639 -10.26624 -10.25994 -10.25958
 Alpha  occ. eigenvalues --  -10.25669 -10.25660 -10.25554 -10.25195 -10.25137
 Alpha  occ. eigenvalues --  -10.25006 -10.24947 -10.24923 -10.24604 -10.24411
 Alpha  occ. eigenvalues --  -10.24406 -10.24399 -10.24225 -10.24150 -10.24095
 Alpha  occ. eigenvalues --  -10.23930 -10.23550 -10.23460 -10.23404 -10.22338
 Alpha  occ. eigenvalues --   -3.12480  -1.87185  -1.86718  -1.86663  -1.18571
 Alpha  occ. eigenvalues --   -1.17459  -1.13583  -1.10363  -1.07361  -1.05422
 Alpha  occ. eigenvalues --   -1.03131  -1.02336  -1.00042  -0.94475  -0.91609
 Alpha  occ. eigenvalues --   -0.90690  -0.90172  -0.90089  -0.89807  -0.89237
 Alpha  occ. eigenvalues --   -0.88315  -0.88182  -0.87883  -0.87357  -0.85686
 Alpha  occ. eigenvalues --   -0.85354  -0.84799  -0.84440  -0.83595  -0.83152
 Alpha  occ. eigenvalues --   -0.82464  -0.81715  -0.81114  -0.79416  -0.78993
 Alpha  occ. eigenvalues --   -0.78187  -0.77745  -0.77110  -0.76244  -0.75819
 Alpha  occ. eigenvalues --   -0.75558  -0.74906  -0.73909  -0.73454  -0.72844
 Alpha  occ. eigenvalues --   -0.72318  -0.71659  -0.70302  -0.69125  -0.68863
 Alpha  occ. eigenvalues --   -0.67855  -0.66716  -0.66056  -0.65617  -0.64976
 Alpha  occ. eigenvalues --   -0.64704  -0.64376  -0.63361  -0.62995  -0.62479
 Alpha  occ. eigenvalues --   -0.62300  -0.61809  -0.60688  -0.60279  -0.59758
 Alpha  occ. eigenvalues --   -0.59325  -0.59091  -0.58706  -0.58421  -0.57270
 Alpha  occ. eigenvalues --   -0.56732  -0.55935  -0.55649  -0.55370  -0.55032
 Alpha  occ. eigenvalues --   -0.54594  -0.54331  -0.54038  -0.53628  -0.53226
 Alpha  occ. eigenvalues --   -0.53191  -0.52739  -0.52687  -0.52511  -0.52248
 Alpha  occ. eigenvalues --   -0.51720  -0.51428  -0.51230  -0.51079  -0.50884
 Alpha  occ. eigenvalues --   -0.50757  -0.50200  -0.49850  -0.49797  -0.49590
 Alpha  occ. eigenvalues --   -0.49391  -0.49133  -0.49009  -0.48664  -0.48627
 Alpha  occ. eigenvalues --   -0.48375  -0.48219  -0.47815  -0.47690  -0.47499
 Alpha  occ. eigenvalues --   -0.47207  -0.46993  -0.46836  -0.46718  -0.46214
 Alpha  occ. eigenvalues --   -0.46153  -0.45975  -0.45827  -0.45742  -0.45116
 Alpha  occ. eigenvalues --   -0.44903  -0.44762  -0.44695  -0.44573  -0.44491
 Alpha  occ. eigenvalues --   -0.44235  -0.43839  -0.43581  -0.43488  -0.42961
 Alpha  occ. eigenvalues --   -0.42812  -0.42598  -0.42487  -0.42321  -0.42181
 Alpha  occ. eigenvalues --   -0.42062  -0.41980  -0.41749  -0.41522  -0.41421
 Alpha  occ. eigenvalues --   -0.41243  -0.41144  -0.40856  -0.40798  -0.40442
 Alpha  occ. eigenvalues --   -0.39971  -0.39923  -0.39519  -0.39098  -0.38977
 Alpha  occ. eigenvalues --   -0.38631  -0.38136  -0.38101  -0.37923  -0.37617
 Alpha  occ. eigenvalues --   -0.37478  -0.36898  -0.36422  -0.36394  -0.36105
 Alpha  occ. eigenvalues --   -0.35876  -0.35792  -0.35721  -0.35599  -0.35538
 Alpha  occ. eigenvalues --   -0.35077  -0.35005  -0.34320  -0.34033  -0.33952
 Alpha  occ. eigenvalues --   -0.33274  -0.32930  -0.32536  -0.31291  -0.30642
 Alpha  occ. eigenvalues --   -0.30339  -0.29790  -0.27972  -0.26887  -0.23633
 Alpha  occ. eigenvalues --   -0.20826
 Alpha virt. eigenvalues --   -0.06471  -0.02892   0.01235   0.04263   0.04898
 Alpha virt. eigenvalues --    0.05525   0.06444   0.06829   0.07240   0.07258
 Alpha virt. eigenvalues --    0.08230   0.11110   0.11581   0.11781   0.12206

 Mulliken charges:
               1
     1  Mg   0.806307
     2  C    0.044013
     3  C   -0.044262
     4  C   -0.107913
     5  C   -0.162788
     6  N   -0.638821
     7  C    0.303224
     8  C   -0.177687
     9  C   -0.149671
    10  C    0.338116
    11  C   -0.322972
    12  C   -0.176342
    13  C   -0.260000
    14  C    0.615620
    15  O   -0.445845
    16  O   -0.483979
    17  N   -0.700160
    18  C    0.302379
    19  C   -0.017117
    20  C   -0.000046
    21  C    0.259852
    22  C   -0.352663
    23  C   -0.081892
    24  C   -0.226416
    25  N   -0.701383
    26  C    0.294155
    27  C    0.024302
    28  C    0.044892
    29  C    0.242739
    30  C   -0.394148
    31  C   -0.264133
    32  C   -0.305831
    33  N   -0.748252
    34  C    0.265274
    35  C    0.013900
    36  C   -0.005559
    37  C    0.372374
    38  C   -0.374998
    39  C    0.361963
    40  O   -0.423571
    41  C   -0.287365
    42  C    0.622833
    43  O   -0.504747
    44  O   -0.469289
    45  C   -0.073876
    46  C    0.038474
    47  C   -0.165707
    48  C    0.170378
    49  C   -0.394327
    50  C   -0.226856
    51  C   -0.154935
    52  C   -0.160359
    53  C   -0.041172
    54  C   -0.313473
    55  C   -0.155494
    56  C   -0.170636
    57  C   -0.181526
    58  C   -0.063398
    59  C   -0.304376
    60  C   -0.170726
    61  C   -0.183025
    62  C   -0.155679
    63  C   -0.069517
    64  C   -0.317371
    65  C   -0.308378
    66  H   -0.031298
    67  H    0.071165
    68  H    0.091997
    69  H    0.137634
    70  H    0.118549
    71  H    0.099128
    72  H    0.091323
    73  H    0.118959
    74  H    0.109051
    75  H    0.119393
    76  H    0.108341
    77  H    0.152433
    78  H    0.126070
    79  H    0.139039
    80  H    0.101491
    81  H    0.091515
    82  H    0.095139
    83  H    0.094793
    84  H    0.127743
    85  H    0.119779
    86  H    0.115768
    87  H    0.113156
    88  H    0.100114
    89  H    0.114568
    90  H    0.096406
    91  H    0.126194
    92  H    0.101454
    93  H    0.146553
    94  H    0.125843
    95  H    0.190041
    96  H    0.135977
    97  H    0.136663
    98  H    0.136280
    99  H    0.128654
   100  H    0.104235
   101  H    0.090250
   102  H    0.111423
   103  H    0.091238
   104  H    0.130758
   105  H    0.069213
   106  H    0.094445
   107  H    0.074693
   108  H    0.095143
   109  H    0.075398
   110  H    0.076464
   111  H    0.088161
   112  H    0.108381
   113  H    0.099845
   114  H    0.081538
   115  H    0.056156
   116  H    0.097220
   117  H    0.098528
   118  H    0.070589
   119  H    0.097038
   120  H    0.083530
   121  H    0.089196
   122  H    0.079368
   123  H    0.094492
   124  H    0.107788
   125  H    0.069782
   126  H    0.086018
   127  H    0.090503
   128  H    0.088681
   129  H    0.088048
   130  H    0.074314
   131  H    0.090036
   132  H    0.113778
   133  H    0.092137
   134  H    0.112772
   135  H    0.103858
   136  H    0.100758
   137  H    0.092199
 Sum of Mulliken charges =   0.00000

 Dipole moment (field-independent basis, Debye):
    X=              0.2811    Y=              2.5813    Z=              0.0992  Tot=              2.5985
 Quadrupole moment (field-independent basis, Debye-Ang):
   XX=           -336.7188   YY=           -384.4576   ZZ=           -395.9596
   XY=            -14.9080   XZ=              1.4939   YZ=             -4.5857

 Normal termination of Gaussian 09 at Tue Jul  2 11:13:42 2019.
