 Gaussian 09, Revision D.01,
 Gaussian 09:  ES64L-G09RevD.01 24-Apr-2013

 -------------------------------------
 # td=(NStates=1) CAM-B3LYP/6-31G(d,p)
 -------------------------------------

 --
 TD
 --
 Symbolic Z-matrix:
 Charge =  0 Multiplicity = 1

                         Standard orientation:
 ---------------------------------------------------------------------
 Center     Atomic      Atomic             Coordinates (Angstroms)
 Number     Number       Type             X           Y           Z
 ---------------------------------------------------------------------
      1         12           0       -7.081765    0.664061    0.111416
      2          6           0       -4.914751   -1.927832    0.421763
      3          6           0       -4.971909    2.733007    1.263382
      4          6           0       -9.364871    3.128829   -0.460384
      5          6           0       -9.582691   -1.698958   -0.966887
      6          7           0       -5.108612    0.371268    0.711529
      7          6           0       -4.363267   -0.745275    0.797693
      8          6           0       -2.913060   -0.454665    1.194744
      9          6           0       -2.978476    1.075781    1.627598
     10          6           0       -4.379649    1.487655    1.174823
     11          6           0       -2.890450    1.320680    3.097946
     12          6           0       -1.946758   -0.645657    0.002259
     13          6           0       -0.485789   -0.412537    0.556599
     14          6           0        0.584096   -0.774661   -0.491348
     15          8           0        0.208459   -1.114179   -1.613493
     16          8           0        1.768640   -0.386602   -0.114349
     17          7           0       -7.055115    2.615982    0.397652
     18          6           0       -6.066245    3.284129    0.850090
     19          6           0       -6.349661    4.829611    0.794820
     20          6           0       -7.665391    4.854335    0.286950
     21          6           0       -8.076405    3.459999    0.044449
     22          6           0       -5.436143    5.939382    1.173418
     23          6           0       -8.465560    6.058355    0.046037
     24          6           0       -8.367146    7.071433    0.810182
     25          7           0       -9.142279    0.711236   -0.441153
     26          6           0       -9.882183    1.938904   -0.685438
     27          6           0      -11.185111    1.557628   -1.067304
     28          6           0      -11.304786    0.161382   -1.115404
     29          6           0       -9.973278   -0.280810   -0.844551
     30          6           0      -12.157118    2.616383   -1.487649
     31          6           0      -12.337076   -0.743560   -1.644562
     32          6           0      -12.364714   -1.103835   -3.158487
     33          7           0       -7.252422   -1.373575   -0.200602
     34          6           0       -8.294138   -2.186138   -0.592277
     35          6           0       -7.851108   -3.679385   -0.495586
     36          6           0       -6.527478   -3.567895   -0.136198
     37          6           0       -6.204132   -2.131611    0.126528
     38          6           0       -8.696972   -4.869145   -0.768548
     39          6           0       -5.366409   -4.426785    0.177602
     40          8           0       -5.236100   -5.653811    0.108605
     41          6           0       -4.265042   -3.384202    0.530638
     42          6           0       -3.516270   -3.775327    1.829616
     43          8           0       -3.743308   -3.217594    2.872992
     44          8           0       -2.742188   -4.774475    1.692779
     45          6           0       -2.264460   -5.272998    2.872127
     46          6           0        2.858608   -0.727468   -1.137159
     47          6           0        4.178127   -0.390244   -0.458338
     48          6           0        5.117073    0.470911   -0.946719
     49          6           0        4.891615    1.364521   -2.339920
     50          6           0        6.411851    0.595208   -0.306675
     51          6           0        7.598351   -0.089440   -1.025703
     52          6           0        8.972798   -0.201684   -0.225158
     53          6           0       10.209980   -0.603172   -0.863160
     54          6           0       10.107360   -2.061110   -1.340643
     55          6           0       11.369339   -0.377204    0.107992
     56          6           0       12.778455   -0.670817   -0.588858
     57          6           0       13.939697   -0.230446    0.411483
     58          6           0       15.299672   -0.221896   -0.382308
     59          6           0       15.611554   -1.764826   -0.930385
     60          6           0       16.438860    0.286011    0.481758
     61          6           0       17.849381    0.625934   -0.184680
     62          6           0       18.844439    1.335576    0.691469
     63          6           0       20.245287    1.437689    0.210483
     64          6           0       20.360733    2.284235   -1.085372
     65          6           0       21.205200    1.955528    1.202509
     66          1           0       -4.154578    3.385013    1.536627
     67          1           0       -9.838200    3.961812   -0.280970
     68          1           0      -10.282995   -2.470386   -1.282006
     69          1           0       -2.607607   -1.215289    2.111867
     70          1           0       -2.099710    1.676944    0.950145
     71          1           0       -1.772974    0.964499    3.466250
     72          1           0       -3.142500    2.343115    3.361878
     73          1           0       -3.328632    0.755221    3.724611
     74          1           0       -2.160560   -1.606672   -0.508056
     75          1           0       -2.150375    0.033037   -0.842699
     76          1           0       -0.226948    0.565042    0.808968
     77          1           0       -0.525895   -1.051493    1.436000
     78          1           0       -5.718594    6.897367    0.752757
     79          1           0       -5.363109    5.977521    2.309464
     80          1           0       -4.376929    5.731558    0.936308
     81          1           0       -9.086976    6.122420   -0.856055
     82          1           0       -8.915517    8.034214    0.755391
     83          1           0       -8.117811    7.215015    1.945750
     84          1           0      -11.891148    3.232046   -2.341489
     85          1           0      -13.062757    2.076938   -1.748258
     86          1           0      -12.403954    3.433335   -0.844567
     87          1           0      -12.133271   -1.654010   -1.019773
     88          1           0      -13.309860   -0.265735   -1.263502
     89          1           0      -13.171226   -1.684840   -3.516451
     90          1           0      -12.581900   -0.417207   -3.902984
     91          1           0      -11.376668   -1.440284   -3.562476
     92          1           0       -9.112245   -4.830217   -1.776007
     93          1           0       -8.012177   -5.616358   -0.482579
     94          1           0       -9.494560   -4.961874   -0.129220
     95          1           0       -3.497945   -3.622869   -0.295147
     96          1           0       -1.804419   -4.476077    3.584820
     97          1           0       -3.032534   -5.693218    3.596432
     98          1           0       -1.349832   -5.955790    2.556840
     99          1           0        2.808416   -1.763522   -1.379653
    100          1           0        2.768932   -0.189920   -2.069669
    101          1           0        4.574140   -0.884936    0.389157
    102          1           0        3.889835    1.321872   -2.844176
    103          1           0        5.328808    2.296814   -2.012324
    104          1           0        5.659594    0.786885   -3.160492
    105          1           0        6.619453    1.731034   -0.121320
    106          1           0        6.183253    0.248077    0.668376
    107          1           0        7.319344   -1.132798   -1.287038
    108          1           0        7.718791    0.478290   -1.931379
    109          1           0        9.130821    0.861349    0.184291
    110          1           0        8.738235   -0.597796    0.679465
    111          1           0       10.646920    0.204727   -1.720484
    112          1           0        9.273593   -1.949127   -2.128476
    113          1           0       11.027339   -2.384971   -1.832674
    114          1           0        9.975913   -2.837028   -0.557116
    115          1           0       11.306764    0.508378    0.548564
    116          1           0       11.318198   -1.016773    0.916241
    117          1           0       12.863146   -1.624730   -0.912605
    118          1           0       12.867014    0.029125   -1.518523
    119          1           0       13.789359    0.829875    0.557890
    120          1           0       13.971632   -0.866274    1.322269
    121          1           0       15.497247    0.194576   -1.407232
    122          1           0       15.659143   -2.487360   -0.024222
    123          1           0       14.689667   -1.951067   -1.623614
    124          1           0       16.572220   -1.954683   -1.504425
    125          1           0       15.997332    1.181723    0.993421
    126          1           0       16.344114   -0.261424    1.402718
    127          1           0       18.454867   -0.273476   -0.867366
    128          1           0       17.572090    1.126265   -1.309472
    129          1           0       18.510416    2.252204    1.042178
    130          1           0       18.901525    0.784431    1.648581
    131          1           0       20.524781    0.399765   -0.225550
    132          1           0       20.187083    3.253695   -0.851143
    133          1           0       21.211800    2.328853   -1.497939
    134          1           0       19.727144    1.911422   -1.790288
    135          1           0       21.158593    1.349350    2.091446
    136          1           0       22.240602    1.855248    0.971762
    137          1           0       21.138576    3.008175    1.466153
 ---------------------------------------------------------------------

 SCF Done:  E(RCAM-B3LYP) =  -2932.63882812     A.U. after   18 cycles

 Excitation energies and oscillator strengths:

 Excited State   1:      Singlet-A      2.0723 eV  598.29 nm  f=0.2148  <S**2>=0.000
     240 -> 243       -0.24325
     241 -> 242        0.64230
     241 -> 243       -0.11679
 This state for optimization and/or second-order correction.
 Total Energy, E(TD-HF/TD-KS) =  -2932.56267174
 Copying the excited state density for this state as the 1-particle RhoCI density.

 The electronic state is 1-A.
 Alpha  occ. eigenvalues --  -46.84015 -19.28461 -19.27478 -19.20970 -19.20384
 Alpha  occ. eigenvalues --  -19.19927 -14.41415 -14.39435 -14.39045 -14.37983
 Alpha  occ. eigenvalues --  -10.39261 -10.38697 -10.35709 -10.33064 -10.32993
 Alpha  occ. eigenvalues --  -10.30564 -10.30523 -10.29976 -10.29556 -10.29270
 Alpha  occ. eigenvalues --  -10.29243 -10.29055 -10.28995 -10.28856 -10.28824
 Alpha  occ. eigenvalues --  -10.28782 -10.28450 -10.28400 -10.28384 -10.27344
 Alpha  occ. eigenvalues --  -10.27281 -10.27136 -10.26965 -10.26884 -10.26749
 Alpha  occ. eigenvalues --  -10.26749 -10.26723 -10.26691 -10.26652 -10.26631
 Alpha  occ. eigenvalues --  -10.26533 -10.26411 -10.26370 -10.26346 -10.26049
 Alpha  occ. eigenvalues --  -10.25925 -10.25858 -10.25848 -10.25741 -10.25684
 Alpha  occ. eigenvalues --  -10.25606 -10.25551 -10.25467 -10.25254 -10.25190
 Alpha  occ. eigenvalues --  -10.25080 -10.24858 -10.24767 -10.24375 -10.24345
 Alpha  occ. eigenvalues --  -10.24342 -10.24152 -10.23497 -10.23478 -10.20518
 Alpha  occ. eigenvalues --   -3.13088  -1.87796  -1.87317  -1.87275  -1.23482
 Alpha  occ. eigenvalues --   -1.18405  -1.10530  -1.10302  -1.08126  -1.04875
 Alpha  occ. eigenvalues --   -1.03797  -1.02477  -1.00576  -0.92123  -0.91868
 Alpha  occ. eigenvalues --   -0.90652  -0.90387  -0.90075  -0.89280  -0.88627
 Alpha  occ. eigenvalues --   -0.88190  -0.87880  -0.87343  -0.86984  -0.85793
 Alpha  occ. eigenvalues --   -0.84861  -0.84226  -0.83522  -0.83235  -0.82687
 Alpha  occ. eigenvalues --   -0.81450  -0.81244  -0.80835  -0.79604  -0.78552
 Alpha  occ. eigenvalues --   -0.77910  -0.77756  -0.77010  -0.76538  -0.76419
 Alpha  occ. eigenvalues --   -0.75832  -0.74992  -0.74465  -0.73755  -0.72487
 Alpha  occ. eigenvalues --   -0.71968  -0.70931  -0.70305  -0.69648  -0.67862
 Alpha  occ. eigenvalues --   -0.67580  -0.67059  -0.66034  -0.65327  -0.64983
 Alpha  occ. eigenvalues --   -0.64590  -0.63669  -0.63525  -0.63400  -0.63220
 Alpha  occ. eigenvalues --   -0.62054  -0.60621  -0.59876  -0.59347  -0.58997
 Alpha  occ. eigenvalues --   -0.58313  -0.58109  -0.57928  -0.57330  -0.57173
 Alpha  occ. eigenvalues --   -0.56556  -0.55708  -0.55262  -0.54985  -0.54911
 Alpha  occ. eigenvalues --   -0.54567  -0.54506  -0.53993  -0.53780  -0.53296
 Alpha  occ. eigenvalues --   -0.53170  -0.52415  -0.52125  -0.51774  -0.51593
 Alpha  occ. eigenvalues --   -0.51302  -0.51197  -0.51065  -0.50807  -0.50694
 Alpha  occ. eigenvalues --   -0.50327  -0.50163  -0.49879  -0.49802  -0.49535
 Alpha  occ. eigenvalues --   -0.49173  -0.49163  -0.48696  -0.48514  -0.48337
 Alpha  occ. eigenvalues --   -0.48116  -0.47927  -0.47784  -0.47400  -0.47299
 Alpha  occ. eigenvalues --   -0.47240  -0.46662  -0.46512  -0.46307  -0.45884
 Alpha  occ. eigenvalues --   -0.45798  -0.45576  -0.45306  -0.45150  -0.45037
 Alpha  occ. eigenvalues --   -0.44751  -0.44662  -0.44551  -0.44405  -0.44342
 Alpha  occ. eigenvalues --   -0.44012  -0.43790  -0.43697  -0.43399  -0.43289
 Alpha  occ. eigenvalues --   -0.43265  -0.43105  -0.42833  -0.42805  -0.42638
 Alpha  occ. eigenvalues --   -0.42365  -0.42095  -0.41715  -0.41566  -0.41497
 Alpha  occ. eigenvalues --   -0.41420  -0.41342  -0.41093  -0.40744  -0.40479
 Alpha  occ. eigenvalues --   -0.40310  -0.39723  -0.39646  -0.39358  -0.38932
 Alpha  occ. eigenvalues --   -0.38382  -0.38201  -0.38127  -0.38057  -0.38026
 Alpha  occ. eigenvalues --   -0.37733  -0.37532  -0.37428  -0.36660  -0.36573
 Alpha  occ. eigenvalues --   -0.36408  -0.36382  -0.36224  -0.35981  -0.35536
 Alpha  occ. eigenvalues --   -0.34781  -0.34473  -0.33978  -0.33624  -0.32979
 Alpha  occ. eigenvalues --   -0.32748  -0.32452  -0.31727  -0.31217  -0.30411
 Alpha  occ. eigenvalues --   -0.30249  -0.29986  -0.27587  -0.26720  -0.23109
 Alpha  occ. eigenvalues --   -0.19944
 Alpha virt. eigenvalues --   -0.05258  -0.02990   0.01341   0.04334   0.04941
 Alpha virt. eigenvalues --    0.06132   0.06530   0.06662   0.07208   0.07305
 Alpha virt. eigenvalues --    0.08645   0.11023   0.11527   0.11794   0.11865

 Mulliken charges:
               1
     1  Mg   0.814247
     2  C    0.040804
     3  C   -0.230303
     4  C   -0.144009
     5  C   -0.189195
     6  N   -0.640814
     7  C    0.322743
     8  C   -0.168455
     9  C   -0.127099
    10  C    0.310769
    11  C   -0.288736
    12  C   -0.174383
    13  C   -0.265565
    14  C    0.602172
    15  O   -0.491884
    16  O   -0.457654
    17  N   -0.716852
    18  C    0.360961
    19  C    0.038553
    20  C   -0.015197
    21  C    0.244172
    22  C   -0.377605
    23  C   -0.084832
    24  C   -0.247337
    25  N   -0.673334
    26  C    0.305282
    27  C    0.019083
    28  C    0.013192
    29  C    0.301121
    30  C   -0.380429
    31  C   -0.226837
    32  C   -0.319046
    33  N   -0.696757
    34  C    0.254617
    35  C    0.003989
    36  C   -0.026296
    37  C    0.326465
    38  C   -0.373212
    39  C    0.392562
    40  O   -0.471593
    41  C   -0.315605
    42  C    0.601222
    43  O   -0.485482
    44  O   -0.359388
    45  C   -0.107033
    46  C    0.001719
    47  C   -0.132238
    48  C    0.099229
    49  C   -0.343765
    50  C   -0.240430
    51  C   -0.178736
    52  C   -0.169201
    53  C   -0.047496
    54  C   -0.311466
    55  C   -0.175261
    56  C   -0.194662
    57  C   -0.187622
    58  C   -0.072938
    59  C   -0.318427
    60  C   -0.166010
    61  C   -0.160602
    62  C   -0.145035
    63  C   -0.071687
    64  C   -0.299147
    65  C   -0.321320
    66  H    0.067991
    67  H    0.080077
    68  H    0.094803
    69  H    0.117026
    70  H    0.088904
    71  H    0.066661
    72  H    0.114937
    73  H    0.142676
    74  H    0.122835
    75  H    0.118159
    76  H    0.140313
    77  H    0.126588
    78  H    0.130900
    79  H    0.115805
    80  H    0.112845
    81  H    0.108733
    82  H    0.091673
    83  H    0.102306
    84  H    0.121356
    85  H    0.104445
    86  H    0.118154
    87  H    0.105945
    88  H    0.096145
    89  H    0.107431
    90  H    0.113866
    91  H    0.106478
    92  H    0.133075
    93  H    0.153612
    94  H    0.139945
    95  H    0.152918
    96  H    0.118354
    97  H    0.137187
    98  H    0.113190
    99  H    0.145831
   100  H    0.135003
   101  H    0.085503
   102  H    0.122490
   103  H    0.127562
   104  H    0.091464
   105  H    0.088278
   106  H    0.107156
   107  H    0.100202
   108  H    0.104842
   109  H    0.070704
   110  H    0.105808
   111  H    0.058656
   112  H    0.100306
   113  H    0.103650
   114  H    0.106614
   115  H    0.095207
   116  H    0.089717
   117  H    0.115956
   118  H    0.079937
   119  H    0.110010
   120  H    0.105500
   121  H    0.092397
   122  H    0.081864
   123  H    0.087008
   124  H    0.097910
   125  H    0.078860
   126  H    0.090153
   127  H    0.058481
   128  H    0.063083
   129  H    0.102195
   130  H    0.093831
   131  H    0.071999
   132  H    0.096901
   133  H    0.104045
   134  H    0.097393
   135  H    0.096891
   136  H    0.107112
   137  H    0.102221
 Sum of Mulliken charges =   0.00000

 Dipole moment (field-independent basis, Debye):
    X=              4.2305    Y=              3.3391    Z=              0.9248  Tot=              5.4683
 Quadrupole moment (field-independent basis, Debye-Ang):
   XX=           -357.3091   YY=           -393.3849   ZZ=           -392.6737
   XY=            -10.9590   XZ=             17.0624   YZ=             -2.3052

 Normal termination of Gaussian 09 at Sat Jul  6 00:11:28 2019.
