 Gaussian 09, Revision D.01,
 Gaussian 09:  ES64L-G09RevD.01 24-Apr-2013

 -------------------------------------
 # td=(NStates=1) CAM-B3LYP/6-31G(d,p)
 -------------------------------------

 --
 TD
 --
 Symbolic Z-matrix:
 Charge =  0 Multiplicity = 1

                         Standard orientation:
 ---------------------------------------------------------------------
 Center     Atomic      Atomic             Coordinates (Angstroms)
 Number     Number       Type             X           Y           Z
 ---------------------------------------------------------------------
      1         12           0       -7.045460    0.573985    0.014486
      2          6           0       -4.854691   -1.966386    0.537266
      3          6           0       -4.804595    2.836842    1.083895
      4          6           0       -9.395407    3.113204   -0.384818
      5          6           0       -9.494577   -1.768382   -0.946038
      6          7           0       -5.098826    0.504115    0.691785
      7          6           0       -4.291345   -0.676715    0.734697
      8          6           0       -2.899862   -0.343076    1.222987
      9          6           0       -2.999004    1.127990    1.659847
     10          6           0       -4.352558    1.504679    1.082798
     11          6           0       -3.132159    1.353922    3.242352
     12          6           0       -1.858814   -0.605527    0.069996
     13          6           0       -0.402386   -0.428195    0.579099
     14          6           0        0.554276   -0.739343   -0.507143
     15          8           0        0.215572   -1.177412   -1.611790
     16          8           0        1.757584   -0.399488   -0.292528
     17          7           0       -7.111819    2.644944    0.410729
     18          6           0       -6.014821    3.418958    0.751920
     19          6           0       -6.446247    4.826913    0.639276
     20          6           0       -7.772632    4.825752    0.345800
     21          6           0       -8.096149    3.536515   -0.006144
     22          6           0       -5.514457    5.940480    1.204625
     23          6           0       -8.664899    5.934854    0.254961
     24          6           0       -8.652145    7.076384    0.845065
     25          7           0       -9.085302    0.718770   -0.528643
     26          6           0       -9.906988    1.752431   -0.754151
     27          6           0      -11.206537    1.435640   -1.198006
     28          6           0      -11.114531    0.023974   -1.449004
     29          6           0       -9.911670   -0.394442   -0.985676
     30          6           0      -12.338505    2.424795   -1.464027
     31          6           0      -12.306445   -0.804080   -1.816476
     32          6           0      -12.394596   -1.187893   -3.288989
     33          7           0       -7.249577   -1.348152   -0.175392
     34          6           0       -8.256781   -2.253540   -0.539675
     35          6           0       -7.809143   -3.618093   -0.435220
     36          6           0       -6.493580   -3.482451   -0.012043
     37          6           0       -6.217794   -2.187512    0.133742
     38          6           0       -8.610691   -4.799245   -0.656399
     39          6           0       -5.475823   -4.327288    0.289122
     40          8           0       -5.201003   -5.539718    0.084526
     41          6           0       -4.211467   -3.296336    0.655536
     42          6           0       -3.630863   -3.650075    2.051852
     43          8           0       -3.906337   -3.106305    3.069608
     44          8           0       -2.852400   -4.749075    1.924764
     45          6           0       -2.287831   -5.122728    3.113142
     46          6           0        2.791607   -0.624768   -1.332952
     47          6           0        4.156820   -0.429460   -0.700546
     48          6           0        5.151548    0.370033   -0.972847
     49          6           0        5.091287    1.262468   -2.158636
     50          6           0        6.538157    0.364615   -0.250063
     51          6           0        7.759685   -0.171785   -1.075058
     52          6           0        9.000112   -0.093460   -0.201357
     53          6           0       10.258450   -0.576619   -0.973064
     54          6           0       10.159027   -2.143085   -1.367103
     55          6           0       11.449714   -0.221741   -0.105757
     56          6           0       12.807160   -0.494436   -0.809629
     57          6           0       13.973946   -0.129659    0.091333
     58          6           0       15.298850   -0.261656   -0.485648
     59          6           0       15.660934   -1.640216   -0.929783
     60          6           0       16.448932    0.265015    0.467649
     61          6           0       17.943949    0.439299   -0.069081
     62          6           0       18.846478    1.297783    0.831172
     63          6           0       20.279067    1.416317    0.257642
     64          6           0       20.252159    2.187144   -1.010455
     65          6           0       21.347213    1.927137    1.326608
     66          1           0       -4.033121    3.719367    1.478858
     67          1           0      -10.175284    3.866517   -0.354188
     68          1           0      -10.270749   -2.452242   -1.179316
     69          1           0       -2.698367   -0.986016    2.059259
     70          1           0       -2.051067    1.602292    1.258397
     71          1           0       -2.160771    1.124523    3.645683
     72          1           0       -3.370776    2.445283    3.480249
     73          1           0       -3.942530    0.669820    3.614258
     74          1           0       -2.211548   -1.488043   -0.323348
     75          1           0       -2.055528    0.227284   -0.674201
     76          1           0       -0.033786    0.522672    0.997662
     77          1           0       -0.230162   -1.217665    1.437210
     78          1           0       -5.758837    6.980167    0.804535
     79          1           0       -5.707948    6.154847    2.214457
     80          1           0       -4.495133    5.793959    0.902307
     81          1           0       -9.600663    5.577736   -0.405532
     82          1           0       -9.478949    7.871097    0.707572
     83          1           0       -7.944441    7.347316    1.553214
     84          1           0      -12.015890    3.039813   -2.497889
     85          1           0      -13.205725    1.797355   -1.608434
     86          1           0      -12.468015    3.089916   -0.640107
     87          1           0      -12.167116   -1.827187   -1.394669
     88          1           0      -13.322568   -0.335136   -1.329207
     89          1           0      -13.110832   -1.938206   -3.355385
     90          1           0      -12.324651   -0.354876   -3.915680
     91          1           0      -11.519656   -1.801788   -3.568159
     92          1           0       -9.012945   -4.667701   -1.564494
     93          1           0       -7.916743   -5.625432   -0.659350
     94          1           0       -9.297173   -4.831560    0.022206
     95          1           0       -3.344294   -3.437471   -0.024653
     96          1           0       -1.389831   -4.539894    3.516800
     97          1           0       -3.094752   -5.074527    3.923476
     98          1           0       -1.997535   -6.247585    2.792768
     99          1           0        2.467088   -1.475302   -1.725678
    100          1           0        2.374644    0.043417   -2.120980
    101          1           0        4.459454   -1.114314    0.234803
    102          1           0        4.226348    1.070238   -2.562040
    103          1           0        5.341701    2.466306   -2.088542
    104          1           0        5.727413    0.749898   -2.926470
    105          1           0        6.677941    1.358074    0.399216
    106          1           0        6.234590   -0.316200    0.587584
    107          1           0        7.593455   -1.241319   -1.362606
    108          1           0        7.871939    0.571959   -1.925159
    109          1           0        9.047980    0.984343   -0.045169
    110          1           0        8.735440   -0.609467    0.655783
    111          1           0       10.292971    0.177534   -1.875279
    112          1           0        9.207742   -2.255117   -1.950542
    113          1           0       10.840670   -2.505803   -2.070402
    114          1           0       10.134035   -2.814853   -0.594105
    115          1           0       11.426988    0.744278    0.332109
    116          1           0       11.244687   -0.765573    0.934139
    117          1           0       12.975005   -1.563425   -0.831345
    118          1           0       12.959307   -0.058943   -1.697108
    119          1           0       13.712628    0.882006    0.471244
    120          1           0       14.026077   -0.664574    1.069730
    121          1           0       15.211254    0.296910   -1.333940
    122          1           0       16.033978   -2.162916    0.104716
    123          1           0       14.929879   -2.162153   -1.639146
    124          1           0       16.623778   -1.566918   -1.643391
    125          1           0       16.024625    1.202599    0.738410
    126          1           0       16.551486   -0.106616    1.469401
    127          1           0       18.607791   -0.503840   -0.229939
    128          1           0       17.955873    0.868734   -0.988044
    129          1           0       18.514126    2.295740    1.180508
    130          1           0       18.840140    0.845101    2.052356
    131          1           0       20.491483    0.402643   -0.146846
    132          1           0       19.998411    3.313078   -0.873231
    133          1           0       21.312958    2.069337   -1.625778
    134          1           0       19.589463    2.020476   -1.691068
    135          1           0       21.276696    1.449746    2.252983
    136          1           0       22.361458    1.941742    1.041837
    137          1           0       21.066486    3.029219    1.628287
 ---------------------------------------------------------------------

 SCF Done:  E(RCAM-B3LYP) =  -2932.67681978     A.U. after   18 cycles

 Excitation energies and oscillator strengths:

 Excited State   1:      Singlet-A      2.1717 eV  570.91 nm  f=0.1297  <S**2>=0.000
     240 -> 242       -0.11540
     240 -> 243        0.30744
     241 -> 242        0.60740
 This state for optimization and/or second-order correction.
 Total Energy, E(TD-HF/TD-KS) =  -2932.59701113
 Copying the excited state density for this state as the 1-particle RhoCI density.

 The electronic state is 1-A.
 Alpha  occ. eigenvalues --  -46.83986 -19.26188 -19.26040 -19.21242 -19.19884
 Alpha  occ. eigenvalues --  -19.18624 -14.41933 -14.39709 -14.38621 -14.38396
 Alpha  occ. eigenvalues --  -10.38736 -10.37907 -10.34682 -10.32465 -10.31804
 Alpha  occ. eigenvalues --  -10.31496 -10.31146 -10.29866 -10.28990 -10.28824
 Alpha  occ. eigenvalues --  -10.28807 -10.28775 -10.28655 -10.28482 -10.28386
 Alpha  occ. eigenvalues --  -10.28264 -10.28051 -10.27876 -10.27727 -10.27688
 Alpha  occ. eigenvalues --  -10.27651 -10.27596 -10.27536 -10.27310 -10.27192
 Alpha  occ. eigenvalues --  -10.27121 -10.27101 -10.27042 -10.27011 -10.26962
 Alpha  occ. eigenvalues --  -10.26843 -10.26773 -10.26724 -10.26697 -10.26484
 Alpha  occ. eigenvalues --  -10.26198 -10.26148 -10.26063 -10.25809 -10.25751
 Alpha  occ. eigenvalues --  -10.25738 -10.25716 -10.25605 -10.25576 -10.25083
 Alpha  occ. eigenvalues --  -10.24764 -10.24711 -10.24685 -10.24665 -10.24650
 Alpha  occ. eigenvalues --  -10.24306 -10.24137 -10.24128 -10.24102 -10.23623
 Alpha  occ. eigenvalues --   -3.13063  -1.87760  -1.87304  -1.87255  -1.19964
 Alpha  occ. eigenvalues --   -1.19787  -1.11087  -1.08258  -1.06919  -1.04880
 Alpha  occ. eigenvalues --   -1.04088  -1.02812  -1.01594  -0.92944  -0.91898
 Alpha  occ. eigenvalues --   -0.91453  -0.90281  -0.89814  -0.89609  -0.89537
 Alpha  occ. eigenvalues --   -0.88925  -0.88759  -0.86817  -0.86511  -0.86393
 Alpha  occ. eigenvalues --   -0.85138  -0.84336  -0.83485  -0.83077  -0.82558
 Alpha  occ. eigenvalues --   -0.82489  -0.81864  -0.80268  -0.80121  -0.79433
 Alpha  occ. eigenvalues --   -0.78114  -0.77391  -0.77122  -0.76536  -0.76089
 Alpha  occ. eigenvalues --   -0.75364  -0.74509  -0.74381  -0.73807  -0.72551
 Alpha  occ. eigenvalues --   -0.71723  -0.70990  -0.70136  -0.69775  -0.68807
 Alpha  occ. eigenvalues --   -0.67261  -0.67153  -0.65664  -0.65195  -0.64991
 Alpha  occ. eigenvalues --   -0.64083  -0.63695  -0.63590  -0.63381  -0.62652
 Alpha  occ. eigenvalues --   -0.61759  -0.61009  -0.60386  -0.59409  -0.59028
 Alpha  occ. eigenvalues --   -0.58691  -0.57793  -0.57427  -0.57218  -0.56742
 Alpha  occ. eigenvalues --   -0.56179  -0.56007  -0.55699  -0.55179  -0.54872
 Alpha  occ. eigenvalues --   -0.54739  -0.54108  -0.53966  -0.53510  -0.53396
 Alpha  occ. eigenvalues --   -0.52903  -0.52569  -0.52408  -0.52043  -0.51658
 Alpha  occ. eigenvalues --   -0.51500  -0.51240  -0.51035  -0.50891  -0.50711
 Alpha  occ. eigenvalues --   -0.50554  -0.50280  -0.50153  -0.49945  -0.49834
 Alpha  occ. eigenvalues --   -0.49714  -0.49417  -0.49191  -0.48799  -0.48628
 Alpha  occ. eigenvalues --   -0.48443  -0.48224  -0.47777  -0.47238  -0.47150
 Alpha  occ. eigenvalues --   -0.46949  -0.46883  -0.46694  -0.46438  -0.46066
 Alpha  occ. eigenvalues --   -0.45894  -0.45802  -0.45593  -0.45207  -0.44929
 Alpha  occ. eigenvalues --   -0.44812  -0.44550  -0.44396  -0.44075  -0.43724
 Alpha  occ. eigenvalues --   -0.43633  -0.43485  -0.43248  -0.43167  -0.42972
 Alpha  occ. eigenvalues --   -0.42928  -0.42657  -0.42544  -0.42373  -0.42223
 Alpha  occ. eigenvalues --   -0.42048  -0.41878  -0.41820  -0.41528  -0.41438
 Alpha  occ. eigenvalues --   -0.41205  -0.40939  -0.40847  -0.40634  -0.40568
 Alpha  occ. eigenvalues --   -0.40047  -0.39999  -0.39751  -0.39429  -0.39265
 Alpha  occ. eigenvalues --   -0.38863  -0.38666  -0.38444  -0.38321  -0.37891
 Alpha  occ. eigenvalues --   -0.37807  -0.37492  -0.37394  -0.36995  -0.36897
 Alpha  occ. eigenvalues --   -0.36877  -0.36575  -0.36403  -0.36205  -0.35634
 Alpha  occ. eigenvalues --   -0.35551  -0.35300  -0.35198  -0.33933  -0.33803
 Alpha  occ. eigenvalues --   -0.33751  -0.32846  -0.32065  -0.31046  -0.30454
 Alpha  occ. eigenvalues --   -0.29999  -0.29260  -0.27583  -0.26939  -0.22792
 Alpha  occ. eigenvalues --   -0.21815
 Alpha virt. eigenvalues --   -0.06088  -0.03807   0.00685   0.04490   0.05683
 Alpha virt. eigenvalues --    0.05812   0.06593   0.06970   0.07361   0.07809
 Alpha virt. eigenvalues --    0.08458   0.10723   0.11309   0.11838   0.11911

 Mulliken charges:
               1
     1  Mg   0.822402
     2  C    0.076151
     3  C   -0.242075
     4  C   -0.193408
     5  C   -0.170030
     6  N   -0.636459
     7  C    0.259523
     8  C   -0.167930
     9  C   -0.145112
    10  C    0.382165
    11  C   -0.307183
    12  C   -0.149842
    13  C   -0.284150
    14  C    0.605810
    15  O   -0.524098
    16  O   -0.455432
    17  N   -0.679339
    18  C    0.352040
    19  C   -0.041019
    20  C    0.076948
    21  C    0.273561
    22  C   -0.379153
    23  C   -0.028105
    24  C   -0.269280
    25  N   -0.649239
    26  C    0.292768
    27  C   -0.012593
    28  C    0.040277
    29  C    0.258157
    30  C   -0.342469
    31  C   -0.249002
    32  C   -0.310114
    33  N   -0.767288
    34  C    0.246327
    35  C    0.036609
    36  C    0.078334
    37  C    0.334753
    38  C   -0.349625
    39  C    0.294181
    40  O   -0.483429
    41  C   -0.358626
    42  C    0.604444
    43  O   -0.456449
    44  O   -0.412853
    45  C   -0.092220
    46  C    0.005265
    47  C   -0.128845
    48  C    0.113469
    49  C   -0.343092
    50  C   -0.229787
    51  C   -0.179642
    52  C   -0.171206
    53  C   -0.051272
    54  C   -0.331759
    55  C   -0.173580
    56  C   -0.172809
    57  C   -0.185319
    58  C   -0.049677
    59  C   -0.291080
    60  C   -0.197830
    61  C   -0.180989
    62  C   -0.158847
    63  C   -0.052349
    64  C   -0.287284
    65  C   -0.314722
    66  H    0.059872
    67  H    0.083413
    68  H    0.087111
    69  H    0.125403
    70  H    0.103032
    71  H    0.111516
    72  H    0.113952
    73  H    0.133170
    74  H    0.135022
    75  H    0.111336
    76  H    0.140450
    77  H    0.125180
    78  H    0.105937
    79  H    0.139318
    80  H    0.122506
    81  H    0.076398
    82  H    0.100385
    83  H    0.099868
    84  H    0.101918
    85  H    0.115025
    86  H    0.128489
    87  H    0.095511
    88  H    0.091701
    89  H    0.113452
    90  H    0.122441
    91  H    0.101085
    92  H    0.131648
    93  H    0.150028
    94  H    0.142834
    95  H    0.154470
    96  H    0.107066
    97  H    0.127526
    98  H    0.109265
    99  H    0.151276
   100  H    0.136715
   101  H    0.078726
   102  H    0.108853
   103  H    0.098442
   104  H    0.116866
   105  H    0.093303
   106  H    0.086553
   107  H    0.106059
   108  H    0.097146
   109  H    0.096699
   110  H    0.103036
   111  H    0.069568
   112  H    0.094622
   113  H    0.115755
   114  H    0.119125
   115  H    0.095744
   116  H    0.068229
   117  H    0.111782
   118  H    0.099563
   119  H    0.076125
   120  H    0.078852
   121  H    0.087913
   122  H    0.086481
   123  H    0.096108
   124  H    0.082171
   125  H    0.096639
   126  H    0.098842
   127  H    0.088989
   128  H    0.109334
   129  H    0.093779
   130  H    0.031239
   131  H    0.086477
   132  H    0.078045
   133  H    0.069574
   134  H    0.119870
   135  H    0.114404
   136  H    0.111805
   137  H    0.082393
 Sum of Mulliken charges =   0.00000

 Dipole moment (field-independent basis, Debye):
    X=              2.1846    Y=              4.4386    Z=              0.0444  Tot=              4.9473
 Quadrupole moment (field-independent basis, Debye-Ang):
   XX=           -351.7855   YY=           -399.4238   ZZ=           -396.3274
   XY=            -10.5545   XZ=              3.0604   YZ=              2.7885

 Normal termination of Gaussian 09 at Fri Jul  5 06:03:25 2019.
