 Gaussian 16, Revision A.03,
 Gaussian 16:  ES64L-G16RevA.03 25-Dec-2016

 ----------------------------------------------------------------------
 # td=(NStates=1) iop(3/107=0140000000,3/108=0140000000) CAM-B3LYP/6-31
 G(d,p)
 ----------------------------------------------------------------------

 --
 TD
 --
 Symbolic Z-matrix:
 Charge =  0 Multiplicity = 1

                         Standard orientation:
 ---------------------------------------------------------------------
 Center     Atomic      Atomic             Coordinates (Angstroms)
 Number     Number       Type             X           Y           Z
 ---------------------------------------------------------------------
      1         12           0       -7.190744    0.569794    0.239212
      2          6           0       -4.886875   -2.035865    0.556323
      3          6           0       -4.708137    2.730264    1.311482
      4          6           0       -9.318881    3.189901   -0.273354
      5          6           0       -9.582872   -1.600401   -0.968245
      6          7           0       -5.164879    0.379445    0.862453
      7          6           0       -4.438789   -0.748852    0.874843
      8          6           0       -2.908696   -0.463858    1.219073
      9          6           0       -3.065624    0.975389    1.842221
     10          6           0       -4.429304    1.458248    1.281678
     11          6           0       -3.041529    1.115914    3.375452
     12          6           0       -1.881554   -0.537911    0.115595
     13          6           0       -0.461049   -0.596426    0.674297
     14          6           0        0.596889   -0.612970   -0.540756
     15          8           0        0.239969   -0.912746   -1.684766
     16          8           0        1.827751   -0.486595   -0.057846
     17          7           0       -7.027378    2.584742    0.392577
     18          6           0       -5.964899    3.361245    0.848891
     19          6           0       -6.271521    4.700059    0.801054
     20          6           0       -7.541094    4.889663    0.351884
     21          6           0       -7.983706    3.517145    0.190535
     22          6           0       -5.217583    5.864902    1.144053
     23          6           0       -8.318212    6.106473    0.154598
     24          6           0       -8.132543    7.301387    0.709164
     25          7           0       -9.083832    0.789094   -0.480539
     26          6           0       -9.841296    1.921521   -0.536528
     27          6           0      -11.142379    1.678036   -1.152352
     28          6           0      -11.227534    0.312449   -1.379631
     29          6           0       -9.935584   -0.225797   -0.906316
     30          6           0      -12.140384    2.673807   -1.537701
     31          6           0      -12.391649   -0.499745   -1.917945
     32          6           0      -12.162790   -0.844573   -3.407018
     33          7           0       -7.273362   -1.362297   -0.092267
     34          6           0       -8.359936   -2.183693   -0.609920
     35          6           0       -7.922358   -3.585938   -0.588736
     36          6           0       -6.590623   -3.528388   -0.203666
     37          6           0       -6.294313   -2.250643    0.210928
     38          6           0       -8.731152   -4.758182   -1.072392
     39          6           0       -5.377961   -4.324228    0.227311
     40          8           0       -5.356751   -5.560398    0.184596
     41          6           0       -4.283602   -3.353048    0.438873
     42          6           0       -3.723066   -3.819988    1.820335
     43          8           0       -4.050739   -3.291975    2.868144
     44          8           0       -2.954463   -4.875052    1.648181
     45          6           0       -2.419391   -5.431758    2.972571
     46          6           0        2.778635   -0.764876   -1.174558
     47          6           0        4.222180   -0.643460   -0.547951
     48          6           0        5.123340    0.163892   -0.975431
     49          6           0        4.959995    1.106315   -2.196368
     50          6           0        6.471617    0.309066   -0.311827
     51          6           0        7.587496   -0.326523   -1.026331
     52          6           0        8.887071   -0.073869   -0.268484
     53          6           0       10.215699   -0.726614   -0.856375
     54          6           0       10.076502   -2.135659   -1.498913
     55          6           0       11.336976   -0.452066    0.103573
     56          6           0       12.766341   -0.545408   -0.580489
     57          6           0       13.902751   -0.210047    0.322137
     58          6           0       15.331758   -0.177278   -0.443375
     59          6           0       15.729370   -1.621452   -0.859597
     60          6           0       16.443581    0.546371    0.421069
     61          6           0       17.849155    0.646567   -0.202368
     62          6           0       18.846205    1.421911    0.622792
     63          6           0       20.300201    1.376837    0.321777
     64          6           0       20.415034    2.097825   -1.116345
     65          6           0       21.124900    2.150533    1.237496
     66          1           0       -3.931005    3.390521    1.656634
     67          1           0      -10.043986    3.945795   -0.279695
     68          1           0      -10.501773   -2.120287   -1.294642
     69          1           0       -2.607849   -1.169059    2.027602
     70          1           0       -2.299456    1.639783    1.450001
     71          1           0       -1.979319    0.628414    3.643961
     72          1           0       -3.247320    2.119492    3.887261
     73          1           0       -3.780296    0.586179    3.837879
     74          1           0       -2.103526   -1.471551   -0.187609
     75          1           0       -2.060104    0.233451   -0.514213
     76          1           0       -0.072691    0.273850    1.226639
     77          1           0       -0.519379   -1.453912    1.394310
     78          1           0       -5.218005    6.583634    0.219344
     79          1           0       -5.292896    6.233293    2.234801
     80          1           0       -4.157129    5.460922    0.759702
     81          1           0       -9.083735    5.595668   -0.429965
     82          1           0       -8.717304    8.104571    0.226153
     83          1           0       -7.281776    7.559752    1.363133
     84          1           0      -11.825721    3.147871   -2.493786
     85          1           0      -13.171467    2.224918   -1.574030
     86          1           0      -12.194145    3.839887   -1.043019
     87          1           0      -12.509607   -1.424895   -1.353841
     88          1           0      -13.229747    0.211408   -1.802606
     89          1           0      -13.064621   -1.464255   -3.825412
     90          1           0      -12.207991    0.203700   -4.031557
     91          1           0      -11.313304   -1.461140   -3.682104
     92          1           0       -9.240164   -4.698367   -2.130344
     93          1           0       -8.075920   -5.614765   -0.784566
     94          1           0       -9.569877   -5.038190   -0.353587
     95          1           0       -3.419950   -3.366287   -0.233902
     96          1           0       -1.694519   -4.591928    3.347803
     97          1           0       -3.186031   -5.640793    3.560812
     98          1           0       -1.641095   -6.128300    2.469946
     99          1           0        2.830277   -1.746938   -1.482293
    100          1           0        2.549584   -0.120942   -2.202248
    101          1           0        4.394637   -1.290337    0.306935
    102          1           0        3.978884    0.967843   -2.588471
    103          1           0        5.373135    2.020432   -1.981915
    104          1           0        5.700870    0.731806   -3.036272
    105          1           0        6.772022    1.326260   -0.217302
    106          1           0        6.465108   -0.127187    0.708656
    107          1           0        7.513593   -1.317478   -1.411181
    108          1           0        7.563061    0.080242   -2.076273
    109          1           0        9.150816    0.950490   -0.220527
    110          1           0        8.608320   -0.473451    0.765364
    111          1           0       10.691942   -0.191719   -1.749782
    112          1           0        9.441712   -2.225913   -2.336866
    113          1           0       11.162466   -2.394883   -1.751173
    114          1           0        9.783183   -2.863474   -0.644005
    115          1           0       11.404683    0.600060    0.432047
    116          1           0       11.080366   -0.988341    1.026916
    117          1           0       12.777823   -1.466469   -1.225206
    118          1           0       12.602936    0.254115   -1.437586
    119          1           0       13.758356    0.829826    0.701969
    120          1           0       13.880851   -0.718416    1.186924
    121          1           0       15.123970    0.492893   -1.284468
    122          1           0       15.752409   -2.535151   -0.109921
    123          1           0       15.250573   -2.062902   -1.662411
    124          1           0       16.800151   -1.441525   -1.270538
    125          1           0       16.094010    1.534316    0.678682
    126          1           0       16.424250   -0.180674    1.398007
    127          1           0       18.328017   -0.371474   -0.451963
    128          1           0       17.571812    1.069564   -1.076372
    129          1           0       18.285061    2.482005    0.814637
    130          1           0       18.795996    0.715681    1.631234
    131          1           0       20.627799    0.316556    0.138446
    132          1           0       20.250511    3.328289   -1.169207
    133          1           0       21.312349    2.099417   -1.414112
    134          1           0       19.873086    1.606186   -2.008652
    135          1           0       21.200869    1.525476    2.269604
    136          1           0       22.161660    2.205692    0.911937
    137          1           0       20.780621    3.263212    1.251486
 ---------------------------------------------------------------------

 SCF Done:  E(RCAM-B3LYP) =  -2933.50379672     A.U. after   16 cycles

 Excitation energies and oscillator strengths:

 Excited State   1:      Singlet-A      2.0160 eV  614.99 nm  f=0.2829  <S**2>=0.000
     240 -> 243       -0.23819
     241 -> 242        0.66115
 This state for optimization and/or second-order correction.
 Total Energy, E(TD-HF/TD-DFT) =  -2933.42970851
 Copying the excited state density for this state as the 1-particle RhoCI density.

 The electronic state is 1-A.
 Alpha  occ. eigenvalues --  -46.78611 -19.24220 -19.22641 -19.17024 -19.16361
 Alpha  occ. eigenvalues --  -19.15945 -14.36733 -14.34983 -14.34950 -14.34633
 Alpha  occ. eigenvalues --  -10.35139 -10.34087 -10.30464 -10.28834 -10.28507
 Alpha  occ. eigenvalues --  -10.26202 -10.25261 -10.24704 -10.24629 -10.24431
 Alpha  occ. eigenvalues --  -10.24233 -10.24215 -10.24020 -10.23940 -10.23890
 Alpha  occ. eigenvalues --  -10.23747 -10.23718 -10.23507 -10.23230 -10.23047
 Alpha  occ. eigenvalues --  -10.22841 -10.22676 -10.22568 -10.22554 -10.22548
 Alpha  occ. eigenvalues --  -10.22431 -10.22355 -10.22353 -10.22325 -10.22271
 Alpha  occ. eigenvalues --  -10.22111 -10.22078 -10.22067 -10.22022 -10.21979
 Alpha  occ. eigenvalues --  -10.21805 -10.21779 -10.21725 -10.21486 -10.21310
 Alpha  occ. eigenvalues --  -10.21279 -10.21277 -10.21209 -10.21181 -10.21109
 Alpha  occ. eigenvalues --  -10.20952 -10.20842 -10.20699 -10.20513 -10.20406
 Alpha  occ. eigenvalues --  -10.20404 -10.20346 -10.20228 -10.20220 -10.20140
 Alpha  occ. eigenvalues --   -3.07412  -1.82339  -1.81872  -1.81848  -1.13723
 Alpha  occ. eigenvalues --   -1.12960  -1.04936  -1.04042  -1.03954  -0.98797
 Alpha  occ. eigenvalues --   -0.97884  -0.97350  -0.96457  -0.88043  -0.86727
 Alpha  occ. eigenvalues --   -0.85277  -0.84868  -0.84544  -0.83846  -0.83811
 Alpha  occ. eigenvalues --   -0.82977  -0.82829  -0.82278  -0.81190  -0.81009
 Alpha  occ. eigenvalues --   -0.79693  -0.78874  -0.78545  -0.78179  -0.77260
 Alpha  occ. eigenvalues --   -0.76579  -0.76289  -0.75225  -0.74920  -0.72811
 Alpha  occ. eigenvalues --   -0.72637  -0.72206  -0.71470  -0.71303  -0.70790
 Alpha  occ. eigenvalues --   -0.70681  -0.69940  -0.69668  -0.68968  -0.67909
 Alpha  occ. eigenvalues --   -0.66358  -0.65782  -0.65040  -0.64795  -0.63958
 Alpha  occ. eigenvalues --   -0.62998  -0.62545  -0.61000  -0.60615  -0.60500
 Alpha  occ. eigenvalues --   -0.59823  -0.59101  -0.58691  -0.57815  -0.57754
 Alpha  occ. eigenvalues --   -0.57432  -0.55881  -0.55848  -0.55528  -0.54635
 Alpha  occ. eigenvalues --   -0.54092  -0.53741  -0.53642  -0.53192  -0.53050
 Alpha  occ. eigenvalues --   -0.52500  -0.51964  -0.51063  -0.50997  -0.50893
 Alpha  occ. eigenvalues --   -0.50651  -0.50482  -0.50074  -0.49717  -0.49620
 Alpha  occ. eigenvalues --   -0.49222  -0.48948  -0.48527  -0.48458  -0.47487
 Alpha  occ. eigenvalues --   -0.47212  -0.46997  -0.46846  -0.46760  -0.46552
 Alpha  occ. eigenvalues --   -0.46416  -0.46280  -0.46037  -0.45949  -0.45871
 Alpha  occ. eigenvalues --   -0.45562  -0.45425  -0.45282  -0.44760  -0.44309
 Alpha  occ. eigenvalues --   -0.44096  -0.43882  -0.43725  -0.43668  -0.43471
 Alpha  occ. eigenvalues --   -0.43149  -0.43011  -0.42854  -0.42741  -0.42365
 Alpha  occ. eigenvalues --   -0.42064  -0.41737  -0.41682  -0.41530  -0.41456
 Alpha  occ. eigenvalues --   -0.41318  -0.40928  -0.40859  -0.40645  -0.40474
 Alpha  occ. eigenvalues --   -0.40207  -0.40161  -0.39961  -0.39795  -0.39472
 Alpha  occ. eigenvalues --   -0.39413  -0.39363  -0.38807  -0.38746  -0.38653
 Alpha  occ. eigenvalues --   -0.38465  -0.38321  -0.38218  -0.38151  -0.38012
 Alpha  occ. eigenvalues --   -0.37564  -0.37418  -0.37280  -0.37249  -0.37020
 Alpha  occ. eigenvalues --   -0.36983  -0.36930  -0.36837  -0.36221  -0.35652
 Alpha  occ. eigenvalues --   -0.35586  -0.35261  -0.35110  -0.35038  -0.34413
 Alpha  occ. eigenvalues --   -0.34262  -0.34031  -0.34023  -0.33626  -0.33552
 Alpha  occ. eigenvalues --   -0.33271  -0.33151  -0.33112  -0.32574  -0.32514
 Alpha  occ. eigenvalues --   -0.32205  -0.31857  -0.30800  -0.30269  -0.30077
 Alpha  occ. eigenvalues --   -0.29930  -0.29607  -0.29196  -0.28241  -0.27893
 Alpha  occ. eigenvalues --   -0.26770  -0.26373  -0.25529  -0.25035  -0.21032
 Alpha  occ. eigenvalues --   -0.20025
 Alpha virt. eigenvalues --   -0.07305  -0.03585   0.00539   0.02686   0.02978
 Alpha virt. eigenvalues --    0.04636   0.05422   0.05548   0.05714   0.06637
 Alpha virt. eigenvalues --    0.06911   0.08468   0.08912   0.09647   0.09828

 Mulliken charges:
               1
     1  Mg   0.809352
     2  C    0.101702
     3  C   -0.191492
     4  C   -0.179130
     5  C   -0.171896
     6  N   -0.648254
     7  C    0.308409
     8  C   -0.186290
     9  C   -0.140144
    10  C    0.363888
    11  C   -0.299827
    12  C   -0.113419
    13  C   -0.272191
    14  C    0.606670
    15  O   -0.472612
    16  O   -0.437961
    17  N   -0.687079
    18  C    0.294886
    19  C   -0.029478
    20  C    0.026271
    21  C    0.284716
    22  C   -0.376440
    23  C    0.002680
    24  C   -0.271603
    25  N   -0.680443
    26  C    0.289488
    27  C    0.061098
    28  C    0.035931
    29  C    0.277490
    30  C   -0.401835
    31  C   -0.238713
    32  C   -0.298237
    33  N   -0.722507
    34  C    0.269863
    35  C    0.015360
    36  C   -0.002595
    37  C    0.289320
    38  C   -0.395660
    39  C    0.407632
    40  O   -0.477606
    41  C   -0.331379
    42  C    0.598055
    43  O   -0.478464
    44  O   -0.444151
    45  C   -0.091325
    46  C   -0.018389
    47  C   -0.171586
    48  C    0.157522
    49  C   -0.345668
    50  C   -0.229197
    51  C   -0.175594
    52  C   -0.164767
    53  C   -0.063309
    54  C   -0.307735
    55  C   -0.173208
    56  C   -0.192408
    57  C   -0.170588
    58  C   -0.065429
    59  C   -0.310132
    60  C   -0.168681
    61  C   -0.168737
    62  C   -0.117046
    63  C   -0.049905
    64  C   -0.311862
    65  C   -0.284759
    66  H    0.078030
    67  H    0.082435
    68  H    0.077710
    69  H    0.098431
    70  H    0.090662
    71  H    0.080622
    72  H    0.102017
    73  H    0.135027
    74  H    0.115325
    75  H    0.115758
    76  H    0.121888
    77  H    0.120414
    78  H    0.120391
    79  H    0.127182
    80  H    0.095562
    81  H    0.075380
    82  H    0.100845
    83  H    0.110220
    84  H    0.137935
    85  H    0.116272
    86  H    0.088697
    87  H    0.117077
    88  H    0.103508
    89  H    0.087859
    90  H    0.091216
    91  H    0.124687
    92  H    0.121520
    93  H    0.148244
    94  H    0.118791
    95  H    0.166594
    96  H    0.124846
    97  H    0.165850
    98  H    0.139789
    99  H    0.148267
   100  H    0.122999
   101  H    0.091811
   102  H    0.103191
   103  H    0.127865
   104  H    0.100453
   105  H    0.104600
   106  H    0.089057
   107  H    0.100318
   108  H    0.073614
   109  H    0.101851
   110  H    0.081541
   111  H    0.066567
   112  H    0.118627
   113  H    0.090502
   114  H    0.085298
   115  H    0.094040
   116  H    0.084024
   117  H    0.094225
   118  H    0.075413
   119  H    0.077971
   120  H    0.107506
   121  H    0.085916
   122  H    0.090655
   123  H    0.115811
   124  H    0.086419
   125  H    0.092741
   126  H    0.063040
   127  H    0.082350
   128  H    0.104398
   129  H    0.068522
   130  H    0.050707
   131  H    0.092947
   132  H    0.063637
   133  H    0.113045
   134  H    0.090250
   135  H    0.080857
   136  H    0.105840
   137  H    0.101739
 Sum of Mulliken charges =  -0.00000

 Dipole moment (field-independent basis, Debye):
    X=              3.3369    Y=              2.5682    Z=             -0.1697  Tot=              4.2142
 Quadrupole moment (field-independent basis, Debye-Ang):
   XX=           -330.2268   YY=           -393.1677   ZZ=           -397.4007
   XY=            -14.1150   XZ=              4.9060   YZ=             -7.0092

 Normal termination of Gaussian 16 at Mon Sep 23 16:21:05 2019.
