 Gaussian 09, Revision D.01,
 Gaussian 09:  ES64L-G09RevD.01 24-Apr-2013

 -------------------------------------
 # td=(NStates=1) CAM-B3LYP/6-31G(d,p)
 -------------------------------------

 --
 TD
 --
 Symbolic Z-matrix:
 Charge =  0 Multiplicity = 1

                         Standard orientation:
 ---------------------------------------------------------------------
 Center     Atomic      Atomic             Coordinates (Angstroms)
 Number     Number       Type             X           Y           Z
 ---------------------------------------------------------------------
      1         12           0       -7.188669    0.602517    0.031348
      2          6           0       -4.911247   -1.991065    0.553658
      3          6           0       -4.804823    2.866319    1.181846
      4          6           0       -9.431625    3.118085   -0.356153
      5          6           0       -9.410995   -1.726062   -0.844741
      6          7           0       -5.076562    0.408724    0.843916
      7          6           0       -4.314581   -0.705360    0.825514
      8          6           0       -2.896245   -0.402583    1.334931
      9          6           0       -3.023390    1.090640    1.559633
     10          6           0       -4.474970    1.504667    1.156882
     11          6           0       -2.935127    1.314667    3.081720
     12          6           0       -1.955983   -0.671950    0.092767
     13          6           0       -0.468192   -0.543944    0.503741
     14          6           0        0.524062   -0.736560   -0.574456
     15          8           0        0.280441   -0.999540   -1.720790
     16          8           0        1.860865   -0.540228   -0.196004
     17          7           0       -7.160528    2.618049    0.372634
     18          6           0       -6.042372    3.407477    0.669982
     19          6           0       -6.374369    4.782968    0.846247
     20          6           0       -7.767890    4.796996    0.359955
     21          6           0       -8.215120    3.536941    0.131956
     22          6           0       -5.416798    5.822246    1.178991
     23          6           0       -8.556702    6.029098    0.222241
     24          6           0       -8.483662    7.185617    0.940037
     25          7           0       -9.139019    0.704414   -0.579155
     26          6           0       -9.895121    1.836622   -0.715238
     27          6           0      -11.261365    1.530056   -1.177332
     28          6           0      -11.181506    0.118349   -1.388537
     29          6           0       -9.914832   -0.354236   -0.965785
     30          6           0      -12.343593    2.507452   -1.561435
     31          6           0      -12.384482   -0.705070   -1.730431
     32          6           0      -12.469198   -1.016063   -3.257204
     33          7           0       -7.253504   -1.439778   -0.176571
     34          6           0       -8.263527   -2.171139   -0.531290
     35          6           0       -7.824014   -3.685159   -0.555973
     36          6           0       -6.522008   -3.559438   -0.055498
     37          6           0       -6.215289   -2.143179    0.156751
     38          6           0       -8.847387   -4.810009   -0.701869
     39          6           0       -5.267200   -4.358755    0.170904
     40          8           0       -5.156369   -5.527098    0.134497
     41          6           0       -4.154615   -3.295657    0.601070
     42          6           0       -3.512650   -3.667964    1.903453
     43          8           0       -3.785065   -3.183378    2.966093
     44          8           0       -2.744994   -4.740176    1.696325
     45          6           0       -2.211854   -5.286085    3.087537
     46          6           0        2.907612   -0.661421   -1.344427
     47          6           0        4.098088   -0.511918   -0.626362
     48          6           0        5.087034    0.274127   -1.057933
     49          6           0        5.231546    1.062459   -2.293846
     50          6           0        6.511858    0.322643   -0.258862
     51          6           0        7.717088   -0.259036   -0.956354
     52          6           0        8.982295   -0.083229   -0.284654
     53          6           0       10.259606   -0.634256   -0.871688
     54          6           0       10.063056   -2.163169   -1.026044
     55          6           0       11.510828   -0.338896   -0.062004
     56          6           0       12.922999   -0.562770   -0.775370
     57          6           0       13.987199   -0.178082    0.295334
     58          6           0       15.383407   -0.208981   -0.304417
     59          6           0       15.732610   -1.644939   -0.830768
     60          6           0       16.402667    0.488446    0.561144
     61          6           0       17.722266    0.610758   -0.179421
     62          6           0       18.743309    1.504246    0.750318
     63          6           0       20.284059    1.460260    0.142792
     64          6           0       20.235222    2.159510   -1.236512
     65          6           0       21.281145    2.064478    1.190688
     66          1           0       -4.124643    3.521763    1.619262
     67          1           0      -10.348529    3.920676   -0.384998
     68          1           0      -10.246867   -2.382174   -1.203474
     69          1           0       -2.616265   -1.001409    2.165988
     70          1           0       -2.201371    1.765238    1.179867
     71          1           0       -2.130035    0.961324    3.541580
     72          1           0       -2.842979    2.407010    3.235305
     73          1           0       -3.921315    0.842945    3.630937
     74          1           0       -2.075981   -1.653562   -0.232806
     75          1           0       -2.080937    0.111262   -0.383594
     76          1           0       -0.386825    0.287033    0.842735
     77          1           0       -0.345990   -1.220336    1.475645
     78          1           0       -5.803561    6.912583    0.901604
     79          1           0       -5.498736    5.848609    2.170745
     80          1           0       -4.557460    5.461376    0.664022
     81          1           0       -9.341169    6.061168   -0.550076
     82          1           0       -9.118656    8.054030    0.825890
     83          1           0       -7.712310    7.501912    1.761289
     84          1           0      -11.981807    3.312369   -2.172747
     85          1           0      -13.254472    1.904012   -1.993222
     86          1           0      -12.701283    3.052801   -0.741011
     87          1           0      -12.207917   -1.771771   -1.226954
     88          1           0      -13.295169   -0.337882   -1.399690
     89          1           0      -13.322362   -1.720159   -3.738153
     90          1           0      -12.757561   -0.121042   -3.653839
     91          1           0      -11.377494   -1.265857   -3.705287
     92          1           0       -9.071270   -4.567547   -1.640734
     93          1           0       -8.342000   -5.779975   -0.560769
     94          1           0       -9.763438   -4.589681   -0.108829
     95          1           0       -3.363594   -3.281347   -0.078591
     96          1           0       -1.751077   -4.105405    3.229087
     97          1           0       -3.050393   -5.264703    3.751640
     98          1           0       -1.674190   -6.158303    2.886423
     99          1           0        2.916121   -1.831658   -1.776583
    100          1           0        2.752284   -0.050022   -2.033691
    101          1           0        4.372499   -1.196329    0.007366
    102          1           0        4.164500    1.184604   -2.745753
    103          1           0        5.570593    2.176848   -2.178128
    104          1           0        5.934982    0.690411   -2.950493
    105          1           0        6.738857    1.279075    0.074371
    106          1           0        6.285099   -0.348777    0.630522
    107          1           0        7.534699   -1.350752   -1.005114
    108          1           0        7.720210    0.143659   -1.977048
    109          1           0        9.158413    1.174894    0.065106
    110          1           0        8.873447   -0.533608    0.746743
    111          1           0       10.525509   -0.284725   -1.918736
    112          1           0        9.280223   -2.386897   -1.706072
    113          1           0       10.956579   -2.755602   -1.468145
    114          1           0        9.913773   -2.820783    0.014802
    115          1           0       11.417484    0.740775    0.243055
    116          1           0       11.584361   -0.913029    0.881865
    117          1           0       13.107933   -1.675070   -1.014630
    118          1           0       12.892512    0.374711   -1.699236
    119          1           0       13.730499    0.901024    0.468756
    120          1           0       13.933789   -0.745405    1.067010
    121          1           0       15.411691    0.223130   -1.128487
    122          1           0       15.706020   -2.282765   -0.025143
    123          1           0       14.964609   -1.735428   -1.561335
    124          1           0       16.730324   -1.740162   -1.234670
    125          1           0       16.101722    1.544961    0.814299
    126          1           0       16.514404    0.037522    1.606535
    127          1           0       18.132608   -0.307086   -0.014648
    128          1           0       17.527372    0.882149   -1.204913
    129          1           0       18.410118    2.645962    1.044575
    130          1           0       18.567787    1.032503    1.772827
    131          1           0       20.264651    0.327622   -0.032902
    132          1           0       20.102467    3.273890   -1.109282
    133          1           0       21.287811    2.238983   -1.450840
    134          1           0       19.625855    1.702455   -2.080027
    135          1           0       21.317437    1.352037    1.925639
    136          1           0       22.252056    2.105402    0.728703
    137          1           0       21.007304    2.964900    1.620639
 ---------------------------------------------------------------------

 SCF Done:  E(RCAM-B3LYP) =  -2932.51189453     A.U. after   15 cycles

 Excitation energies and oscillator strengths:

 Excited State   1:      Singlet-A      2.2275 eV  556.60 nm  f=0.0904  <S**2>=0.000
     240 -> 242       -0.27665
     240 -> 243       -0.27036
     241 -> 242        0.50351
     241 -> 243       -0.29340
 This state for optimization and/or second-order correction.
 Total Energy, E(TD-HF/TD-KS) =  -2932.43003431
 Copying the excited state density for this state as the 1-particle RhoCI density.

 The electronic state is 1-A.
 Alpha  occ. eigenvalues --  -46.85073 -19.26388 -19.24477 -19.21829 -19.21284
 Alpha  occ. eigenvalues --  -19.20621 -14.41517 -14.39531 -14.38797 -14.38430
 Alpha  occ. eigenvalues --  -10.38921 -10.38712 -10.36074 -10.33447 -10.31905
 Alpha  occ. eigenvalues --  -10.31346 -10.30172 -10.30150 -10.29673 -10.28863
 Alpha  occ. eigenvalues --  -10.28813 -10.28741 -10.28479 -10.28126 -10.28059
 Alpha  occ. eigenvalues --  -10.28008 -10.27893 -10.27656 -10.27325 -10.27321
 Alpha  occ. eigenvalues --  -10.27240 -10.27131 -10.27112 -10.27055 -10.26811
 Alpha  occ. eigenvalues --  -10.26735 -10.26680 -10.26637 -10.26507 -10.26479
 Alpha  occ. eigenvalues --  -10.26477 -10.26475 -10.26444 -10.26379 -10.26243
 Alpha  occ. eigenvalues --  -10.26201 -10.26039 -10.25913 -10.25903 -10.25734
 Alpha  occ. eigenvalues --  -10.25723 -10.25451 -10.25279 -10.25262 -10.25250
 Alpha  occ. eigenvalues --  -10.25036 -10.24984 -10.24760 -10.24446 -10.24301
 Alpha  occ. eigenvalues --  -10.24235 -10.23604 -10.23601 -10.23008 -10.22986
 Alpha  occ. eigenvalues --   -3.13923  -1.88641  -1.88153  -1.88088  -1.18117
 Alpha  occ. eigenvalues --   -1.15723  -1.14443  -1.09183  -1.06924  -1.06802
 Alpha  occ. eigenvalues --   -1.05517  -1.02395  -1.00836  -0.93445  -0.92124
 Alpha  occ. eigenvalues --   -0.91541  -0.91009  -0.90083  -0.88770  -0.87840
 Alpha  occ. eigenvalues --   -0.87591  -0.87486  -0.87226  -0.87080  -0.86485
 Alpha  occ. eigenvalues --   -0.85852  -0.84525  -0.83972  -0.83626  -0.82136
 Alpha  occ. eigenvalues --   -0.81890  -0.81398  -0.80280  -0.79900  -0.79191
 Alpha  occ. eigenvalues --   -0.77972  -0.77134  -0.76619  -0.76495  -0.75969
 Alpha  occ. eigenvalues --   -0.75419  -0.75095  -0.73678  -0.73131  -0.72348
 Alpha  occ. eigenvalues --   -0.71444  -0.71182  -0.68997  -0.68980  -0.68757
 Alpha  occ. eigenvalues --   -0.66762  -0.66406  -0.65838  -0.64618  -0.64485
 Alpha  occ. eigenvalues --   -0.64322  -0.63852  -0.63540  -0.62252  -0.61866
 Alpha  occ. eigenvalues --   -0.61734  -0.61564  -0.60543  -0.59540  -0.59347
 Alpha  occ. eigenvalues --   -0.58877  -0.58229  -0.58104  -0.57898  -0.57218
 Alpha  occ. eigenvalues --   -0.56530  -0.55575  -0.55127  -0.54977  -0.54748
 Alpha  occ. eigenvalues --   -0.54519  -0.54452  -0.53970  -0.53353  -0.53199
 Alpha  occ. eigenvalues --   -0.53164  -0.52706  -0.52418  -0.52267  -0.52089
 Alpha  occ. eigenvalues --   -0.51909  -0.51730  -0.51553  -0.51247  -0.51137
 Alpha  occ. eigenvalues --   -0.50749  -0.50670  -0.50519  -0.49935  -0.49750
 Alpha  occ. eigenvalues --   -0.49693  -0.49425  -0.49218  -0.49035  -0.48847
 Alpha  occ. eigenvalues --   -0.48732  -0.48179  -0.48008  -0.47810  -0.47732
 Alpha  occ. eigenvalues --   -0.47090  -0.46883  -0.46839  -0.46620  -0.46408
 Alpha  occ. eigenvalues --   -0.46238  -0.46092  -0.45561  -0.45375  -0.45091
 Alpha  occ. eigenvalues --   -0.44951  -0.44763  -0.44725  -0.44637  -0.44419
 Alpha  occ. eigenvalues --   -0.44354  -0.44115  -0.44042  -0.43812  -0.43559
 Alpha  occ. eigenvalues --   -0.43234  -0.43008  -0.42939  -0.42739  -0.42180
 Alpha  occ. eigenvalues --   -0.42041  -0.41883  -0.41416  -0.41410  -0.41004
 Alpha  occ. eigenvalues --   -0.40926  -0.40913  -0.40656  -0.40542  -0.40496
 Alpha  occ. eigenvalues --   -0.40336  -0.40246  -0.39391  -0.39309  -0.38828
 Alpha  occ. eigenvalues --   -0.38251  -0.38021  -0.37905  -0.37709  -0.37416
 Alpha  occ. eigenvalues --   -0.37280  -0.36977  -0.36965  -0.36461  -0.36249
 Alpha  occ. eigenvalues --   -0.36229  -0.36111  -0.35592  -0.35533  -0.35374
 Alpha  occ. eigenvalues --   -0.35253  -0.34718  -0.34643  -0.34061  -0.33496
 Alpha  occ. eigenvalues --   -0.33141  -0.32437  -0.32192  -0.30791  -0.30316
 Alpha  occ. eigenvalues --   -0.30128  -0.29911  -0.27519  -0.25649  -0.22931
 Alpha  occ. eigenvalues --   -0.21191
 Alpha virt. eigenvalues --   -0.05304  -0.03951   0.01226   0.04957   0.05285
 Alpha virt. eigenvalues --    0.05575   0.06009   0.06471   0.07069   0.07393
 Alpha virt. eigenvalues --    0.08930   0.09285   0.10616   0.10947   0.11185

 Mulliken charges:
               1
     1  Mg   0.825722
     2  C    0.050465
     3  C   -0.177996
     4  C   -0.178139
     5  C   -0.226447
     6  N   -0.634923
     7  C    0.289149
     8  C   -0.162715
     9  C   -0.191293
    10  C    0.378374
    11  C   -0.299025
    12  C   -0.136026
    13  C   -0.259212
    14  C    0.608811
    15  O   -0.460055
    16  O   -0.531394
    17  N   -0.715607
    18  C    0.262817
    19  C    0.013307
    20  C   -0.025434
    21  C    0.351258
    22  C   -0.357690
    23  C   -0.095111
    24  C   -0.251521
    25  N   -0.705274
    26  C    0.277012
    27  C    0.037086
    28  C   -0.008018
    29  C    0.300114
    30  C   -0.374840
    31  C   -0.243216
    32  C   -0.303508
    33  N   -0.747445
    34  C    0.354005
    35  C   -0.009176
    36  C   -0.063651
    37  C    0.366407
    38  C   -0.344331
    39  C    0.382465
    40  O   -0.406907
    41  C   -0.327609
    42  C    0.623573
    43  O   -0.481210
    44  O   -0.482521
    45  C   -0.093521
    46  C    0.048802
    47  C   -0.066812
    48  C    0.086066
    49  C   -0.364064
    50  C   -0.225237
    51  C   -0.167765
    52  C   -0.138112
    53  C   -0.045385
    54  C   -0.313290
    55  C   -0.166597
    56  C   -0.191402
    57  C   -0.152594
    58  C   -0.053204
    59  C   -0.335652
    60  C   -0.184086
    61  C   -0.183757
    62  C   -0.183131
    63  C   -0.064889
    64  C   -0.303143
    65  C   -0.320524
    66  H    0.081619
    67  H    0.085107
    68  H    0.079775
    69  H    0.128362
    70  H    0.099661
    71  H    0.114012
    72  H    0.094793
    73  H    0.102373
    74  H    0.122238
    75  H    0.116878
    76  H    0.133492
    77  H    0.112065
    78  H    0.105973
    79  H    0.145659
    80  H    0.128136
    81  H    0.092130
    82  H    0.103711
    83  H    0.084382
    84  H    0.133813
    85  H    0.104758
    86  H    0.131177
    87  H    0.080650
    88  H    0.113237
    89  H    0.081611
    90  H    0.121532
    91  H    0.092553
    92  H    0.149352
    93  H    0.146622
    94  H    0.139585
    95  H    0.162348
    96  H    0.127601
    97  H    0.170937
    98  H    0.149629
    99  H    0.101428
   100  H    0.117165
   101  H    0.089693
   102  H    0.092567
   103  H    0.105777
   104  H    0.143830
   105  H    0.110546
   106  H    0.083170
   107  H    0.102957
   108  H    0.087567
   109  H    0.028412
   110  H    0.092645
   111  H    0.083840
   112  H    0.113073
   113  H    0.089074
   114  H    0.071426
   115  H    0.084856
   116  H    0.086632
   117  H    0.104625
   118  H    0.055992
   119  H    0.090306
   120  H    0.100114
   121  H    0.090911
   122  H    0.104124
   123  H    0.110411
   124  H    0.099857
   125  H    0.083019
   126  H    0.070660
   127  H    0.115017
   128  H    0.097491
   129  H    0.054487
   130  H    0.075992
   131  H    0.083960
   132  H    0.095772
   133  H    0.098037
   134  H    0.107017
   135  H    0.120102
   136  H    0.101459
   137  H    0.118245
 Sum of Mulliken charges =   0.00000

 Dipole moment (field-independent basis, Debye):
    X=              2.4695    Y=              1.2765    Z=              0.3986  Tot=              2.8084
 Quadrupole moment (field-independent basis, Debye-Ang):
   XX=           -349.1362   YY=           -387.2508   ZZ=           -397.3622
   XY=            -12.8658   XZ=              9.4581   YZ=             -6.8487

 Normal termination of Gaussian 09 at Sun Jul  7 02:50:21 2019.
