 Gaussian 16, Revision A.03,
 Gaussian 16:  ES64L-G16RevA.03 25-Dec-2016

 ----------------------------------------------------------------------
 # td=(NStates=1) iop(3/107=0140000000,3/108=0140000000) CAM-B3LYP/6-31
 G(d,p)
 ----------------------------------------------------------------------

 --
 TD
 --
 Symbolic Z-matrix:
 Charge =  0 Multiplicity = 1

                         Standard orientation:
 ---------------------------------------------------------------------
 Center     Atomic      Atomic             Coordinates (Angstroms)
 Number     Number       Type             X           Y           Z
 ---------------------------------------------------------------------
      1         12           0       -7.037878    0.615475    0.134129
      2          6           0       -4.930264   -2.056672    0.455983
      3          6           0       -4.676461    2.799423    1.080498
      4          6           0       -9.361969    3.150202   -0.354680
      5          6           0       -9.591189   -1.624386   -0.836684
      6          7           0       -5.069231    0.412846    0.783384
      7          6           0       -4.356410   -0.766110    0.824259
      8          6           0       -2.912308   -0.434766    1.141775
      9          6           0       -3.001986    1.009940    1.649479
     10          6           0       -4.343042    1.441885    1.066763
     11          6           0       -2.994567    1.105041    3.234244
     12          6           0       -1.935413   -0.526406   -0.158723
     13          6           0       -0.455975   -0.487555    0.308845
     14          6           0        0.561582   -0.705986   -0.755377
     15          8           0        0.186115   -1.157655   -1.828996
     16          8           0        1.784576   -0.464644   -0.269727
     17          7           0       -7.038434    2.601202    0.320607
     18          6           0       -5.944762    3.398069    0.800119
     19          6           0       -6.312050    4.816345    0.898024
     20          6           0       -7.655770    4.900724    0.377901
     21          6           0       -8.112797    3.474846    0.097907
     22          6           0       -5.328163    5.892090    1.225975
     23          6           0       -8.589130    6.067950    0.217510
     24          6           0       -8.342418    7.325349    0.733071
     25          7           0       -9.081527    0.774959   -0.507147
     26          6           0       -9.864085    1.953021   -0.602069
     27          6           0      -11.257680    1.490144   -1.072462
     28          6           0      -11.229674    0.189809   -1.239182
     29          6           0       -9.848116   -0.271561   -0.793158
     30          6           0      -12.234318    2.556057   -1.272950
     31          6           0      -12.333351   -0.525149   -1.773704
     32          6           0      -12.167666   -1.001145   -3.224263
     33          7           0       -7.204391   -1.382808   -0.245255
     34          6           0       -8.328182   -2.175097   -0.587795
     35          6           0       -7.876283   -3.594808   -0.483151
     36          6           0       -6.583710   -3.559350   -0.054987
     37          6           0       -6.214736   -2.183878    0.084567
     38          6           0       -8.666269   -4.690732   -0.974297
     39          6           0       -5.445956   -4.358134    0.293347
     40          8           0       -5.395142   -5.576525    0.308524
     41          6           0       -4.217037   -3.369317    0.564543
     42          6           0       -3.555047   -3.745117    1.841005
     43          8           0       -3.690688   -3.230785    2.912085
     44          8           0       -2.665168   -4.763661    1.731388
     45          6           0       -2.242957   -5.332947    2.921385
     46          6           0        2.735624   -0.750634   -1.215276
     47          6           0        4.135733   -0.611415   -0.554699
     48          6           0        5.131094    0.175467   -0.941752
     49          6           0        5.135923    1.080011   -2.194327
     50          6           0        6.450532    0.329067   -0.197417
     51          6           0        7.641769   -0.306751   -0.906754
     52          6           0        8.863390   -0.203102   -0.134703
     53          6           0       10.225543   -0.571278   -0.817912
     54          6           0       10.243831   -2.014687   -1.209228
     55          6           0       11.341501   -0.384830    0.090793
     56          6           0       12.806565   -0.614398   -0.624275
     57          6           0       13.917160   -0.216630    0.285500
     58          6           0       15.259526   -0.252322   -0.384407
     59          6           0       15.675307   -1.610107   -1.095312
     60          6           0       16.493808    0.225012    0.609805
     61          6           0       17.729491    0.573426   -0.221920
     62          6           0       18.729476    1.196988    0.789595
     63          6           0       20.110310    1.615971    0.071853
     64          6           0       19.997553    2.631692   -1.067885
     65          6           0       21.175603    2.079395    1.226457
     66          1           0       -3.904720    3.444115    1.503329
     67          1           0      -10.116672    4.003849   -0.480057
     68          1           0      -10.286832   -2.383023   -1.078191
     69          1           0       -2.456378   -1.221404    2.058777
     70          1           0       -2.164410    1.722092    1.220950
     71          1           0       -1.996198    0.678487    3.623219
     72          1           0       -3.060217    2.195239    3.567138
     73          1           0       -3.689814    0.439139    3.828640
     74          1           0       -2.073325   -1.439956   -0.593313
     75          1           0       -2.124186    0.514878   -0.826701
     76          1           0       -0.300657    0.355955    1.089693
     77          1           0       -0.391200   -1.336913    1.038694
     78          1           0       -5.774631    6.785945    0.618076
     79          1           0       -5.188522    6.407444    2.181604
     80          1           0       -4.241340    5.511349    0.684800
     81          1           0       -9.339546    5.796595   -0.696540
     82          1           0       -9.032705    8.094325    0.577149
     83          1           0       -7.479243    7.587221    1.381425
     84          1           0      -12.000378    3.164230   -2.208317
     85          1           0      -13.241290    2.005049   -1.388066
     86          1           0      -12.474968    3.122788   -0.421622
     87          1           0      -12.499090   -1.463120   -1.131229
     88          1           0      -13.331434    0.038725   -1.675614
     89          1           0      -13.163238   -1.373750   -3.518109
     90          1           0      -11.968937   -0.027893   -3.956091
     91          1           0      -11.292452   -1.868140   -3.293867
     92          1           0       -8.973397   -4.760440   -2.099145
     93          1           0       -8.079494   -5.674318   -0.445296
     94          1           0       -9.552833   -4.860155   -0.532798
     95          1           0       -3.350311   -3.609961   -0.327716
     96          1           0       -1.551741   -4.556010    3.486337
     97          1           0       -2.859516   -5.731244    3.529828
     98          1           0       -1.546235   -6.287143    2.573446
     99          1           0        2.621530   -1.839712   -1.479153
    100          1           0        2.399165   -0.207523   -2.118543
    101          1           0        3.957254   -0.975003    0.503827
    102          1           0        4.113883    1.260003   -2.677460
    103          1           0        5.380481    2.098767   -1.811786
    104          1           0        5.801211    0.803415   -3.172119
    105          1           0        6.550053    1.235962    0.207546
    106          1           0        6.312222    0.013265    0.774212
    107          1           0        7.482500   -1.258982   -1.230574
    108          1           0        7.878591    0.382955   -1.777045
    109          1           0        9.074431    0.806570    0.097157
    110          1           0        8.570538   -0.806299    0.769341
    111          1           0       10.169285   -0.039043   -1.696911
    112          1           0        9.289196   -2.389824   -1.850338
    113          1           0       10.922974   -2.312641   -1.958905
    114          1           0       10.490508   -2.676662   -0.339987
    115          1           0       11.270929    0.666998    0.482651
    116          1           0       11.346691   -1.150809    0.832003
    117          1           0       12.914056   -1.744206   -1.028437
    118          1           0       12.785247    0.075436   -1.412679
    119          1           0       13.836044    0.687588    0.784758
    120          1           0       13.881693   -1.129664    1.086701
    121          1           0       15.158373    0.598064   -1.107086
    122          1           0       15.815752   -2.397105   -0.307068
    123          1           0       14.917135   -2.045513   -1.971276
    124          1           0       16.516019   -1.822536   -1.623038
    125          1           0       16.174399    1.330537    0.748177
    126          1           0       16.900265   -0.439191    1.451836
    127          1           0       18.039464   -0.496737   -0.245909
    128          1           0       17.504425    1.001996   -1.240258
    129          1           0       18.402048    2.252429    1.045466
    130          1           0       18.928417    0.973677    1.731882
    131          1           0       20.596212    0.836267   -0.388845
    132          1           0       19.351938    3.586538   -0.637506
    133          1           0       21.081954    3.074270   -1.192382
    134          1           0       19.478078    2.110049   -1.911851
    135          1           0       21.098614    1.369038    2.037489
    136          1           0       22.236492    2.276918    0.799944
    137          1           0       21.000443    3.137898    1.787744
 ---------------------------------------------------------------------

 SCF Done:  E(RCAM-B3LYP) =  -2933.41947500     A.U. after   16 cycles

 Excitation energies and oscillator strengths:

 Excited State   1:      Singlet-A      1.9514 eV  635.37 nm  f=0.3120  <S**2>=0.000
     240 -> 243        0.22709
     241 -> 242        0.67011
 This state for optimization and/or second-order correction.
 Total Energy, E(TD-HF/TD-DFT) =  -2933.34776401
 Copying the excited state density for this state as the 1-particle RhoCI density.

 The electronic state is 1-A.
 Alpha  occ. eigenvalues --  -46.79971 -19.23414 -19.21512 -19.17326 -19.16391
 Alpha  occ. eigenvalues --  -19.16310 -14.38029 -14.35614 -14.35469 -14.35351
 Alpha  occ. eigenvalues --  -10.34934 -10.34368 -10.30689 -10.27289 -10.27180
 Alpha  occ. eigenvalues --  -10.26688 -10.26046 -10.25771 -10.25717 -10.25379
 Alpha  occ. eigenvalues --  -10.25242 -10.25201 -10.24975 -10.24893 -10.24252
 Alpha  occ. eigenvalues --  -10.24243 -10.24094 -10.23916 -10.23887 -10.23672
 Alpha  occ. eigenvalues --  -10.23648 -10.23648 -10.23584 -10.23483 -10.23418
 Alpha  occ. eigenvalues --  -10.23230 -10.23155 -10.23035 -10.22871 -10.22652
 Alpha  occ. eigenvalues --  -10.22383 -10.22375 -10.22262 -10.22233 -10.22211
 Alpha  occ. eigenvalues --  -10.22163 -10.22108 -10.22030 -10.21934 -10.21753
 Alpha  occ. eigenvalues --  -10.21585 -10.21541 -10.21372 -10.21260 -10.21177
 Alpha  occ. eigenvalues --  -10.20935 -10.20865 -10.20749 -10.20634 -10.20598
 Alpha  occ. eigenvalues --  -10.20321 -10.20234 -10.20143 -10.19841 -10.19781
 Alpha  occ. eigenvalues --   -3.08589  -1.83533  -1.83052  -1.83003  -1.15708
 Alpha  occ. eigenvalues --   -1.14210  -1.06156  -1.05819  -1.04758  -1.00832
 Alpha  occ. eigenvalues --   -0.99004  -0.97443  -0.95081  -0.88324  -0.86999
 Alpha  occ. eigenvalues --   -0.85216  -0.85039  -0.84364  -0.84101  -0.83826
 Alpha  occ. eigenvalues --   -0.83213  -0.82492  -0.82324  -0.81993  -0.81188
 Alpha  occ. eigenvalues --   -0.80048  -0.79390  -0.78881  -0.78461  -0.77702
 Alpha  occ. eigenvalues --   -0.77230  -0.76358  -0.75560  -0.74428  -0.73115
 Alpha  occ. eigenvalues --   -0.72644  -0.71954  -0.71812  -0.71525  -0.70492
 Alpha  occ. eigenvalues --   -0.70366  -0.69872  -0.69266  -0.68944  -0.67855
 Alpha  occ. eigenvalues --   -0.67104  -0.66430  -0.64964  -0.64560  -0.64238
 Alpha  occ. eigenvalues --   -0.62809  -0.62627  -0.61275  -0.60736  -0.60604
 Alpha  occ. eigenvalues --   -0.59819  -0.59568  -0.59413  -0.58595  -0.58554
 Alpha  occ. eigenvalues --   -0.57762  -0.56910  -0.55958  -0.55646  -0.55261
 Alpha  occ. eigenvalues --   -0.54669  -0.53957  -0.53709  -0.53481  -0.52888
 Alpha  occ. eigenvalues --   -0.52406  -0.52158  -0.51647  -0.51407  -0.51269
 Alpha  occ. eigenvalues --   -0.50690  -0.50343  -0.50281  -0.49726  -0.49679
 Alpha  occ. eigenvalues --   -0.49198  -0.48954  -0.48288  -0.48218  -0.48019
 Alpha  occ. eigenvalues --   -0.47513  -0.47485  -0.47145  -0.46948  -0.46849
 Alpha  occ. eigenvalues --   -0.46803  -0.46603  -0.46361  -0.46064  -0.45598
 Alpha  occ. eigenvalues --   -0.45378  -0.45316  -0.44969  -0.44793  -0.44657
 Alpha  occ. eigenvalues --   -0.44367  -0.44145  -0.44062  -0.43826  -0.43454
 Alpha  occ. eigenvalues --   -0.43176  -0.42890  -0.42646  -0.42523  -0.42507
 Alpha  occ. eigenvalues --   -0.42389  -0.42072  -0.41781  -0.41656  -0.41404
 Alpha  occ. eigenvalues --   -0.41200  -0.41047  -0.40624  -0.40529  -0.40486
 Alpha  occ. eigenvalues --   -0.40391  -0.40231  -0.40190  -0.39864  -0.39614
 Alpha  occ. eigenvalues --   -0.39404  -0.39289  -0.39145  -0.38887  -0.38652
 Alpha  occ. eigenvalues --   -0.38625  -0.38366  -0.38311  -0.38262  -0.37781
 Alpha  occ. eigenvalues --   -0.37303  -0.37067  -0.36827  -0.36761  -0.36616
 Alpha  occ. eigenvalues --   -0.36270  -0.36057  -0.35910  -0.35872  -0.35734
 Alpha  occ. eigenvalues --   -0.35513  -0.35382  -0.35255  -0.35167  -0.34822
 Alpha  occ. eigenvalues --   -0.34573  -0.34136  -0.33986  -0.33484  -0.33386
 Alpha  occ. eigenvalues --   -0.33130  -0.32920  -0.32548  -0.32516  -0.32238
 Alpha  occ. eigenvalues --   -0.32137  -0.31493  -0.30776  -0.30621  -0.30538
 Alpha  occ. eigenvalues --   -0.29980  -0.29719  -0.29619  -0.28492  -0.27719
 Alpha  occ. eigenvalues --   -0.27491  -0.26998  -0.26561  -0.24614  -0.22090
 Alpha  occ. eigenvalues --   -0.19421
 Alpha virt. eigenvalues --   -0.07141  -0.03649  -0.00911   0.01485   0.03127
 Alpha virt. eigenvalues --    0.03549   0.04251   0.04647   0.04990   0.05538
 Alpha virt. eigenvalues --    0.05667   0.08088   0.09043   0.09162   0.09459

 Mulliken charges:
               1
     1  Mg   0.802495
     2  C    0.077701
     3  C   -0.193096
     4  C   -0.202927
     5  C   -0.156722
     6  N   -0.634954
     7  C    0.309362
     8  C   -0.178116
     9  C   -0.138325
    10  C    0.368760
    11  C   -0.309736
    12  C   -0.136188
    13  C   -0.285770
    14  C    0.631776
    15  O   -0.476281
    16  O   -0.429222
    17  N   -0.718564
    18  C    0.295879
    19  C    0.040587
    20  C   -0.002051
    21  C    0.327606
    22  C   -0.383584
    23  C   -0.070213
    24  C   -0.255600
    25  N   -0.690527
    26  C    0.291042
    27  C    0.058560
    28  C    0.073627
    29  C    0.347538
    30  C   -0.385302
    31  C   -0.283165
    32  C   -0.278857
    33  N   -0.762657
    34  C    0.259538
    35  C   -0.004314
    36  C    0.094427
    37  C    0.349865
    38  C   -0.402990
    39  C    0.342272
    40  O   -0.458582
    41  C   -0.329584
    42  C    0.622787
    43  O   -0.465434
    44  O   -0.432186
    45  C   -0.062760
    46  C    0.004451
    47  C   -0.151085
    48  C    0.116084
    49  C   -0.352716
    50  C   -0.220212
    51  C   -0.153373
    52  C   -0.168734
    53  C   -0.036562
    54  C   -0.316105
    55  C   -0.172548
    56  C   -0.183805
    57  C   -0.141821
    58  C   -0.048927
    59  C   -0.322694
    60  C   -0.185519
    61  C   -0.179050
    62  C   -0.172134
    63  C   -0.053458
    64  C   -0.288641
    65  C   -0.332325
    66  H    0.078197
    67  H    0.081942
    68  H    0.080986
    69  H    0.090411
    70  H    0.091120
    71  H    0.097858
    72  H    0.104123
    73  H    0.131753
    74  H    0.125980
    75  H    0.090008
    76  H    0.113963
    77  H    0.132150
    78  H    0.110981
    79  H    0.132491
    80  H    0.092668
    81  H    0.093407
    82  H    0.107884
    83  H    0.105325
    84  H    0.124232
    85  H    0.089824
    86  H    0.135911
    87  H    0.094476
    88  H    0.099653
    89  H    0.111362
    90  H    0.088032
    91  H    0.091292
    92  H    0.125516
    93  H    0.114871
    94  H    0.138173
    95  H    0.146050
    96  H    0.097142
    97  H    0.143442
    98  H    0.089076
    99  H    0.115137
   100  H    0.118484
   101  H    0.096210
   102  H    0.099005
   103  H    0.117165
   104  H    0.106711
   105  H    0.103900
   106  H    0.089369
   107  H    0.111560
   108  H    0.078368
   109  H    0.085855
   110  H    0.076215
   111  H    0.085249
   112  H    0.064503
   113  H    0.110845
   114  H    0.096596
   115  H    0.074585
   116  H    0.102982
   117  H    0.092254
   118  H    0.092137
   119  H    0.099847
   120  H    0.056673
   121  H    0.076537
   122  H    0.095446
   123  H    0.067131
   124  H    0.121768
   125  H    0.079384
   126  H    0.097891
   127  H    0.097367
   128  H    0.104702
   129  H    0.080082
   130  H    0.102673
   131  H    0.101988
   132  H    0.071786
   133  H    0.095657
   134  H    0.103591
   135  H    0.107161
   136  H    0.091945
   137  H    0.074000
 Sum of Mulliken charges =  -0.00000

 Dipole moment (field-independent basis, Debye):
    X=              1.0409    Y=              4.0997    Z=              0.4467  Tot=              4.2533
 Quadrupole moment (field-independent basis, Debye-Ang):
   XX=           -335.4879   YY=           -398.0795   ZZ=           -400.1819
   XY=            -22.4002   XZ=              9.5238   YZ=             -0.2138

 Normal termination of Gaussian 16 at Thu Sep 12 23:25:55 2019.
