 Gaussian 16, Revision A.03,
 Gaussian 16:  ES64L-G16RevA.03 25-Dec-2016

 ----------------------------------------------------------------------
 # td=(NStates=1) iop(3/107=0140000000,3/108=0140000000) CAM-B3LYP/6-31
 G(d,p)
 ----------------------------------------------------------------------

 --
 TD
 --
 Symbolic Z-matrix:
 Charge =  0 Multiplicity = 1

                         Standard orientation:
 ---------------------------------------------------------------------
 Center     Atomic      Atomic             Coordinates (Angstroms)
 Number     Number       Type             X           Y           Z
 ---------------------------------------------------------------------
      1         12           0       -7.125563    0.664184    0.158940
      2          6           0       -4.786564   -1.956722    0.600359
      3          6           0       -4.731385    2.839861    1.187775
      4          6           0       -9.342609    3.163978   -0.493176
      5          6           0       -9.599807   -1.641502   -0.905059
      6          7           0       -5.140393    0.402798    0.856881
      7          6           0       -4.292229   -0.765524    0.796116
      8          6           0       -2.884540   -0.376998    1.265477
      9          6           0       -2.948294    1.007225    1.647203
     10          6           0       -4.411979    1.465186    1.184990
     11          6           0       -2.750437    1.266597    3.217202
     12          6           0       -1.961454   -0.620994    0.127868
     13          6           0       -0.535872   -0.537835    0.475328
     14          6           0        0.435865   -0.912748   -0.561471
     15          8           0        0.196736   -1.355395   -1.665627
     16          8           0        1.787739   -0.744176   -0.196222
     17          7           0       -7.057429    2.689214    0.242959
     18          6           0       -5.918809    3.455524    0.779852
     19          6           0       -6.350603    4.815994    0.856616
     20          6           0       -7.650591    4.902425    0.397817
     21          6           0       -8.062939    3.564917    0.061914
     22          6           0       -5.503224    5.902135    1.230159
     23          6           0       -8.484197    6.065150    0.192020
     24          6           0       -8.425634    7.365361    0.744704
     25          7           0       -8.989268    0.778727   -0.651992
     26          6           0       -9.791300    1.835726   -0.749180
     27          6           0      -11.179707    1.555143   -1.273082
     28          6           0      -11.223146    0.218666   -1.342906
     29          6           0       -9.906488   -0.309052   -0.928289
     30          6           0      -12.175353    2.615857   -1.497202
     31          6           0      -12.378120   -0.550158   -1.851525
     32          6           0      -12.281965   -1.173729   -3.252669
     33          7           0       -7.258378   -1.379462   -0.060699
     34          6           0       -8.338010   -2.210784   -0.474638
     35          6           0       -7.819573   -3.556334   -0.458912
     36          6           0       -6.534596   -3.524950   -0.012459
     37          6           0       -6.157340   -2.174708    0.242953
     38          6           0       -8.686139   -4.694064   -0.891059
     39          6           0       -5.363288   -4.361904    0.277495
     40          8           0       -5.332021   -5.580417    0.209732
     41          6           0       -4.149011   -3.391043    0.591297
     42          6           0       -3.503238   -3.809511    1.932493
     43          8           0       -3.635802   -3.253130    3.023129
     44          8           0       -2.712583   -4.813705    1.738721
     45          6           0       -2.060607   -5.406069    2.819178
     46          6           0        2.779799   -0.862576   -1.245875
     47          6           0        4.018772   -0.492048   -0.464896
     48          6           0        5.097439    0.271758   -0.968800
     49          6           0        4.936345    1.255372   -2.062480
     50          6           0        6.360927    0.354024   -0.167635
     51          6           0        7.613093   -0.246002   -0.981444
     52          6           0        8.871859   -0.152770   -0.162680
     53          6           0       10.171510   -0.553022   -0.972839
     54          6           0       10.003788   -2.071091   -1.363359
     55          6           0       11.368743   -0.319900   -0.042576
     56          6           0       12.723390   -0.583079   -0.721715
     57          6           0       13.934707   -0.133468    0.178826
     58          6           0       15.328688   -0.108675   -0.456567
     59          6           0       15.756187   -1.538639   -0.988197
     60          6           0       16.408514    0.515793    0.432517
     61          6           0       17.750944    0.613828   -0.166260
     62          6           0       18.716334    1.337779    0.776515
     63          6           0       20.216868    1.487014    0.198856
     64          6           0       20.273232    2.302232   -1.096437
     65          6           0       21.116853    2.078849    1.272509
     66          1           0       -4.081227    3.604591    1.569855
     67          1           0      -10.046093    3.878467   -0.656938
     68          1           0      -10.226422   -2.450896   -1.033867
     69          1           0       -2.657967   -1.118356    2.062500
     70          1           0       -2.164832    1.766685    1.117915
     71          1           0       -1.777537    0.936653    3.419843
     72          1           0       -2.682015    2.246133    3.712476
     73          1           0       -3.619695    0.708358    3.729552
     74          1           0       -2.225560   -1.508076   -0.297500
     75          1           0       -2.072721   -0.028595   -0.823343
     76          1           0       -0.191714    0.510069    0.909095
     77          1           0       -0.286376   -1.009239    1.487213
     78          1           0       -5.797159    6.790500    0.757191
     79          1           0       -5.504345    6.225394    2.313352
     80          1           0       -4.516890    5.635527    0.896036
     81          1           0       -9.495128    5.638049   -0.334395
     82          1           0       -9.211579    8.009746    0.594940
     83          1           0       -7.491529    7.550796    1.313192
     84          1           0      -11.970083    3.284819   -2.142607
     85          1           0      -13.176504    2.057780   -1.843990
     86          1           0      -12.434263    3.049404   -0.448836
     87          1           0      -12.591464   -1.391458   -1.290351
     88          1           0      -13.210759    0.091672   -1.670658
     89          1           0      -12.991904   -1.852465   -3.341434
     90          1           0      -12.194168   -0.255593   -3.891922
     91          1           0      -11.222284   -1.805725   -3.300935
     92          1           0       -9.209904   -4.633666   -1.914638
     93          1           0       -8.116120   -5.727009   -1.030030
     94          1           0       -9.578800   -4.750147   -0.177658
     95          1           0       -3.372519   -3.488922   -0.179019
     96          1           0       -1.481535   -4.626667    3.249631
     97          1           0       -2.927635   -5.484054    3.491612
     98          1           0       -1.961515   -6.577380    2.364571
     99          1           0        2.656425   -1.961588   -1.514892
    100          1           0        2.387235   -0.178342   -1.954487
    101          1           0        4.182425   -1.241187    0.292205
    102          1           0        3.860971    1.268568   -2.631110
    103          1           0        4.961820    2.285913   -1.717016
    104          1           0        5.624366    0.988223   -2.922987
    105          1           0        6.600102    1.390429    0.094800
    106          1           0        6.516099   -0.161096    0.690701
    107          1           0        7.311697   -1.321928   -1.360946
    108          1           0        7.605157    0.126757   -1.941038
    109          1           0        8.928273    0.818182    0.109575
    110          1           0        8.672247   -0.711825    0.892480
    111          1           0       10.224044    0.093750   -1.855717
    112          1           0        9.100316   -1.956958   -2.059823
    113          1           0       10.955291   -2.470805   -1.757053
    114          1           0        9.736513   -2.888326   -0.554047
    115          1           0       11.425223    0.816795    0.054051
    116          1           0       11.404992   -0.931613    0.856899
    117          1           0       12.938533   -1.742717   -0.963807
    118          1           0       12.877218   -0.272777   -1.741402
    119          1           0       13.658327    0.878654    0.402586
    120          1           0       14.162913   -0.760099    1.010636
    121          1           0       15.418101    0.471695   -1.497441
    122          1           0       16.014303   -2.369526   -0.180043
    123          1           0       14.978408   -2.347481   -1.585234
    124          1           0       16.681911   -1.519831   -1.525666
    125          1           0       16.270067    1.614504    0.721479
    126          1           0       16.449234   -0.049892    1.459589
    127          1           0       18.228021   -0.457389   -0.300302
    128          1           0       17.775431    1.016804   -1.159663
    129          1           0       18.450898    2.390058    1.114919
    130          1           0       18.786827    0.705329    1.577472
    131          1           0       20.486635    0.461845    0.035175
    132          1           0       19.852683    3.232927   -0.981187
    133          1           0       21.238785    2.350098   -1.481903
    134          1           0       19.602030    1.854993   -1.815645
    135          1           0       21.240510    1.360447    2.183063
    136          1           0       22.174304    2.070051    0.892703
    137          1           0       21.073540    3.113425    1.399142
 ---------------------------------------------------------------------

 SCF Done:  E(RCAM-B3LYP) =  -2933.53736907     A.U. after   16 cycles

 Excitation energies and oscillator strengths:

 Excited State   1:      Singlet-A      1.9252 eV  643.99 nm  f=0.3066  <S**2>=0.000
     240 -> 243        0.17258
     241 -> 242        0.68441
 This state for optimization and/or second-order correction.
 Total Energy, E(TD-HF/TD-DFT) =  -2933.46661792
 Copying the excited state density for this state as the 1-particle RhoCI density.

 The electronic state is 1-A.
 Alpha  occ. eigenvalues --  -46.79488 -19.22089 -19.19150 -19.16428 -19.16071
 Alpha  occ. eigenvalues --  -19.15381 -14.38183 -14.35831 -14.35069 -14.34579
 Alpha  occ. eigenvalues --  -10.34389 -10.34007 -10.29963 -10.27895 -10.27465
 Alpha  occ. eigenvalues --  -10.26380 -10.25962 -10.25639 -10.25425 -10.25332
 Alpha  occ. eigenvalues --  -10.25087 -10.24837 -10.24665 -10.24658 -10.24209
 Alpha  occ. eigenvalues --  -10.24017 -10.23844 -10.23755 -10.23161 -10.22986
 Alpha  occ. eigenvalues --  -10.22921 -10.22714 -10.22700 -10.22632 -10.22614
 Alpha  occ. eigenvalues --  -10.22549 -10.22534 -10.22468 -10.22417 -10.22357
 Alpha  occ. eigenvalues --  -10.22295 -10.22158 -10.22128 -10.22039 -10.21903
 Alpha  occ. eigenvalues --  -10.21775 -10.21735 -10.21699 -10.21549 -10.21373
 Alpha  occ. eigenvalues --  -10.21372 -10.21363 -10.21343 -10.21253 -10.21232
 Alpha  occ. eigenvalues --  -10.21216 -10.21143 -10.20930 -10.20809 -10.20793
 Alpha  occ. eigenvalues --  -10.20328 -10.20166 -10.20040 -10.19742 -10.18575
 Alpha  occ. eigenvalues --   -3.08091  -1.83037  -1.82587  -1.82469  -1.15560
 Alpha  occ. eigenvalues --   -1.10815  -1.05099  -1.03732  -1.02742  -0.98572
 Alpha  occ. eigenvalues --   -0.97835  -0.96893  -0.95664  -0.87387  -0.86428
 Alpha  occ. eigenvalues --   -0.85585  -0.85154  -0.85089  -0.84480  -0.83864
 Alpha  occ. eigenvalues --   -0.83163  -0.82577  -0.82187  -0.81275  -0.80889
 Alpha  occ. eigenvalues --   -0.79985  -0.79751  -0.79522  -0.78352  -0.78118
 Alpha  occ. eigenvalues --   -0.76810  -0.76752  -0.75958  -0.74565  -0.73917
 Alpha  occ. eigenvalues --   -0.73484  -0.73382  -0.71745  -0.71688  -0.70854
 Alpha  occ. eigenvalues --   -0.69958  -0.69846  -0.69398  -0.68728  -0.67832
 Alpha  occ. eigenvalues --   -0.66855  -0.66351  -0.65751  -0.64558  -0.63777
 Alpha  occ. eigenvalues --   -0.62593  -0.62316  -0.61026  -0.60666  -0.60349
 Alpha  occ. eigenvalues --   -0.60125  -0.58984  -0.58866  -0.58590  -0.57889
 Alpha  occ. eigenvalues --   -0.57301  -0.56903  -0.56480  -0.55799  -0.55225
 Alpha  occ. eigenvalues --   -0.54905  -0.54530  -0.54095  -0.53327  -0.52736
 Alpha  occ. eigenvalues --   -0.52536  -0.51862  -0.51553  -0.51140  -0.50716
 Alpha  occ. eigenvalues --   -0.50477  -0.50225  -0.50021  -0.49544  -0.49400
 Alpha  occ. eigenvalues --   -0.48977  -0.48735  -0.48542  -0.48216  -0.48096
 Alpha  occ. eigenvalues --   -0.47900  -0.47624  -0.47288  -0.47090  -0.46966
 Alpha  occ. eigenvalues --   -0.46824  -0.46699  -0.46622  -0.46419  -0.45996
 Alpha  occ. eigenvalues --   -0.45895  -0.45683  -0.45526  -0.44789  -0.44733
 Alpha  occ. eigenvalues --   -0.44602  -0.44344  -0.44213  -0.43837  -0.43703
 Alpha  occ. eigenvalues --   -0.43519  -0.43297  -0.43068  -0.42959  -0.42672
 Alpha  occ. eigenvalues --   -0.42509  -0.42111  -0.41890  -0.41564  -0.41499
 Alpha  occ. eigenvalues --   -0.41253  -0.41182  -0.40854  -0.40570  -0.40498
 Alpha  occ. eigenvalues --   -0.40323  -0.40115  -0.39975  -0.39842  -0.39701
 Alpha  occ. eigenvalues --   -0.39571  -0.39214  -0.38981  -0.38817  -0.38718
 Alpha  occ. eigenvalues --   -0.38563  -0.38383  -0.38126  -0.38082  -0.37924
 Alpha  occ. eigenvalues --   -0.37733  -0.37524  -0.37247  -0.37022  -0.36916
 Alpha  occ. eigenvalues --   -0.36659  -0.36427  -0.36269  -0.36123  -0.36053
 Alpha  occ. eigenvalues --   -0.35834  -0.35397  -0.35312  -0.35134  -0.34743
 Alpha  occ. eigenvalues --   -0.34525  -0.34318  -0.33759  -0.33233  -0.33160
 Alpha  occ. eigenvalues --   -0.32893  -0.32777  -0.32739  -0.32508  -0.32410
 Alpha  occ. eigenvalues --   -0.32276  -0.31364  -0.31040  -0.30535  -0.30358
 Alpha  occ. eigenvalues --   -0.30066  -0.29789  -0.29537  -0.28932  -0.27000
 Alpha  occ. eigenvalues --   -0.26193  -0.25940  -0.25626  -0.24682  -0.21987
 Alpha  occ. eigenvalues --   -0.19807
 Alpha virt. eigenvalues --   -0.07632  -0.03212   0.00119   0.01640   0.02485
 Alpha virt. eigenvalues --    0.03669   0.04463   0.04999   0.05046   0.05871
 Alpha virt. eigenvalues --    0.06270   0.08965   0.09062   0.09449   0.09832

 Mulliken charges:
               1
     1  Mg   0.800372
     2  C    0.117502
     3  C   -0.185809
     4  C   -0.177062
     5  C   -0.147440
     6  N   -0.638011
     7  C    0.222060
     8  C   -0.133866
     9  C   -0.138878
    10  C    0.368795
    11  C   -0.319076
    12  C   -0.162200
    13  C   -0.272050
    14  C    0.609508
    15  O   -0.473066
    16  O   -0.518393
    17  N   -0.725923
    18  C    0.282638
    19  C    0.039296
    20  C    0.052048
    21  C    0.330181
    22  C   -0.401638
    23  C   -0.083856
    24  C   -0.245481
    25  N   -0.664103
    26  C    0.316692
    27  C    0.046941
    28  C    0.047495
    29  C    0.277675
    30  C   -0.363597
    31  C   -0.254461
    32  C   -0.289498
    33  N   -0.737295
    34  C    0.238155
    35  C    0.008923
    36  C    0.047887
    37  C    0.274982
    38  C   -0.397212
    39  C    0.360474
    40  O   -0.466897
    41  C   -0.324844
    42  C    0.594279
    43  O   -0.498435
    44  O   -0.393687
    45  C   -0.101327
    46  C    0.030813
    47  C   -0.114863
    48  C    0.109204
    49  C   -0.364246
    50  C   -0.217274
    51  C   -0.204732
    52  C   -0.152397
    53  C   -0.068958
    54  C   -0.301623
    55  C   -0.150369
    56  C   -0.199309
    57  C   -0.154776
    58  C   -0.061936
    59  C   -0.313585
    60  C   -0.147667
    61  C   -0.178888
    62  C   -0.169990
    63  C   -0.058365
    64  C   -0.317495
    65  C   -0.314280
    66  H    0.077462
    67  H    0.057592
    68  H    0.080130
    69  H    0.135708
    70  H    0.088890
    71  H    0.114956
    72  H    0.108806
    73  H    0.120232
    74  H    0.122022
    75  H    0.115529
    76  H    0.124904
    77  H    0.133496
    78  H    0.127245
    79  H    0.121597
    80  H    0.118399
    81  H    0.066941
    82  H    0.115316
    83  H    0.098252
    84  H    0.139748
    85  H    0.092411
    86  H    0.121302
    87  H    0.109266
    88  H    0.098329
    89  H    0.122283
    90  H    0.111482
    91  H    0.084559
    92  H    0.109025
    93  H    0.128451
    94  H    0.116425
    95  H    0.168131
    96  H    0.143559
    97  H    0.135754
    98  H    0.136858
    99  H    0.123641
   100  H    0.116832
   101  H    0.093139
   102  H    0.090672
   103  H    0.130974
   104  H    0.119219
   105  H    0.095377
   106  H    0.111260
   107  H    0.079329
   108  H    0.100209
   109  H    0.101642
   110  H    0.071710
   111  H    0.094587
   112  H    0.096195
   113  H    0.103025
   114  H    0.090851
   115  H    0.082097
   116  H    0.105394
   117  H    0.062052
   118  H    0.098149
   119  H    0.092239
   120  H    0.099031
   121  H    0.065613
   122  H    0.073577
   123  H    0.074397
   124  H    0.114491
   125  H    0.087931
   126  H    0.075110
   127  H    0.072788
   128  H    0.097080
   129  H    0.076004
   130  H    0.101312
   131  H    0.084614
   132  H    0.108431
   133  H    0.107836
   134  H    0.098543
   135  H    0.091101
   136  H    0.086018
   137  H    0.111408
 Sum of Mulliken charges =  -0.00000

 Dipole moment (field-independent basis, Debye):
    X=              1.3474    Y=              5.5438    Z=              0.6483  Tot=              5.7419
 Quadrupole moment (field-independent basis, Debye-Ang):
   XX=           -327.8741   YY=           -391.0409   ZZ=           -400.6753
   XY=            -21.1311   XZ=              7.8808   YZ=             -1.2338

 Normal termination of Gaussian 16 at Mon Sep 16 15:08:35 2019.
