 Gaussian 16, Revision A.03,
 Gaussian 16:  ES64L-G16RevA.03 25-Dec-2016

 ----------------------------------------------------------------------
 # td=(NStates=1) iop(3/107=0140000000,3/108=0140000000) CAM-B3LYP/6-31
 G(d,p)
 ----------------------------------------------------------------------

 --
 TD
 --
 Symbolic Z-matrix:
 Charge =  0 Multiplicity = 1

                         Standard orientation:
 ---------------------------------------------------------------------
 Center     Atomic      Atomic             Coordinates (Angstroms)
 Number     Number       Type             X           Y           Z
 ---------------------------------------------------------------------
      1         12           0       -7.137874    0.536246    0.015888
      2          6           0       -4.888627   -1.896230    0.534031
      3          6           0       -4.827028    2.907167    1.139336
      4          6           0       -9.540613    3.009766   -0.264131
      5          6           0       -9.443393   -1.737144   -0.948871
      6          7           0       -5.078298    0.549961    0.669690
      7          6           0       -4.280021   -0.635426    0.684440
      8          6           0       -2.872935   -0.305361    1.207062
      9          6           0       -2.951834    1.184803    1.584644
     10          6           0       -4.359824    1.655983    1.073571
     11          6           0       -2.896351    1.396761    3.125743
     12          6           0       -1.887925   -0.514432    0.061075
     13          6           0       -0.444635   -0.444473    0.464175
     14          6           0        0.496886   -0.744902   -0.618406
     15          8           0        0.276216   -1.198272   -1.720125
     16          8           0        1.742585   -0.719954   -0.184274
     17          7           0       -7.107625    2.573088    0.250856
     18          6           0       -6.085968    3.405591    0.684262
     19          6           0       -6.452877    4.787149    0.785727
     20          6           0       -7.839970    4.839878    0.268852
     21          6           0       -8.170118    3.482330    0.048863
     22          6           0       -5.478475    5.889667    1.120106
     23          6           0       -8.651572    6.010724    0.084942
     24          6           0       -8.519320    7.211877    0.577455
     25          7           0       -9.075878    0.669078   -0.646555
     26          6           0       -9.859826    1.820236   -0.626146
     27          6           0      -11.216362    1.399987   -1.022842
     28          6           0      -11.263111    0.072791   -1.264865
     29          6           0       -9.918381   -0.343074   -0.926023
     30          6           0      -12.326205    2.302380   -1.239584
     31          6           0      -12.447731   -0.933161   -1.716242
     32          6           0      -12.354334   -1.321992   -3.122306
     33          7           0       -7.153869   -1.298250   -0.191281
     34          6           0       -8.236673   -2.255176   -0.565437
     35          6           0       -7.730633   -3.613956   -0.489905
     36          6           0       -6.429247   -3.575548   -0.053130
     37          6           0       -6.129487   -2.080685    0.096266
     38          6           0       -8.474525   -4.834415   -0.913870
     39          6           0       -5.215991   -4.315203    0.327336
     40          8           0       -5.096735   -5.563760    0.116087
     41          6           0       -4.097712   -3.223583    0.697226
     42          6           0       -3.544124   -3.484089    2.020290
     43          8           0       -3.702842   -2.814965    3.010438
     44          8           0       -2.876116   -4.647963    1.984109
     45          6           0       -2.336744   -5.095908    3.254825
     46          6           0        2.917173   -0.855223   -1.161800
     47          6           0        4.155356   -0.516238   -0.529063
     48          6           0        5.147464    0.227419   -1.006294
     49          6           0        4.924672    0.964931   -2.283467
     50          6           0        6.473317    0.519207   -0.160097
     51          6           0        7.536081   -0.225916   -0.956288
     52          6           0        8.925139    0.007557   -0.163643
     53          6           0       10.211714   -0.569425   -0.832569
     54          6           0       10.048553   -1.978554   -1.268666
     55          6           0       11.495777   -0.292235    0.001306
     56          6           0       12.800891   -0.670355   -0.790253
     57          6           0       14.014357   -0.124323    0.038321
     58          6           0       15.403809   -0.215378   -0.539724
     59          6           0       15.678455   -1.731418   -0.722370
     60          6           0       16.332361    0.497884    0.355202
     61          6           0       17.861678    0.570064   -0.127413
     62          6           0       18.848648    1.214333    0.731803
     63          6           0       20.182953    1.382566    0.294113
     64          6           0       20.218387    2.267254   -1.045275
     65          6           0       21.202361    2.028161    1.242423
     66          1           0       -4.097583    3.579450    1.221485
     67          1           0      -10.282384    3.677423   -0.386834
     68          1           0      -10.130075   -2.531813   -1.256083
     69          1           0       -2.600499   -0.867426    2.046591
     70          1           0       -2.114774    1.855406    1.308184
     71          1           0       -1.789195    1.171286    3.367886
     72          1           0       -3.052018    2.507973    3.485556
     73          1           0       -3.457884    0.637241    3.665775
     74          1           0       -2.047331   -1.503854   -0.616108
     75          1           0       -2.011203    0.253528   -0.753439
     76          1           0       -0.079259    0.608372    0.947030
     77          1           0       -0.402261   -1.258507    1.192601
     78          1           0       -5.458101    6.711534    0.462181
     79          1           0       -5.536380    6.407115    2.117983
     80          1           0       -4.289840    5.699621    0.820024
     81          1           0       -9.413969    5.988074   -0.853352
     82          1           0       -9.395730    7.890054    0.303218
     83          1           0       -7.905269    7.557489    1.554738
     84          1           0      -11.947854    2.855772   -2.067629
     85          1           0      -13.371874    1.837517   -1.464879
     86          1           0      -12.498319    3.009260   -0.266663
     87          1           0      -12.478152   -1.921665   -1.243266
     88          1           0      -13.484552   -0.432048   -1.672119
     89          1           0      -13.273117   -1.882001   -3.463332
     90          1           0      -12.282634   -0.363711   -3.663125
     91          1           0      -11.416171   -1.991759   -3.364688
     92          1           0       -9.275853   -4.517276   -1.746664
     93          1           0       -7.826198   -5.777538   -1.122931
     94          1           0       -9.253148   -5.310177   -0.023472
     95          1           0       -3.317315   -3.354543    0.036881
     96          1           0       -1.695181   -4.299238    3.536610
     97          1           0       -3.223370   -5.262139    3.957028
     98          1           0       -1.768379   -6.149153    3.267097
     99          1           0        2.783858   -2.059330   -1.311632
    100          1           0        2.684380   -0.296422   -1.990456
    101          1           0        4.192162   -1.141931    0.317347
    102          1           0        3.982082    1.198610   -2.615195
    103          1           0        5.328142    2.084886   -2.039392
    104          1           0        5.381158    0.563329   -3.145131
    105          1           0        6.523670    1.471963    0.136814
    106          1           0        6.406879    0.003989    0.850641
    107          1           0        7.309504   -1.431439   -0.994987
    108          1           0        7.674635    0.267418   -1.774309
    109          1           0        9.035448    1.000351    0.086987
    110          1           0        8.861527   -0.350863    0.922693
    111          1           0       10.206545    0.097579   -1.806984
    112          1           0        9.254460   -2.216264   -1.829334
    113          1           0       10.953375   -2.366214   -1.755881
    114          1           0        9.922703   -2.783373   -0.475716
    115          1           0       11.394934    0.573975    0.353682
    116          1           0       11.549253   -1.008284    0.719220
    117          1           0       13.035771   -1.615359   -0.903694
    118          1           0       12.718964   -0.089260   -1.657431
    119          1           0       13.917585    0.973366   -0.080594
    120          1           0       14.043969   -0.534776    1.080591
    121          1           0       15.403937    0.292011   -1.694253
    122          1           0       15.670922   -2.340118    0.195433
    123          1           0       14.924402   -2.294987   -1.292875
    124          1           0       16.615606   -1.884869   -1.207757
    125          1           0       15.921928    1.626725    0.458754
    126          1           0       16.393476   -0.066183    1.378871
    127          1           0       18.097191   -0.407914   -0.506036
    128          1           0       17.876626    1.247898   -1.111647
    129          1           0       18.466890    2.153025    1.087205
    130          1           0       18.815535    0.798519    1.749412
    131          1           0       20.613602    0.334081   -0.202659
    132          1           0       19.742037    3.109266   -0.997872
    133          1           0       21.211775    2.528043   -1.453720
    134          1           0       19.621188    1.678025   -1.725030
    135          1           0       21.411709    1.348436    2.292807
    136          1           0       22.210931    2.272334    0.847325
    137          1           0       20.615664    2.970840    1.480709
 ---------------------------------------------------------------------

 SCF Done:  E(RCAM-B3LYP) =  -2933.44306194     A.U. after   16 cycles

 Excitation energies and oscillator strengths:

 Excited State   1:      Singlet-A      1.9413 eV  638.65 nm  f=0.2883  <S**2>=0.000
     240 -> 243       -0.17237
     241 -> 242        0.68098
 This state for optimization and/or second-order correction.
 Total Energy, E(TD-HF/TD-DFT) =  -2933.37171871
 Copying the excited state density for this state as the 1-particle RhoCI density.

 The electronic state is 1-A.
 Alpha  occ. eigenvalues --  -46.78283 -19.22329 -19.19846 -19.17047 -19.16944
 Alpha  occ. eigenvalues --  -19.14828 -14.37167 -14.35568 -14.35232 -14.34622
 Alpha  occ. eigenvalues --  -10.34574 -10.32962 -10.32021 -10.28322 -10.27448
 Alpha  occ. eigenvalues --  -10.27160 -10.26373 -10.26002 -10.25468 -10.25255
 Alpha  occ. eigenvalues --  -10.25029 -10.24706 -10.24490 -10.24404 -10.23915
 Alpha  occ. eigenvalues --  -10.23810 -10.23596 -10.23552 -10.23427 -10.23210
 Alpha  occ. eigenvalues --  -10.23207 -10.22994 -10.22971 -10.22932 -10.22886
 Alpha  occ. eigenvalues --  -10.22793 -10.22784 -10.22710 -10.22707 -10.22576
 Alpha  occ. eigenvalues --  -10.22413 -10.22364 -10.22302 -10.22269 -10.22211
 Alpha  occ. eigenvalues --  -10.22189 -10.22147 -10.22103 -10.21955 -10.21917
 Alpha  occ. eigenvalues --  -10.21890 -10.21777 -10.21571 -10.21495 -10.21462
 Alpha  occ. eigenvalues --  -10.20787 -10.20679 -10.20491 -10.19975 -10.19795
 Alpha  occ. eigenvalues --  -10.19439 -10.19320 -10.19179 -10.18727 -10.18429
 Alpha  occ. eigenvalues --   -3.07313  -1.82207  -1.81832  -1.81734  -1.13819
 Alpha  occ. eigenvalues --   -1.11873  -1.05029  -1.03769  -1.01943  -0.98796
 Alpha  occ. eigenvalues --   -0.97922  -0.96339  -0.95217  -0.87723  -0.86705
 Alpha  occ. eigenvalues --   -0.86310  -0.85352  -0.85112  -0.84394  -0.84017
 Alpha  occ. eigenvalues --   -0.83926  -0.83482  -0.82670  -0.81694  -0.81475
 Alpha  occ. eigenvalues --   -0.80361  -0.80025  -0.79731  -0.78415  -0.77839
 Alpha  occ. eigenvalues --   -0.77071  -0.76793  -0.75989  -0.75381  -0.73402
 Alpha  occ. eigenvalues --   -0.73171  -0.72303  -0.72072  -0.71765  -0.71533
 Alpha  occ. eigenvalues --   -0.71216  -0.70684  -0.69813  -0.68760  -0.68030
 Alpha  occ. eigenvalues --   -0.66632  -0.66374  -0.64752  -0.64083  -0.63607
 Alpha  occ. eigenvalues --   -0.63278  -0.61652  -0.61307  -0.60734  -0.60167
 Alpha  occ. eigenvalues --   -0.59838  -0.59302  -0.58633  -0.58105  -0.57995
 Alpha  occ. eigenvalues --   -0.57435  -0.56479  -0.56375  -0.55744  -0.55052
 Alpha  occ. eigenvalues --   -0.54606  -0.54395  -0.53795  -0.52783  -0.52701
 Alpha  occ. eigenvalues --   -0.52347  -0.51985  -0.51746  -0.51184  -0.50982
 Alpha  occ. eigenvalues --   -0.50832  -0.50273  -0.49977  -0.49891  -0.49636
 Alpha  occ. eigenvalues --   -0.48954  -0.48832  -0.48785  -0.48380  -0.48294
 Alpha  occ. eigenvalues --   -0.48233  -0.47815  -0.47545  -0.47364  -0.46998
 Alpha  occ. eigenvalues --   -0.46720  -0.46511  -0.46232  -0.46167  -0.45743
 Alpha  occ. eigenvalues --   -0.45684  -0.45530  -0.45376  -0.45055  -0.44957
 Alpha  occ. eigenvalues --   -0.44620  -0.44256  -0.44047  -0.43584  -0.43423
 Alpha  occ. eigenvalues --   -0.43267  -0.43030  -0.42709  -0.42647  -0.42349
 Alpha  occ. eigenvalues --   -0.42186  -0.41858  -0.41793  -0.41393  -0.41277
 Alpha  occ. eigenvalues --   -0.41093  -0.41042  -0.40884  -0.40716  -0.40624
 Alpha  occ. eigenvalues --   -0.40401  -0.40243  -0.40194  -0.39922  -0.39560
 Alpha  occ. eigenvalues --   -0.39506  -0.39336  -0.39304  -0.39161  -0.39031
 Alpha  occ. eigenvalues --   -0.38494  -0.38488  -0.38266  -0.37988  -0.37810
 Alpha  occ. eigenvalues --   -0.37624  -0.37471  -0.37179  -0.37080  -0.37020
 Alpha  occ. eigenvalues --   -0.36743  -0.36632  -0.36528  -0.36336  -0.35978
 Alpha  occ. eigenvalues --   -0.35921  -0.35645  -0.35322  -0.34941  -0.34720
 Alpha  occ. eigenvalues --   -0.34540  -0.34259  -0.34034  -0.33855  -0.33586
 Alpha  occ. eigenvalues --   -0.33320  -0.32668  -0.32666  -0.32410  -0.32262
 Alpha  occ. eigenvalues --   -0.32178  -0.31457  -0.30887  -0.30874  -0.30572
 Alpha  occ. eigenvalues --   -0.30396  -0.30007  -0.28876  -0.28483  -0.28022
 Alpha  occ. eigenvalues --   -0.27298  -0.27229  -0.26498  -0.23813  -0.22098
 Alpha  occ. eigenvalues --   -0.19543
 Alpha virt. eigenvalues --   -0.07481  -0.03622  -0.01394   0.02812   0.02944
 Alpha virt. eigenvalues --    0.03765   0.04674   0.05194   0.05855   0.06014
 Alpha virt. eigenvalues --    0.06270   0.08272   0.09167   0.09775   0.09825

 Mulliken charges:
               1
     1  Mg   0.825031
     2  C    0.071109
     3  C   -0.140952
     4  C   -0.148899
     5  C   -0.215468
     6  N   -0.615553
     7  C    0.266296
     8  C   -0.138576
     9  C   -0.139124
    10  C    0.336397
    11  C   -0.313870
    12  C   -0.184904
    13  C   -0.249837
    14  C    0.593496
    15  O   -0.487328
    16  O   -0.491842
    17  N   -0.667405
    18  C    0.272340
    19  C    0.030690
    20  C    0.029567
    21  C    0.248583
    22  C   -0.392390
    23  C   -0.081264
    24  C   -0.241216
    25  N   -0.692807
    26  C    0.371290
    27  C   -0.012369
    28  C    0.078625
    29  C    0.278116
    30  C   -0.389473
    31  C   -0.224525
    32  C   -0.295358
    33  N   -0.797041
    34  C    0.289340
    35  C    0.051465
    36  C    0.058165
    37  C    0.349307
    38  C   -0.380258
    39  C    0.348625
    40  O   -0.467554
    41  C   -0.308061
    42  C    0.623628
    43  O   -0.473379
    44  O   -0.446580
    45  C   -0.080775
    46  C    0.023057
    47  C   -0.090472
    48  C    0.097154
    49  C   -0.375405
    50  C   -0.221732
    51  C   -0.159780
    52  C   -0.201816
    53  C   -0.051010
    54  C   -0.315682
    55  C   -0.146861
    56  C   -0.185393
    57  C   -0.167202
    58  C   -0.044445
    59  C   -0.329908
    60  C   -0.150199
    61  C   -0.180391
    62  C   -0.139439
    63  C   -0.045021
    64  C   -0.325719
    65  C   -0.283982
    66  H    0.062192
    67  H    0.066495
    68  H    0.072528
    69  H    0.126689
    70  H    0.099139
    71  H    0.084604
    72  H    0.104832
    73  H    0.134153
    74  H    0.106430
    75  H    0.114260
    76  H    0.114227
    77  H    0.141460
    78  H    0.134806
    79  H    0.116852
    80  H    0.080930
    81  H    0.078119
    82  H    0.088945
    83  H    0.089486
    84  H    0.140082
    85  H    0.108249
    86  H    0.102723
    87  H    0.113370
    88  H    0.097114
    89  H    0.100644
    90  H    0.107117
    91  H    0.091588
    92  H    0.107563
    93  H    0.155404
    94  H    0.099538
    95  H    0.171553
    96  H    0.134876
    97  H    0.130475
    98  H    0.120403
    99  H    0.111213
   100  H    0.117707
   101  H    0.086407
   102  H    0.134067
   103  H    0.084193
   104  H    0.134540
   105  H    0.118517
   106  H    0.100290
   107  H    0.097638
   108  H    0.119613
   109  H    0.093440
   110  H    0.068493
   111  H    0.056805
   112  H    0.110882
   113  H    0.099921
   114  H    0.082067
   115  H    0.087694
   116  H    0.103207
   117  H    0.103199
   118  H    0.099573
   119  H    0.080809
   120  H    0.084063
   121  H    0.049929
   122  H    0.096524
   123  H    0.102183
   124  H    0.104255
   125  H    0.074309
   126  H    0.080425
   127  H    0.100294
   128  H    0.069903
   129  H    0.089965
   130  H    0.083398
   131  H    0.051199
   132  H    0.110589
   133  H    0.093100
   134  H    0.103086
   135  H    0.061924
   136  H    0.111849
   137  H    0.094870
 Sum of Mulliken charges =  -0.00000

 Dipole moment (field-independent basis, Debye):
    X=              1.7844    Y=              1.9551    Z=              0.3160  Tot=              2.6658
 Quadrupole moment (field-independent basis, Debye-Ang):
   XX=           -344.3264   YY=           -395.3964   ZZ=           -399.4764
   XY=              1.2175   XZ=             11.6330   YZ=             -8.0512

 Normal termination of Gaussian 16 at Fri Sep  6 00:52:32 2019.
