 Gaussian 16, Revision A.03,
 Gaussian 16:  ES64L-G16RevA.03 25-Dec-2016

 ----------------------------------------------------------------------
 # td=(NStates=1) iop(3/107=0140000000,3/108=0140000000) CAM-B3LYP/6-31
 G(d,p)
 ----------------------------------------------------------------------

 --
 TD
 --
 Symbolic Z-matrix:
 Charge =  0 Multiplicity = 1

                         Standard orientation:
 ---------------------------------------------------------------------
 Center     Atomic      Atomic             Coordinates (Angstroms)
 Number     Number       Type             X           Y           Z
 ---------------------------------------------------------------------
      1         12           0       -7.144802    0.616424    0.130605
      2          6           0       -4.893853   -1.946249    0.527278
      3          6           0       -4.701225    2.867800    1.129606
      4          6           0       -9.228494    3.158296   -0.450710
      5          6           0       -9.472878   -1.716755   -0.927673
      6          7           0       -5.053904    0.430408    0.776728
      7          6           0       -4.289017   -0.723351    0.824073
      8          6           0       -2.811841   -0.436746    1.116116
      9          6           0       -2.992339    1.063236    1.692372
     10          6           0       -4.372061    1.501791    1.221549
     11          6           0       -2.873503    1.035077    3.206222
     12          6           0       -1.867667   -0.586877    0.020458
     13          6           0       -0.422738   -0.508400    0.380837
     14          6           0        0.544110   -0.715268   -0.797405
     15          8           0        0.240050   -0.990650   -1.876916
     16          8           0        1.797420   -0.510467   -0.333274
     17          7           0       -7.044472    2.703222    0.317982
     18          6           0       -5.916280    3.442449    0.765742
     19          6           0       -6.178181    4.941713    0.876145
     20          6           0       -7.603899    4.950981    0.459441
     21          6           0       -8.056485    3.578182    0.152511
     22          6           0       -5.323296    5.911701    1.335382
     23          6           0       -8.510901    6.080307    0.338168
     24          6           0       -8.321255    7.316793    0.798014
     25          7           0       -8.947645    0.640878   -0.560596
     26          6           0       -9.747834    1.840743   -0.694223
     27          6           0      -11.095730    1.627075   -1.144620
     28          6           0      -11.167735    0.192017   -1.270243
     29          6           0       -9.856576   -0.302184   -0.953477
     30          6           0      -12.199885    2.509184   -1.466706
     31          6           0      -12.289876   -0.713340   -1.825128
     32          6           0      -12.087897   -0.869467   -3.302889
     33          7           0       -7.167931   -1.368974   -0.188779
     34          6           0       -8.215306   -2.223939   -0.600712
     35          6           0       -7.820061   -3.531655   -0.418517
     36          6           0       -6.463294   -3.516598   -0.038455
     37          6           0       -6.187919   -2.115043    0.139843
     38          6           0       -8.709884   -4.765300   -0.774715
     39          6           0       -5.385759   -4.389992    0.311490
     40          8           0       -5.314817   -5.580577    0.464114
     41          6           0       -4.222960   -3.409634    0.627867
     42          6           0       -3.595961   -3.757218    1.865493
     43          8           0       -3.848486   -3.209643    2.975322
     44          8           0       -2.862656   -4.849624    1.822386
     45          6           0       -2.391752   -5.511688    2.986294
     46          6           0        2.843176   -0.899639   -1.243524
     47          6           0        4.123957   -0.552738   -0.589537
     48          6           0        5.020918    0.361209   -0.940671
     49          6           0        4.976558    1.171514   -2.107036
     50          6           0        6.383052    0.377580   -0.295738
     51          6           0        7.548375   -0.317204   -1.078064
     52          6           0        8.774147   -0.141644   -0.249741
     53          6           0       10.040242   -0.555978   -1.027057
     54          6           0       10.130037   -2.050508   -1.488814
     55          6           0       11.369891   -0.434334   -0.108921
     56          6           0       12.757386   -0.641772   -0.736504
     57          6           0       13.842655   -0.230886    0.191935
     58          6           0       15.233892   -0.226419   -0.537415
     59          6           0       15.714498   -1.586090   -0.964228
     60          6           0       16.325336    0.478085    0.449761
     61          6           0       17.660240    0.609375   -0.234226
     62          6           0       18.588593    1.308465    0.745401
     63          6           0       20.027665    1.451792    0.424344
     64          6           0       20.246968    2.375078   -0.890036
     65          6           0       20.957492    2.083474    1.539175
     66          1           0       -3.908204    3.577205    1.489771
     67          1           0       -9.907042    4.078508   -0.504639
     68          1           0      -10.193068   -2.204567   -1.352651
     69          1           0       -2.500960   -0.971329    1.957945
     70          1           0       -2.172889    1.719138    1.246676
     71          1           0       -1.733117    0.586777    3.394413
     72          1           0       -2.554015    2.097114    3.539446
     73          1           0       -3.531420    0.402974    3.860770
     74          1           0       -2.138690   -1.425781   -0.531667
     75          1           0       -1.892662    0.052188   -0.800245
     76          1           0       -0.381518    0.475625    0.746300
     77          1           0       -0.155582   -1.231847    1.290818
     78          1           0       -5.462501    6.795232    0.632505
     79          1           0       -5.818028    6.330185    2.311912
     80          1           0       -4.236401    5.557169    1.357294
     81          1           0       -9.220707    5.622720   -0.336814
     82          1           0       -9.247271    7.929322    0.531832
     83          1           0       -7.519336    7.453637    1.367250
     84          1           0      -11.845682    3.251465   -2.228335
     85          1           0      -12.953890    1.963694   -1.640408
     86          1           0      -12.403819    3.133507   -0.585070
     87          1           0      -12.308616   -1.691733   -1.373278
     88          1           0      -13.300040   -0.269014   -1.555724
     89          1           0      -12.766390   -1.630877   -3.713650
     90          1           0      -12.201946    0.260693   -3.952310
     91          1           0      -11.123491   -1.270050   -3.640651
     92          1           0       -8.705534   -4.842227   -1.901550
     93          1           0       -7.951256   -5.699127   -0.461481
     94          1           0       -9.696937   -4.817378   -0.246293
     95          1           0       -3.600946   -3.680509   -0.226853
     96          1           0       -1.779226   -4.842771    3.386495
     97          1           0       -3.049472   -5.874864    3.871006
     98          1           0       -1.793404   -6.567610    2.573890
     99          1           0        2.586750   -1.898873   -1.485063
    100          1           0        2.744865   -0.468438   -2.237419
    101          1           0        4.498030   -1.170464    0.370319
    102          1           0        4.038663    1.055104   -2.797906
    103          1           0        5.151596    2.346774   -1.801891
    104          1           0        5.927886    0.861109   -2.704289
    105          1           0        6.517721    1.559635   -0.075456
    106          1           0        6.244919   -0.206832    0.691159
    107          1           0        7.358761   -1.414610   -1.321248
    108          1           0        7.709062    0.424956   -1.956974
    109          1           0        8.841713    0.732941    0.342654
    110          1           0        8.583629   -0.791368    0.625492
    111          1           0       10.202502    0.000624   -1.933810
    112          1           0        9.180157   -2.223103   -2.201707
    113          1           0       10.991813   -2.354766   -2.183157
    114          1           0        9.945406   -2.526447   -0.711368
    115          1           0       11.464923    0.633569    0.417129
    116          1           0       11.125049   -1.031275    0.733683
    117          1           0       12.688810   -1.698289   -1.165815
    118          1           0       12.902747   -0.161328   -1.822410
    119          1           0       13.562740    0.824561    0.688887
    120          1           0       13.991995   -1.137316    0.982311
    121          1           0       15.281394    0.391026   -1.344146
    122          1           0       15.815548   -2.353205   -0.027309
    123          1           0       14.782651   -2.227273   -1.508822
    124          1           0       16.585596   -1.794926   -1.528937
    125          1           0       15.650220    1.277473    0.867077
    126          1           0       16.462943   -0.243501    1.249778
    127          1           0       17.988178   -0.370651   -0.524202
    128          1           0       17.577448    1.364831   -1.148926
    129          1           0       18.301766    2.307413    1.081546
    130          1           0       18.682256    0.783383    1.873785
    131          1           0       20.562223    0.481143    0.293728
    132          1           0       19.667401    3.269193   -0.794505
    133          1           0       21.272645    2.560362   -1.046755
    134          1           0       19.920766    1.884791   -1.904921
    135          1           0       21.041146    1.302315    2.499299
    136          1           0       21.888526    2.436571    1.133860
    137          1           0       20.447725    3.057284    1.660762
 ---------------------------------------------------------------------

 SCF Done:  E(RCAM-B3LYP) =  -2933.43721291     A.U. after   16 cycles

 Excitation energies and oscillator strengths:

 Excited State   1:      Singlet-A      2.0598 eV  601.92 nm  f=0.1842  <S**2>=0.000
     240 -> 243        0.26712
     241 -> 242        0.64711
 This state for optimization and/or second-order correction.
 Total Energy, E(TD-HF/TD-DFT) =  -2933.36151639
 Copying the excited state density for this state as the 1-particle RhoCI density.

 The electronic state is 1-A.
 Alpha  occ. eigenvalues --  -46.79570 -19.21843 -19.21162 -19.17511 -19.15925
 Alpha  occ. eigenvalues --  -19.14373 -14.37533 -14.35111 -14.35083 -14.34556
 Alpha  occ. eigenvalues --  -10.34083 -10.33504 -10.29959 -10.27813 -10.26781
 Alpha  occ. eigenvalues --  -10.26300 -10.26189 -10.25930 -10.25411 -10.24614
 Alpha  occ. eigenvalues --  -10.24492 -10.24215 -10.23809 -10.23681 -10.23546
 Alpha  occ. eigenvalues --  -10.23522 -10.23488 -10.23485 -10.23443 -10.23415
 Alpha  occ. eigenvalues --  -10.23409 -10.23253 -10.23244 -10.23230 -10.23203
 Alpha  occ. eigenvalues --  -10.22881 -10.22866 -10.22807 -10.22686 -10.22673
 Alpha  occ. eigenvalues --  -10.22507 -10.22388 -10.22325 -10.22279 -10.22181
 Alpha  occ. eigenvalues --  -10.22165 -10.22144 -10.22092 -10.22051 -10.22013
 Alpha  occ. eigenvalues --  -10.21983 -10.21971 -10.21686 -10.21490 -10.21403
 Alpha  occ. eigenvalues --  -10.21322 -10.21179 -10.21131 -10.21103 -10.20631
 Alpha  occ. eigenvalues --  -10.20610 -10.20518 -10.20485 -10.20191 -10.19900
 Alpha  occ. eigenvalues --   -3.08269  -1.83191  -1.82766  -1.82669  -1.14554
 Alpha  occ. eigenvalues --   -1.13115  -1.06760  -1.06679  -1.00859  -1.00229
 Alpha  occ. eigenvalues --   -0.98220  -0.96904  -0.95925  -0.87282  -0.87121
 Alpha  occ. eigenvalues --   -0.85872  -0.85227  -0.84649  -0.84454  -0.83875
 Alpha  occ. eigenvalues --   -0.83749  -0.82933  -0.82609  -0.82026  -0.80924
 Alpha  occ. eigenvalues --   -0.80517  -0.79792  -0.79626  -0.78727  -0.78312
 Alpha  occ. eigenvalues --   -0.77237  -0.76473  -0.75438  -0.75215  -0.73437
 Alpha  occ. eigenvalues --   -0.72954  -0.72905  -0.71946  -0.71094  -0.70538
 Alpha  occ. eigenvalues --   -0.69778  -0.69631  -0.69519  -0.68621  -0.67812
 Alpha  occ. eigenvalues --   -0.67160  -0.65852  -0.64777  -0.64665  -0.64106
 Alpha  occ. eigenvalues --   -0.63068  -0.62356  -0.61294  -0.60717  -0.60567
 Alpha  occ. eigenvalues --   -0.59759  -0.59480  -0.59470  -0.58980  -0.58469
 Alpha  occ. eigenvalues --   -0.57504  -0.56571  -0.56397  -0.55462  -0.54962
 Alpha  occ. eigenvalues --   -0.54588  -0.53957  -0.53563  -0.53335  -0.52909
 Alpha  occ. eigenvalues --   -0.52231  -0.51519  -0.51124  -0.51000  -0.50847
 Alpha  occ. eigenvalues --   -0.50690  -0.50123  -0.50078  -0.49742  -0.49154
 Alpha  occ. eigenvalues --   -0.48960  -0.48880  -0.48744  -0.48446  -0.48181
 Alpha  occ. eigenvalues --   -0.47677  -0.47499  -0.47082  -0.46959  -0.46746
 Alpha  occ. eigenvalues --   -0.46658  -0.46516  -0.46468  -0.46058  -0.45903
 Alpha  occ. eigenvalues --   -0.45697  -0.45479  -0.45331  -0.45002  -0.44909
 Alpha  occ. eigenvalues --   -0.44554  -0.44383  -0.44251  -0.43935  -0.43744
 Alpha  occ. eigenvalues --   -0.43459  -0.43370  -0.43231  -0.42850  -0.42620
 Alpha  occ. eigenvalues --   -0.42603  -0.42091  -0.41983  -0.41772  -0.41483
 Alpha  occ. eigenvalues --   -0.41234  -0.41057  -0.40864  -0.40773  -0.40666
 Alpha  occ. eigenvalues --   -0.40488  -0.39998  -0.39858  -0.39678  -0.39618
 Alpha  occ. eigenvalues --   -0.39422  -0.39310  -0.38901  -0.38735  -0.38691
 Alpha  occ. eigenvalues --   -0.38413  -0.38376  -0.38155  -0.38086  -0.38077
 Alpha  occ. eigenvalues --   -0.37870  -0.37816  -0.37470  -0.37395  -0.36817
 Alpha  occ. eigenvalues --   -0.36708  -0.36525  -0.36454  -0.36322  -0.36068
 Alpha  occ. eigenvalues --   -0.35781  -0.35529  -0.35292  -0.35022  -0.34873
 Alpha  occ. eigenvalues --   -0.34429  -0.34184  -0.33660  -0.33577  -0.33048
 Alpha  occ. eigenvalues --   -0.32622  -0.32573  -0.32459  -0.32315  -0.32097
 Alpha  occ. eigenvalues --   -0.31514  -0.31476  -0.31349  -0.30898  -0.30198
 Alpha  occ. eigenvalues --   -0.29894  -0.29742  -0.28525  -0.28176  -0.27301
 Alpha  occ. eigenvalues --   -0.27185  -0.26541  -0.25434  -0.23832  -0.21416
 Alpha  occ. eigenvalues --   -0.19984
 Alpha virt. eigenvalues --   -0.06793  -0.04372  -0.00260   0.02472   0.03649
 Alpha virt. eigenvalues --    0.03970   0.04853   0.05226   0.05574   0.05821
 Alpha virt. eigenvalues --    0.07046   0.09079   0.09530   0.09583   0.09706

 Mulliken charges:
               1
     1  Mg   0.825585
     2  C    0.056970
     3  C   -0.198923
     4  C   -0.191640
     5  C   -0.135659
     6  N   -0.628057
     7  C    0.264410
     8  C   -0.116660
     9  C   -0.176651
    10  C    0.370440
    11  C   -0.304553
    12  C   -0.165294
    13  C   -0.270807
    14  C    0.601952
    15  O   -0.432022
    16  O   -0.466310
    17  N   -0.687835
    18  C    0.285963
    19  C    0.105140
    20  C   -0.046744
    21  C    0.329800
    22  C   -0.425354
    23  C   -0.032308
    24  C   -0.247956
    25  N   -0.694839
    26  C    0.250605
    27  C    0.047927
    28  C    0.004848
    29  C    0.277696
    30  C   -0.349911
    31  C   -0.244779
    32  C   -0.284621
    33  N   -0.752122
    34  C    0.282351
    35  C    0.008933
    36  C    0.011623
    37  C    0.385914
    38  C   -0.380570
    39  C    0.342646
    40  O   -0.455096
    41  C   -0.308156
    42  C    0.624394
    43  O   -0.528460
    44  O   -0.419106
    45  C   -0.066184
    46  C    0.000729
    47  C   -0.125229
    48  C    0.170297
    49  C   -0.357226
    50  C   -0.233225
    51  C   -0.160707
    52  C   -0.171219
    53  C   -0.074170
    54  C   -0.299669
    55  C   -0.173686
    56  C   -0.159864
    57  C   -0.165247
    58  C   -0.053604
    59  C   -0.310169
    60  C   -0.172980
    61  C   -0.166708
    62  C   -0.136018
    63  C   -0.064386
    64  C   -0.328211
    65  C   -0.303700
    66  H    0.069587
    67  H    0.067939
    68  H    0.055839
    69  H    0.123588
    70  H    0.094065
    71  H    0.072845
    72  H    0.102430
    73  H    0.147106
    74  H    0.113711
    75  H    0.115243
    76  H    0.135135
    77  H    0.110444
    78  H    0.134158
    79  H    0.134182
    80  H    0.120635
    81  H    0.078541
    82  H    0.103698
    83  H    0.080657
    84  H    0.125021
    85  H    0.115258
    86  H    0.121624
    87  H    0.115775
    88  H    0.103286
    89  H    0.102617
    90  H    0.068419
    91  H    0.121681
    92  H    0.131583
    93  H    0.124439
    94  H    0.126732
    95  H    0.160291
    96  H    0.136626
    97  H    0.128115
    98  H    0.094616
    99  H    0.121820
   100  H    0.115231
   101  H    0.062722
   102  H    0.104173
   103  H    0.092485
   104  H    0.115271
   105  H    0.080989
   106  H    0.086166
   107  H    0.113457
   108  H    0.093718
   109  H    0.110488
   110  H    0.083543
   111  H    0.089872
   112  H    0.065561
   113  H    0.109493
   114  H    0.119041
   115  H    0.049402
   116  H    0.098458
   117  H    0.093685
   118  H    0.070580
   119  H    0.085489
   120  H    0.082713
   121  H    0.097766
   122  H    0.072787
   123  H    0.065766
   124  H    0.120688
   125  H    0.086008
   126  H    0.095604
   127  H    0.111641
   128  H    0.084810
   129  H    0.093311
   130  H    0.047468
   131  H    0.079420
   132  H    0.104598
   133  H    0.106232
   134  H    0.083895
   135  H    0.083070
   136  H    0.110026
   137  H    0.095075
 Sum of Mulliken charges =  -0.00000

 Dipole moment (field-independent basis, Debye):
    X=              1.8374    Y=              3.5677    Z=             -0.7954  Tot=              4.0911
 Quadrupole moment (field-independent basis, Debye-Ang):
   XX=           -343.2316   YY=           -394.8707   ZZ=           -401.5056
   XY=            -19.6387   XZ=              5.9320   YZ=              4.1023

 Normal termination of Gaussian 16 at Mon Sep  9 19:57:27 2019.
