 Gaussian 09, Revision D.01,
 Gaussian 09:  ES64L-G09RevD.01 24-Apr-2013

 -------------------------------------
 # td=(NStates=1) CAM-B3LYP/6-31G(d,p)
 -------------------------------------

 --
 TD
 --
 Symbolic Z-matrix:
 Charge =  0 Multiplicity = 1

                         Standard orientation:
 ---------------------------------------------------------------------
 Center     Atomic      Atomic             Coordinates (Angstroms)
 Number     Number       Type             X           Y           Z
 ---------------------------------------------------------------------
      1         12           0       -7.218788    0.669425    0.062756
      2          6           0       -4.828080   -2.014860    0.390170
      3          6           0       -4.855879    2.919085    0.949233
      4          6           0       -9.474492    3.096836   -0.322247
      5          6           0       -9.614761   -1.766396   -0.791602
      6          7           0       -5.125323    0.499083    0.510605
      7          6           0       -4.403087   -0.695415    0.658180
      8          6           0       -2.974292   -0.265493    1.144539
      9          6           0       -3.067434    1.107145    1.471957
     10          6           0       -4.385240    1.561081    0.876224
     11          6           0       -2.922086    1.361604    2.974352
     12          6           0       -1.913077   -0.647531    0.080458
     13          6           0       -0.405188   -0.544095    0.586083
     14          6           0        0.645221   -0.761536   -0.544621
     15          8           0        0.346489   -0.917606   -1.732719
     16          8           0        1.885377   -0.514962   -0.063336
     17          7           0       -7.093800    2.570199    0.197107
     18          6           0       -6.047880    3.343537    0.587709
     19          6           0       -6.474133    4.820440    0.717994
     20          6           0       -7.798314    4.856967    0.359852
     21          6           0       -8.149942    3.477024   -0.014337
     22          6           0       -5.545172    5.891987    1.125522
     23          6           0       -8.604407    6.039658    0.212584
     24          6           0       -8.647004    7.095116    0.992032
     25          7           0       -9.177789    0.601916   -0.480328
     26          6           0       -9.920470    1.755312   -0.723481
     27          6           0      -11.278198    1.345775   -1.041451
     28          6           0      -11.287029    0.042419   -1.187783
     29          6           0       -9.964291   -0.473369   -0.849670
     30          6           0      -12.362840    2.389316   -1.299080
     31          6           0      -12.492073   -0.767111   -1.564640
     32          6           0      -12.487157   -1.102589   -3.147599
     33          7           0       -7.321040   -1.360978   -0.085498
     34          6           0       -8.355837   -2.171976   -0.496095
     35          6           0       -7.887461   -3.550622   -0.501650
     36          6           0       -6.459910   -3.540662   -0.275714
     37          6           0       -6.169236   -2.126680    0.067448
     38          6           0       -8.743012   -4.765513   -0.793696
     39          6           0       -5.319441   -4.333864    0.130403
     40          8           0       -5.181373   -5.531713    0.211406
     41          6           0       -4.120035   -3.304864    0.411965
     42          6           0       -3.437539   -3.684959    1.812716
     43          8           0       -3.714626   -3.110266    2.893542
     44          8           0       -2.658835   -4.726286    1.766852
     45          6           0       -2.043003   -5.195814    3.036772
     46          6           0        2.926040   -0.760820   -1.052590
     47          6           0        4.196239   -0.424081   -0.426232
     48          6           0        5.227275    0.356028   -0.852818
     49          6           0        5.159988    1.121632   -2.137142
     50          6           0        6.623305    0.443285   -0.103279
     51          6           0        7.660768   -0.250681   -0.833865
     52          6           0        8.972581   -0.107882    0.064956
     53          6           0       10.251966   -0.555804   -0.744569
     54          6           0       10.037062   -2.107807   -1.193761
     55          6           0       11.550597   -0.349007    0.176929
     56          6           0       12.805321   -0.562112   -0.618721
     57          6           0       14.078030   -0.207668    0.151696
     58          6           0       15.327146   -0.335420   -0.649645
     59          6           0       15.734628   -1.787608   -0.808694
     60          6           0       16.444832    0.292390    0.323453
     61          6           0       17.846755    0.599645   -0.359229
     62          6           0       18.752028    1.276034    0.645950
     63          6           0       20.197344    1.475738    0.143329
     64          6           0       20.353866    2.455386   -1.104260
     65          6           0       21.130883    2.104534    1.218391
     66          1           0       -4.112482    3.661624    1.413994
     67          1           0      -10.153063    3.963574   -0.554814
     68          1           0      -10.311063   -2.571731   -0.990692
     69          1           0       -2.700835   -1.011192    1.848804
     70          1           0       -2.484892    1.635539    0.855228
     71          1           0       -1.866623    1.090457    3.138217
     72          1           0       -3.070200    2.428161    3.322488
     73          1           0       -3.703244    0.737372    3.543154
     74          1           0       -2.288340   -1.726843   -0.078617
     75          1           0       -2.274406   -0.179399   -1.129183
     76          1           0       -0.437920    0.536323    0.967118
     77          1           0       -0.003877   -1.096353    1.523190
     78          1           0       -5.655022    6.711378    0.517439
     79          1           0       -5.745718    6.031110    2.139635
     80          1           0       -4.668932    5.561637    0.861045
     81          1           0       -9.410814    6.172963   -0.700031
     82          1           0       -9.107611    7.955855    0.698405
     83          1           0       -7.978539    7.207805    1.957497
     84          1           0      -12.382811    2.935933   -2.393333
     85          1           0      -13.300097    1.793740   -1.692704
     86          1           0      -12.686409    2.851288   -0.416253
     87          1           0      -12.861956   -1.683176   -1.049004
     88          1           0      -13.251003    0.022618   -1.297875
     89          1           0      -13.296014   -1.888750   -3.261367
     90          1           0      -12.496828   -0.188633   -3.747608
     91          1           0      -11.432473   -1.557735   -3.444586
     92          1           0       -9.378120   -4.501478   -1.688942
     93          1           0       -8.003425   -5.641237   -0.702520
     94          1           0       -9.534268   -4.791123    0.056921
     95          1           0       -3.493875   -3.404791   -0.258646
     96          1           0       -1.147903   -4.411477    3.200912
     97          1           0       -2.613981   -5.326781    3.842550
     98          1           0       -1.582863   -6.267313    2.840433
     99          1           0        2.808586   -1.877921   -1.246231
    100          1           0        2.587214   -0.167575   -2.023915
    101          1           0        4.200313   -0.928314    0.602973
    102          1           0        4.181622    1.136025   -2.517432
    103          1           0        5.611234    2.250289   -1.739467
    104          1           0        5.949109    0.801369   -2.866754
    105          1           0        6.700873    1.490968   -0.098011
    106          1           0        6.657230    0.111732    0.838976
    107          1           0        7.411927   -1.371592   -0.600651
    108          1           0        7.908179    0.213499   -1.905476
    109          1           0        9.030535    0.912533    0.382146
    110          1           0        8.766110   -0.697784    0.954631
    111          1           0       10.210418    0.173977   -1.582394
    112          1           0        9.554177   -2.204378   -2.168261
    113          1           0       11.023760   -2.373319   -1.662499
    114          1           0        9.847198   -2.664636   -0.459876
    115          1           0       11.530061    0.699338    0.475603
    116          1           0       11.475287   -1.086600    1.013019
    117          1           0       12.893140   -1.600744   -0.988518
    118          1           0       12.789169    0.095473   -1.548391
    119          1           0       13.841215    0.686646    0.596477
    120          1           0       14.192164   -0.819557    0.972140
    121          1           0       15.445681    0.206523   -1.569985
    122          1           0       16.298935   -2.161373    0.183304
    123          1           0       14.837104   -2.329179   -1.191627
    124          1           0       16.672481   -1.759346   -1.526945
    125          1           0       16.135443    1.395640    0.750614
    126          1           0       16.524159   -0.415731    1.111389
    127          1           0       18.278276   -0.366724   -0.661591
    128          1           0       17.976715    1.231876   -1.269630
    129          1           0       18.219453    2.072126    0.897559
    130          1           0       18.827352    0.755107    1.587193
    131          1           0       20.728964    0.654420   -0.236629
    132          1           0       20.039538    3.479977   -0.578595
    133          1           0       21.411941    2.455033   -1.705575
    134          1           0       19.935077    2.103333   -2.008785
    135          1           0       21.220310    1.489153    2.145711
    136          1           0       22.250253    2.082349    1.068324
    137          1           0       20.796017    3.085669    1.669550
 ---------------------------------------------------------------------

 SCF Done:  E(RCAM-B3LYP) =  -2932.59530019     A.U. after   18 cycles

 Excitation energies and oscillator strengths:

 Excited State   1:      Singlet-A      2.1127 eV  586.86 nm  f=0.2259  <S**2>=0.000
     240 -> 243       -0.25782
     241 -> 242        0.65364
 This state for optimization and/or second-order correction.
 Total Energy, E(TD-HF/TD-KS) =  -2932.51766151
 Copying the excited state density for this state as the 1-particle RhoCI density.

 The electronic state is 1-A.
 Alpha  occ. eigenvalues --  -46.82665 -19.27430 -19.26515 -19.21065 -19.19593
 Alpha  occ. eigenvalues --  -19.19556 -14.42104 -14.39624 -14.38972 -14.38902
 Alpha  occ. eigenvalues --  -10.39731 -10.39510 -10.34547 -10.33289 -10.32664
 Alpha  occ. eigenvalues --  -10.31549 -10.30789 -10.30195 -10.30035 -10.29708
 Alpha  occ. eigenvalues --  -10.29316 -10.29210 -10.28765 -10.28249 -10.27986
 Alpha  occ. eigenvalues --  -10.27902 -10.27740 -10.27624 -10.27459 -10.27435
 Alpha  occ. eigenvalues --  -10.27435 -10.27269 -10.27176 -10.27170 -10.27099
 Alpha  occ. eigenvalues --  -10.27087 -10.26940 -10.26905 -10.26877 -10.26613
 Alpha  occ. eigenvalues --  -10.26562 -10.26435 -10.26293 -10.26256 -10.26188
 Alpha  occ. eigenvalues --  -10.26147 -10.26103 -10.26095 -10.26015 -10.25714
 Alpha  occ. eigenvalues --  -10.25657 -10.25584 -10.25371 -10.25342 -10.25238
 Alpha  occ. eigenvalues --  -10.25038 -10.24917 -10.24906 -10.24812 -10.24668
 Alpha  occ. eigenvalues --  -10.24588 -10.24021 -10.23974 -10.23675 -10.22932
 Alpha  occ. eigenvalues --   -3.12055  -1.86735  -1.86322  -1.86241  -1.18501
 Alpha  occ. eigenvalues --   -1.17712  -1.10691  -1.08501  -1.06458  -1.04231
 Alpha  occ. eigenvalues --   -1.02807  -1.02379  -1.00966  -0.92993  -0.91456
 Alpha  occ. eigenvalues --   -0.90866  -0.90703  -0.90189  -0.88956  -0.88735
 Alpha  occ. eigenvalues --   -0.88057  -0.88026  -0.87339  -0.86262  -0.85847
 Alpha  occ. eigenvalues --   -0.84960  -0.84332  -0.83287  -0.82929  -0.82052
 Alpha  occ. eigenvalues --   -0.81437  -0.81191  -0.80564  -0.79825  -0.79181
 Alpha  occ. eigenvalues --   -0.77821  -0.77481  -0.76310  -0.76267  -0.75149
 Alpha  occ. eigenvalues --   -0.74513  -0.74459  -0.73800  -0.73012  -0.72095
 Alpha  occ. eigenvalues --   -0.71051  -0.69901  -0.69109  -0.68616  -0.67619
 Alpha  occ. eigenvalues --   -0.66983  -0.66368  -0.64888  -0.64778  -0.64504
 Alpha  occ. eigenvalues --   -0.64269  -0.64150  -0.63804  -0.62968  -0.62592
 Alpha  occ. eigenvalues --   -0.62382  -0.60074  -0.59974  -0.59219  -0.58928
 Alpha  occ. eigenvalues --   -0.58196  -0.57940  -0.57774  -0.57123  -0.56829
 Alpha  occ. eigenvalues --   -0.55977  -0.55615  -0.55417  -0.55185  -0.54815
 Alpha  occ. eigenvalues --   -0.54038  -0.54007  -0.53764  -0.53345  -0.53276
 Alpha  occ. eigenvalues --   -0.53005  -0.52853  -0.52702  -0.52145  -0.51949
 Alpha  occ. eigenvalues --   -0.51548  -0.51450  -0.51256  -0.51048  -0.50903
 Alpha  occ. eigenvalues --   -0.50638  -0.50366  -0.50017  -0.49560  -0.49365
 Alpha  occ. eigenvalues --   -0.49191  -0.48938  -0.48713  -0.48477  -0.48284
 Alpha  occ. eigenvalues --   -0.48146  -0.47920  -0.47891  -0.47312  -0.47236
 Alpha  occ. eigenvalues --   -0.47133  -0.46585  -0.46274  -0.46030  -0.45824
 Alpha  occ. eigenvalues --   -0.45667  -0.45481  -0.45319  -0.44969  -0.44852
 Alpha  occ. eigenvalues --   -0.44750  -0.44664  -0.44222  -0.44115  -0.44069
 Alpha  occ. eigenvalues --   -0.43708  -0.43309  -0.43133  -0.42959  -0.42848
 Alpha  occ. eigenvalues --   -0.42664  -0.42512  -0.42287  -0.42238  -0.41939
 Alpha  occ. eigenvalues --   -0.41376  -0.41331  -0.41184  -0.40865  -0.40801
 Alpha  occ. eigenvalues --   -0.40677  -0.40645  -0.40524  -0.40351  -0.40168
 Alpha  occ. eigenvalues --   -0.39995  -0.39606  -0.39502  -0.39327  -0.39170
 Alpha  occ. eigenvalues --   -0.38898  -0.38764  -0.38697  -0.37802  -0.37673
 Alpha  occ. eigenvalues --   -0.37507  -0.37464  -0.37109  -0.36598  -0.36370
 Alpha  occ. eigenvalues --   -0.36294  -0.36063  -0.35950  -0.35805  -0.35369
 Alpha  occ. eigenvalues --   -0.35134  -0.35094  -0.34329  -0.33412  -0.32902
 Alpha  occ. eigenvalues --   -0.32387  -0.32276  -0.32208  -0.30470  -0.29458
 Alpha  occ. eigenvalues --   -0.29284  -0.29027  -0.28389  -0.27915  -0.23419
 Alpha  occ. eigenvalues --   -0.20282
 Alpha virt. eigenvalues --   -0.05275  -0.03078   0.01813   0.04541   0.05032
 Alpha virt. eigenvalues --    0.05990   0.06220   0.06564   0.07105   0.07429
 Alpha virt. eigenvalues --    0.08382   0.10370   0.11360   0.11413   0.11916

 Mulliken charges:
               1
     1  Mg   0.820928
     2  C    0.083700
     3  C   -0.239070
     4  C   -0.189812
     5  C   -0.149637
     6  N   -0.626842
     7  C    0.279684
     8  C   -0.164366
     9  C   -0.106587
    10  C    0.297809
    11  C   -0.296214
    12  C   -0.166468
    13  C   -0.273442
    14  C    0.616448
    15  O   -0.474503
    16  O   -0.472943
    17  N   -0.735561
    18  C    0.372824
    19  C   -0.024476
    20  C    0.036027
    21  C    0.282795
    22  C   -0.338212
    23  C   -0.093151
    24  C   -0.228275
    25  N   -0.679035
    26  C    0.257825
    27  C    0.020018
    28  C    0.039918
    29  C    0.294524
    30  C   -0.375638
    31  C   -0.252819
    32  C   -0.305488
    33  N   -0.736507
    34  C    0.318815
    35  C   -0.004425
    36  C   -0.041252
    37  C    0.290843
    38  C   -0.374576
    39  C    0.362996
    40  O   -0.465640
    41  C   -0.269606
    42  C    0.599055
    43  O   -0.508203
    44  O   -0.425223
    45  C   -0.076099
    46  C    0.000914
    47  C   -0.127098
    48  C    0.086587
    49  C   -0.337931
    50  C   -0.187950
    51  C   -0.166914
    52  C   -0.193993
    53  C   -0.071504
    54  C   -0.315405
    55  C   -0.169688
    56  C   -0.183498
    57  C   -0.149585
    58  C   -0.070955
    59  C   -0.297796
    60  C   -0.176616
    61  C   -0.197150
    62  C   -0.155145
    63  C   -0.062337
    64  C   -0.297425
    65  C   -0.321792
    66  H    0.089695
    67  H    0.093100
    68  H    0.097224
    69  H    0.133639
    70  H    0.117432
    71  H    0.110842
    72  H    0.100465
    73  H    0.129662
    74  H    0.091015
    75  H    0.085190
    76  H    0.134373
    77  H    0.130310
    78  H    0.131773
    79  H    0.138311
    80  H    0.120288
    81  H    0.089343
    82  H    0.107196
    83  H    0.086060
    84  H    0.111962
    85  H    0.093196
    86  H    0.139211
    87  H    0.106176
    88  H    0.099804
    89  H    0.103634
    90  H    0.116057
    91  H    0.095374
    92  H    0.124131
    93  H    0.149847
    94  H    0.116828
    95  H    0.154026
    96  H    0.115217
    97  H    0.163997
    98  H    0.121681
    99  H    0.124305
   100  H    0.124799
   101  H    0.085636
   102  H    0.122293
   103  H    0.074638
   104  H    0.125600
   105  H    0.097185
   106  H    0.104230
   107  H    0.103091
   108  H    0.083384
   109  H    0.089644
   110  H    0.086650
   111  H    0.080359
   112  H    0.113053
   113  H    0.090804
   114  H    0.115014
   115  H    0.094595
   116  H    0.089688
   117  H    0.087321
   118  H    0.079392
   119  H    0.091976
   120  H    0.091560
   121  H    0.095125
   122  H    0.087757
   123  H    0.105250
   124  H    0.092874
   125  H    0.057677
   126  H    0.101127
   127  H    0.084244
   128  H    0.097400
   129  H    0.101670
   130  H    0.092564
   131  H    0.098634
   132  H    0.093157
   133  H    0.070721
   134  H    0.104123
   135  H    0.085152
   136  H    0.099479
   137  H    0.095910
 Sum of Mulliken charges =   0.00000

 Dipole moment (field-independent basis, Debye):
    X=              3.1857    Y=              4.4476    Z=              1.1958  Tot=              5.6000
 Quadrupole moment (field-independent basis, Debye-Ang):
   XX=           -355.9780   YY=           -389.7766   ZZ=           -395.4082
   XY=            -36.5281   XZ=              9.5624   YZ=             -4.5249

 Normal termination of Gaussian 09 at Wed Jul  3 19:17:23 2019.
