 Gaussian 09, Revision D.01,
 Gaussian 09:  ES64L-G09RevD.01 24-Apr-2013

 -------------------------------------
 # td=(NStates=1) CAM-B3LYP/6-31G(d,p)
 -------------------------------------

 --
 TD
 --
 Symbolic Z-matrix:
 Charge =  0 Multiplicity = 1

                         Standard orientation:
 ---------------------------------------------------------------------
 Center     Atomic      Atomic             Coordinates (Angstroms)
 Number     Number       Type             X           Y           Z
 ---------------------------------------------------------------------
      1         12           0       -7.170824    0.614596    0.004071
      2          6           0       -4.822359   -1.948247    0.547575
      3          6           0       -4.996449    2.892692    1.361466
      4          6           0       -9.448270    3.134978   -0.424177
      5          6           0       -9.421996   -1.794372   -1.016788
      6          7           0       -5.194204    0.504385    0.797102
      7          6           0       -4.399645   -0.624263    0.864292
      8          6           0       -2.954783   -0.298334    1.272588
      9          6           0       -3.132993    1.106179    1.781124
     10          6           0       -4.455920    1.584624    1.284648
     11          6           0       -3.090867    1.280870    3.299110
     12          6           0       -1.902571   -0.568048    0.103642
     13          6           0       -0.522928   -0.424614    0.571104
     14          6           0        0.537531   -0.687050   -0.516204
     15          8           0        0.215253   -1.123320   -1.627767
     16          8           0        1.746450   -0.504479   -0.120750
     17          7           0       -7.205485    2.615695    0.308992
     18          6           0       -6.125900    3.340795    0.792410
     19          6           0       -6.477362    4.757351    0.890201
     20          6           0       -7.769368    4.931166    0.242567
     21          6           0       -8.232733    3.485412    0.020010
     22          6           0       -5.603281    5.887320    1.445063
     23          6           0       -8.511319    6.040150    0.055651
     24          6           0       -8.446405    7.240303    0.687294
     25          7           0       -9.108553    0.644978   -0.623923
     26          6           0       -9.778745    1.743746   -0.785503
     27          6           0      -11.180608    1.428717   -1.305525
     28          6           0      -11.137517    0.055237   -1.391652
     29          6           0       -9.793924   -0.433772   -1.016946
     30          6           0      -12.315843    2.439984   -1.453774
     31          6           0      -12.277382   -0.728654   -1.895129
     32          6           0      -12.154545   -0.983429   -3.405180
     33          7           0       -7.182486   -1.499288   -0.114535
     34          6           0       -8.241264   -2.362677   -0.586919
     35          6           0       -7.780300   -3.666739   -0.501132
     36          6           0       -6.426116   -3.543916   -0.147491
     37          6           0       -6.147686   -2.242378    0.030629
     38          6           0       -8.621419   -4.896011   -0.789733
     39          6           0       -5.263169   -4.334058    0.163624
     40          8           0       -5.088274   -5.553002    0.169203
     41          6           0       -4.101503   -3.303183    0.616362
     42          6           0       -3.666823   -3.620751    2.057378
     43          8           0       -3.998943   -3.055819    3.072326
     44          8           0       -2.738841   -4.595060    1.879589
     45          6           0       -2.193915   -5.186368    3.154596
     46          6           0        2.737752   -0.740415   -1.212246
     47          6           0        4.072315   -0.558987   -0.650637
     48          6           0        5.099476    0.247196   -1.035858
     49          6           0        5.062584    1.163293   -2.327565
     50          6           0        6.382694    0.242733   -0.222136
     51          6           0        7.599618   -0.394939   -1.037588
     52          6           0        8.827206   -0.368608   -0.146495
     53          6           0       10.198880   -0.637027   -0.789666
     54          6           0       10.182675   -2.137427   -1.243149
     55          6           0       11.430200   -0.258009    0.032414
     56          6           0       12.820010   -0.521758   -0.595371
     57          6           0       13.963350   -0.096130    0.270788
     58          6           0       15.379562   -0.018057   -0.439486
     59          6           0       15.728347   -1.415545   -0.909561
     60          6           0       16.429836    0.551863    0.359698
     61          6           0       17.920219    0.595287   -0.241971
     62          6           0       18.907052    1.391360    0.699383
     63          6           0       20.358189    1.330257    0.102220
     64          6           0       20.473669    2.222118   -1.114715
     65          6           0       21.386226    1.900936    1.146253
     66          1           0       -4.309709    3.667268    1.886387
     67          1           0      -10.072276    3.933606   -0.594518
     68          1           0      -10.308042   -2.463924   -1.525794
     69          1           0       -2.595219   -0.979459    2.084525
     70          1           0       -2.406032    1.705008    1.292488
     71          1           0       -2.019439    1.020366    3.605513
     72          1           0       -3.394567    2.293251    3.612668
     73          1           0       -3.935722    0.595056    3.627762
     74          1           0       -1.931648   -1.450023   -0.284750
     75          1           0       -2.156786    0.289552   -0.582176
     76          1           0       -0.243185    0.628938    0.859323
     77          1           0       -0.396523   -1.172148    1.415688
     78          1           0       -5.759234    6.748778    0.802125
     79          1           0       -5.695303    6.075324    2.459240
     80          1           0       -4.481307    5.547769    1.229158
     81          1           0       -9.190488    6.218082   -0.745753
     82          1           0       -9.231756    7.971984    0.593197
     83          1           0       -7.925392    7.433718    1.560252
     84          1           0      -12.331954    3.221209   -2.248045
     85          1           0      -13.165811    1.805599   -1.817377
     86          1           0      -12.579110    2.737066   -0.372823
     87          1           0      -12.324068   -1.773149   -1.685548
     88          1           0      -13.311525   -0.149716   -1.748090
     89          1           0      -12.974575   -1.538950   -3.603297
     90          1           0      -12.430743   -0.146568   -4.046507
     91          1           0      -11.150318   -1.502612   -3.805694
     92          1           0       -8.990414   -4.667822   -1.987954
     93          1           0       -8.074522   -5.892083   -0.732704
     94          1           0       -9.431475   -4.887939   -0.151698
     95          1           0       -3.201442   -3.368851   -0.131195
     96          1           0       -1.707624   -4.434219    3.725200
     97          1           0       -2.919452   -5.746793    3.873207
     98          1           0       -1.347418   -5.941240    3.020528
     99          1           0        2.452220   -1.639066   -1.556225
    100          1           0        2.542661    0.086941   -1.825013
    101          1           0        4.124194   -0.920799    0.422471
    102          1           0        4.107967    1.505239   -2.720917
    103          1           0        5.462386    2.086636   -2.032713
    104          1           0        5.597096    0.658733   -3.096462
    105          1           0        6.547906    1.274722    0.219845
    106          1           0        6.111946   -0.254166    0.798903
    107          1           0        7.519757   -1.411117   -1.396276
    108          1           0        7.634841    0.220762   -2.046776
    109          1           0        9.075297    0.681178    0.217873
    110          1           0        8.732587   -0.945598    0.721979
    111          1           0       10.204936    0.136217   -1.779474
    112          1           0        9.145349   -2.310059   -1.740143
    113          1           0       10.860101   -2.468500   -2.041263
    114          1           0       10.196806   -2.772456   -0.300083
    115          1           0       11.609321    0.772407    0.268466
    116          1           0       11.631176   -0.807390    0.970729
    117          1           0       13.035848   -1.756337   -0.506535
    118          1           0       12.938036   -0.191987   -1.638594
    119          1           0       13.912156    0.978297    0.647061
    120          1           0       14.048357   -0.682038    1.282224
    121          1           0       15.037013    0.724069   -1.380171
    122          1           0       15.550777   -2.311294   -0.191674
    123          1           0       15.086429   -1.685078   -1.915423
    124          1           0       16.751205   -1.605107   -1.314325
    125          1           0       16.134732    1.525136    0.869874
    126          1           0       16.581976    0.038035    1.376313
    127          1           0       18.290868   -0.435381   -0.243952
    128          1           0       17.959384    0.978352   -1.300385
    129          1           0       18.745133    2.315260    0.922063
    130          1           0       18.769095    0.677683    1.525248
    131          1           0       20.549859    0.216843   -0.165182
    132          1           0       20.175737    3.152769   -1.021892
    133          1           0       21.264711    2.226152   -1.559941
    134          1           0       19.878103    1.882556   -1.846939
    135          1           0       21.376774    1.549876    2.212955
    136          1           0       22.285048    1.843505    0.726275
    137          1           0       21.256214    3.101037    1.354677
 ---------------------------------------------------------------------

 SCF Done:  E(RCAM-B3LYP) =  -2932.67098244     A.U. after   17 cycles

 Excitation energies and oscillator strengths:

 Excited State   1:      Singlet-A      2.1896 eV  566.24 nm  f=0.1922  <S**2>=0.000
     240 -> 242        0.24845
     240 -> 243       -0.21720
     241 -> 242        0.58706
     241 -> 243        0.18111
 This state for optimization and/or second-order correction.
 Total Energy, E(TD-HF/TD-KS) =  -2932.59051643
 Copying the excited state density for this state as the 1-particle RhoCI density.

 The electronic state is 1-A.
 Alpha  occ. eigenvalues --  -46.84371 -19.26723 -19.26511 -19.20980 -19.19328
 Alpha  occ. eigenvalues --  -19.18783 -14.41943 -14.39572 -14.39420 -14.37972
 Alpha  occ. eigenvalues --  -10.38972 -10.38372 -10.33813 -10.32016 -10.31776
 Alpha  occ. eigenvalues --  -10.30771 -10.30427 -10.30297 -10.29776 -10.29644
 Alpha  occ. eigenvalues --  -10.29183 -10.28712 -10.28584 -10.28433 -10.28179
 Alpha  occ. eigenvalues --  -10.28170 -10.28059 -10.27874 -10.27648 -10.27616
 Alpha  occ. eigenvalues --  -10.27437 -10.27419 -10.27225 -10.27187 -10.27139
 Alpha  occ. eigenvalues --  -10.26974 -10.26928 -10.26888 -10.26864 -10.26861
 Alpha  occ. eigenvalues --  -10.26829 -10.26612 -10.26488 -10.26484 -10.26407
 Alpha  occ. eigenvalues --  -10.26330 -10.26270 -10.26187 -10.26039 -10.26002
 Alpha  occ. eigenvalues --  -10.25875 -10.25862 -10.25856 -10.25855 -10.25845
 Alpha  occ. eigenvalues --  -10.25794 -10.25782 -10.25348 -10.25310 -10.25158
 Alpha  occ. eigenvalues --  -10.24643 -10.24621 -10.23755 -10.23099 -10.20130
 Alpha  occ. eigenvalues --   -3.13330  -1.88048  -1.87567  -1.87497  -1.19575
 Alpha  occ. eigenvalues --   -1.16577  -1.08861  -1.08586  -1.07529  -1.04940
 Alpha  occ. eigenvalues --   -1.03957  -1.03151  -1.01997  -0.91130  -0.90977
 Alpha  occ. eigenvalues --   -0.90632  -0.90283  -0.90073  -0.89434  -0.89104
 Alpha  occ. eigenvalues --   -0.88602  -0.88540  -0.87348  -0.86785  -0.86121
 Alpha  occ. eigenvalues --   -0.85471  -0.84143  -0.83487  -0.83083  -0.82723
 Alpha  occ. eigenvalues --   -0.81860  -0.80728  -0.80213  -0.79921  -0.77877
 Alpha  occ. eigenvalues --   -0.77603  -0.77457  -0.76942  -0.76701  -0.75152
 Alpha  occ. eigenvalues --   -0.74896  -0.74878  -0.74493  -0.73426  -0.71916
 Alpha  occ. eigenvalues --   -0.71512  -0.70764  -0.69492  -0.69225  -0.68846
 Alpha  occ. eigenvalues --   -0.67705  -0.66710  -0.65212  -0.64212  -0.64176
 Alpha  occ. eigenvalues --   -0.63845  -0.63484  -0.63255  -0.62293  -0.61956
 Alpha  occ. eigenvalues --   -0.61135  -0.60957  -0.60073  -0.59312  -0.59115
 Alpha  occ. eigenvalues --   -0.58798  -0.58433  -0.58180  -0.57190  -0.56387
 Alpha  occ. eigenvalues --   -0.55841  -0.55569  -0.54932  -0.54906  -0.54706
 Alpha  occ. eigenvalues --   -0.54541  -0.53914  -0.53754  -0.53288  -0.52921
 Alpha  occ. eigenvalues --   -0.52297  -0.52127  -0.52023  -0.51697  -0.51641
 Alpha  occ. eigenvalues --   -0.51402  -0.51155  -0.51029  -0.50843  -0.50641
 Alpha  occ. eigenvalues --   -0.50400  -0.50254  -0.49942  -0.49904  -0.49595
 Alpha  occ. eigenvalues --   -0.49523  -0.49113  -0.48991  -0.48738  -0.48211
 Alpha  occ. eigenvalues --   -0.47951  -0.47904  -0.47453  -0.47378  -0.47276
 Alpha  occ. eigenvalues --   -0.46943  -0.46700  -0.46543  -0.46108  -0.45939
 Alpha  occ. eigenvalues --   -0.45719  -0.45559  -0.45346  -0.45106  -0.44856
 Alpha  occ. eigenvalues --   -0.44752  -0.44598  -0.44507  -0.44101  -0.43842
 Alpha  occ. eigenvalues --   -0.43685  -0.43421  -0.43310  -0.43275  -0.43173
 Alpha  occ. eigenvalues --   -0.42933  -0.42827  -0.42700  -0.42390  -0.42190
 Alpha  occ. eigenvalues --   -0.42043  -0.41694  -0.41601  -0.41553  -0.41361
 Alpha  occ. eigenvalues --   -0.41099  -0.40992  -0.40586  -0.40343  -0.40197
 Alpha  occ. eigenvalues --   -0.40114  -0.39991  -0.39814  -0.39219  -0.39107
 Alpha  occ. eigenvalues --   -0.38734  -0.38709  -0.38527  -0.38253  -0.38155
 Alpha  occ. eigenvalues --   -0.37405  -0.37279  -0.37043  -0.36778  -0.36693
 Alpha  occ. eigenvalues --   -0.36259  -0.36204  -0.36044  -0.35983  -0.35704
 Alpha  occ. eigenvalues --   -0.35477  -0.35125  -0.34427  -0.33499  -0.33485
 Alpha  occ. eigenvalues --   -0.32930  -0.32595  -0.32389  -0.29991  -0.29841
 Alpha  occ. eigenvalues --   -0.28677  -0.28388  -0.27768  -0.26902  -0.22829
 Alpha  occ. eigenvalues --   -0.21278
 Alpha virt. eigenvalues --   -0.06053  -0.03112   0.01673   0.04015   0.05394
 Alpha virt. eigenvalues --    0.05674   0.06666   0.07156   0.07525   0.07887
 Alpha virt. eigenvalues --    0.08773   0.10301   0.10972   0.11550   0.11694

 Mulliken charges:
               1
     1  Mg   0.822286
     2  C    0.057897
     3  C   -0.220140
     4  C   -0.158563
     5  C   -0.174813
     6  N   -0.632091
     7  C    0.297383
     8  C   -0.158996
     9  C   -0.149921
    10  C    0.318495
    11  C   -0.297447
    12  C   -0.126015
    13  C   -0.272162
    14  C    0.598039
    15  O   -0.510976
    16  O   -0.467006
    17  N   -0.741191
    18  C    0.360997
    19  C   -0.005541
    20  C    0.056328
    21  C    0.333723
    22  C   -0.368029
    23  C   -0.140090
    24  C   -0.247201
    25  N   -0.692844
    26  C    0.285947
    27  C   -0.003471
    28  C    0.041176
    29  C    0.309343
    30  C   -0.370346
    31  C   -0.263069
    32  C   -0.310053
    33  N   -0.721863
    34  C    0.243952
    35  C    0.036631
    36  C    0.002208
    37  C    0.334379
    38  C   -0.349605
    39  C    0.344058
    40  O   -0.479440
    41  C   -0.337857
    42  C    0.647554
    43  O   -0.463030
    44  O   -0.454543
    45  C   -0.101648
    46  C    0.039353
    47  C   -0.147689
    48  C    0.083997
    49  C   -0.369029
    50  C   -0.222746
    51  C   -0.171538
    52  C   -0.168589
    53  C   -0.050049
    54  C   -0.307337
    55  C   -0.165009
    56  C   -0.171521
    57  C   -0.178281
    58  C   -0.023270
    59  C   -0.307960
    60  C   -0.176027
    61  C   -0.200385
    62  C   -0.148477
    63  C   -0.075963
    64  C   -0.290429
    65  C   -0.300596
    66  H    0.086037
    67  H    0.083575
    68  H    0.096037
    69  H    0.111051
    70  H    0.105696
    71  H    0.107601
    72  H    0.113137
    73  H    0.131756
    74  H    0.126789
    75  H    0.100308
    76  H    0.116586
    77  H    0.123922
    78  H    0.133691
    79  H    0.140240
    80  H    0.094688
    81  H    0.106244
    82  H    0.101741
    83  H    0.102757
    84  H    0.125372
    85  H    0.101774
    86  H    0.126402
    87  H    0.111342
    88  H    0.093727
    89  H    0.111074
    90  H    0.100542
    91  H    0.097583
    92  H    0.087976
    93  H    0.144762
    94  H    0.138512
    95  H    0.156382
    96  H    0.134496
    97  H    0.130010
    98  H    0.122547
    99  H    0.151520
   100  H    0.128830
   101  H    0.090416
   102  H    0.115918
   103  H    0.124958
   104  H    0.134023
   105  H    0.104497
   106  H    0.092369
   107  H    0.116924
   108  H    0.089017
   109  H    0.085221
   110  H    0.105328
   111  H    0.049053
   112  H    0.080384
   113  H    0.112145
   114  H    0.100002
   115  H    0.099319
   116  H    0.091662
   117  H    0.067734
   118  H    0.093736
   119  H    0.071592
   120  H    0.077864
   121  H    0.063051
   122  H    0.096865
   123  H    0.079146
   124  H    0.101232
   125  H    0.082703
   126  H    0.078520
   127  H    0.102792
   128  H    0.088559
   129  H    0.096756
   130  H    0.089249
   131  H    0.072186
   132  H    0.107945
   133  H    0.102499
   134  H    0.097027
   135  H    0.095402
   136  H    0.114055
   137  H    0.064243
 Sum of Mulliken charges =   0.00000

 Dipole moment (field-independent basis, Debye):
    X=              3.0198    Y=              6.2030    Z=              0.4024  Tot=              6.9108
 Quadrupole moment (field-independent basis, Debye-Ang):
   XX=           -337.0341   YY=           -392.3903   ZZ=           -393.7426
   XY=            -30.1490   XZ=              9.5586   YZ=             -3.7681

 Normal termination of Gaussian 09 at Tue Jul  2 20:47:58 2019.
