 Gaussian 16, Revision A.03,
 Gaussian 16:  ES64L-G16RevA.03 25-Dec-2016

 ----------------------------------------------------------------------
 # td=(NStates=1) iop(3/107=0140000000,3/108=0140000000) CAM-B3LYP/6-31
 G(d,p)
 ----------------------------------------------------------------------

 --
 TD
 --
 Symbolic Z-matrix:
 Charge =  0 Multiplicity = 1

                         Standard orientation:
 ---------------------------------------------------------------------
 Center     Atomic      Atomic             Coordinates (Angstroms)
 Number     Number       Type             X           Y           Z
 ---------------------------------------------------------------------
      1         12           0       -7.129458    0.654771    0.129126
      2          6           0       -4.892835   -2.073777    0.607690
      3          6           0       -4.706904    2.752523    1.190204
      4          6           0       -9.290767    3.157742   -0.200081
      5          6           0       -9.541570   -1.635685   -0.842198
      6          7           0       -5.020043    0.375656    0.769863
      7          6           0       -4.412320   -0.726552    0.830786
      8          6           0       -2.919588   -0.556399    1.334571
      9          6           0       -2.951200    0.940885    1.798202
     10          6           0       -4.261333    1.505014    1.214481
     11          6           0       -3.007582    0.865797    3.399735
     12          6           0       -2.037673   -0.702479    0.093899
     13          6           0       -0.500514   -0.646412    0.516804
     14          6           0        0.444215   -0.754029   -0.775413
     15          8           0        0.026457   -1.006863   -1.881474
     16          8           0        1.695940   -0.297116   -0.406951
     17          7           0       -7.038805    2.531833    0.371565
     18          6           0       -5.975208    3.226401    0.816068
     19          6           0       -6.160251    4.678458    0.863005
     20          6           0       -7.464309    4.818037    0.402645
     21          6           0       -7.997115    3.538969    0.111845
     22          6           0       -5.315279    5.786369    1.317814
     23          6           0       -8.387944    6.091405    0.255954
     24          6           0       -8.097597    7.288011    0.702935
     25          7           0       -9.084768    0.746384   -0.580280
     26          6           0       -9.816340    1.849235   -0.584064
     27          6           0      -11.155626    1.638298   -0.998235
     28          6           0      -11.139902    0.268800   -1.162785
     29          6           0       -9.888632   -0.322811   -0.912412
     30          6           0      -12.117620    2.733784   -1.404670
     31          6           0      -12.302935   -0.546825   -1.795445
     32          6           0      -12.248644   -0.860075   -3.309703
     33          7           0       -7.250230   -1.372340   -0.163500
     34          6           0       -8.280131   -2.129264   -0.508848
     35          6           0       -7.934601   -3.498758   -0.509252
     36          6           0       -6.616095   -3.587819   -0.053996
     37          6           0       -6.239266   -2.172451    0.089988
     38          6           0       -8.593624   -4.721021   -0.933351
     39          6           0       -5.380438   -4.401083    0.089912
     40          8           0       -5.217950   -5.639755   -0.032938
     41          6           0       -4.222110   -3.373380    0.567879
     42          6           0       -3.616378   -3.810753    1.865304
     43          8           0       -3.901705   -3.427482    2.990125
     44          8           0       -2.677384   -4.780642    1.722032
     45          6           0       -2.295758   -5.471145    2.924888
     46          6           0        2.786651   -0.591695   -1.391643
     47          6           0        4.084000   -0.374984   -0.656067
     48          6           0        5.069381    0.466826   -1.037044
     49          6           0        4.996233    1.357302   -2.250398
     50          6           0        6.419525    0.399132   -0.290037
     51          6           0        7.517673   -0.220473   -0.940518
     52          6           0        8.863610   -0.079126   -0.243428
     53          6           0       10.185059   -0.510024   -0.960151
     54          6           0        9.951714   -1.868879   -1.515668
     55          6           0       11.362361   -0.166991   -0.108323
     56          6           0       12.706365   -0.536675   -0.750545
     57          6           0       13.864047   -0.104180    0.140663
     58          6           0       15.257010   -0.287189   -0.384702
     59          6           0       15.695975   -1.690428   -0.790518
     60          6           0       16.383675    0.188379    0.493783
     61          6           0       17.752948    0.507574   -0.120911
     62          6           0       18.722101    1.406854    0.842603
     63          6           0       20.238609    1.332931    0.341377
     64          6           0       20.397097    2.029857   -1.052688
     65          6           0       21.172649    2.019766    1.438494
     66          1           0       -4.098158    3.459899    1.531134
     67          1           0      -10.190802    3.926579   -0.368821
     68          1           0      -10.256331   -2.310067   -1.181665
     69          1           0       -2.565872   -1.205288    2.067832
     70          1           0       -2.062142    1.481216    1.303603
     71          1           0       -2.062920    0.251747    3.770901
     72          1           0       -3.090821    1.783526    3.829443
     73          1           0       -3.918069    0.323407    3.483101
     74          1           0       -2.202977   -1.616311   -0.396071
     75          1           0       -2.176156    0.084595   -0.589819
     76          1           0       -0.256213    0.439953    1.064861
     77          1           0       -0.218970   -1.382048    1.270104
     78          1           0       -5.549152    6.758631    0.914209
     79          1           0       -5.286520    5.970868    2.414481
     80          1           0       -4.271224    5.837315    1.235820
     81          1           0       -9.283498    5.943848   -0.314687
     82          1           0       -8.757345    8.179722    0.529518
     83          1           0       -7.223957    7.462914    1.397496
     84          1           0      -11.824463    3.443239   -2.262490
     85          1           0      -13.076606    2.296293   -1.781353
     86          1           0      -12.138966    3.428770   -0.702035
     87          1           0      -12.651203   -1.380474   -1.150781
     88          1           0      -13.092653    0.189644   -1.528529
     89          1           0      -13.210615   -1.449980   -3.482839
     90          1           0      -12.037124   -0.039852   -4.002735
     91          1           0      -11.500947   -1.628165   -3.643807
     92          1           0       -8.708039   -4.433900   -2.116843
     93          1           0       -8.087318   -5.716628   -0.773076
     94          1           0       -9.802698   -4.837942   -0.496636
     95          1           0       -3.451146   -3.403187   -0.286834
     96          1           0       -1.776799   -4.696466    3.515479
     97          1           0       -3.253750   -5.915697    3.385747
     98          1           0       -1.564198   -6.245457    2.678896
     99          1           0        2.367564   -1.415008   -1.949164
    100          1           0        2.727383    0.417412   -2.072251
    101          1           0        4.355880   -0.982073    0.255532
    102          1           0        4.009031    1.194065   -2.572483
    103          1           0        5.073715    2.326549   -2.085852
    104          1           0        5.546322    1.040909   -3.113783
    105          1           0        6.889162    1.354932    0.236528
    106          1           0        6.207527   -0.323276    0.552479
    107          1           0        7.237223   -1.116946   -1.276100
    108          1           0        7.832638    0.402123   -1.713793
    109          1           0        8.848147    0.858203    0.114441
    110          1           0        8.820024   -0.508786    0.636612
    111          1           0       10.257968    0.255917   -1.918316
    112          1           0        9.106716   -1.814301   -1.990030
    113          1           0       11.028473   -2.038701   -1.970948
    114          1           0        9.706560   -2.571582   -0.812280
    115          1           0       11.309470    0.907229    0.092497
    116          1           0       11.172368   -0.724086    0.776487
    117          1           0       12.829875   -1.638681   -0.888476
    118          1           0       12.978315   -0.104946   -1.874544
    119          1           0       13.736795    1.027410    0.276253
    120          1           0       13.621605   -0.653300    1.139656
    121          1           0       15.165131    0.239818   -1.246243
    122          1           0       15.812510   -2.305486    0.086551
    123          1           0       14.858898   -2.455267   -1.231422
    124          1           0       16.651126   -1.732761   -1.231411
    125          1           0       16.166028    1.142778    0.834544
    126          1           0       16.634074   -0.384131    1.361790
    127          1           0       18.308776   -0.451005   -0.458344
    128          1           0       17.776363    1.200785   -0.954439
    129          1           0       18.301277    2.311412    0.815711
    130          1           0       18.674567    0.981237    2.015589
    131          1           0       20.490048    0.318419    0.171380
    132          1           0       20.244408    3.046076   -1.030445
    133          1           0       21.449180    1.981883   -1.429669
    134          1           0       19.766207    1.508752   -1.867696
    135          1           0       21.173423    1.446371    2.378479
    136          1           0       22.128370    2.023543    0.924038
    137          1           0       20.675204    3.058763    1.635507
 ---------------------------------------------------------------------

 SCF Done:  E(RCAM-B3LYP) =  -2933.50466806     A.U. after   16 cycles

 Excitation energies and oscillator strengths:

 Excited State   1:      Singlet-A      2.0550 eV  603.33 nm  f=0.2808  <S**2>=0.000
     240 -> 243        0.22303
     241 -> 242        0.66194
 This state for optimization and/or second-order correction.
 Total Energy, E(TD-HF/TD-DFT) =  -2933.42914807
 Copying the excited state density for this state as the 1-particle RhoCI density.

 The electronic state is 1-A.
 Alpha  occ. eigenvalues --  -46.79778 -19.21344 -19.20798 -19.17594 -19.16325
 Alpha  occ. eigenvalues --  -19.15789 -14.37197 -14.35969 -14.35135 -14.34138
 Alpha  occ. eigenvalues --  -10.34848 -10.33985 -10.31467 -10.28831 -10.26789
 Alpha  occ. eigenvalues --  -10.26164 -10.26021 -10.25909 -10.25163 -10.24899
 Alpha  occ. eigenvalues --  -10.24446 -10.24434 -10.24384 -10.24293 -10.24230
 Alpha  occ. eigenvalues --  -10.24220 -10.24028 -10.23671 -10.23610 -10.23438
 Alpha  occ. eigenvalues --  -10.23253 -10.23246 -10.23130 -10.23110 -10.22387
 Alpha  occ. eigenvalues --  -10.22373 -10.22161 -10.22141 -10.22128 -10.22084
 Alpha  occ. eigenvalues --  -10.21949 -10.21949 -10.21917 -10.21779 -10.21729
 Alpha  occ. eigenvalues --  -10.21687 -10.21651 -10.21516 -10.21506 -10.21364
 Alpha  occ. eigenvalues --  -10.21257 -10.21148 -10.21098 -10.21047 -10.20953
 Alpha  occ. eigenvalues --  -10.20861 -10.20521 -10.20508 -10.20403 -10.20002
 Alpha  occ. eigenvalues --  -10.19818 -10.19539 -10.18754 -10.18743 -10.18307
 Alpha  occ. eigenvalues --   -3.08545  -1.83470  -1.83022  -1.82966  -1.12113
 Alpha  occ. eigenvalues --   -1.11213  -1.04305  -1.03866  -1.02730  -1.01019
 Alpha  occ. eigenvalues --   -0.99527  -0.99069  -0.98300  -0.87689  -0.87199
 Alpha  occ. eigenvalues --   -0.86067  -0.85100  -0.84588  -0.84071  -0.83900
 Alpha  occ. eigenvalues --   -0.83330  -0.82813  -0.82540  -0.82451  -0.81808
 Alpha  occ. eigenvalues --   -0.80304  -0.79010  -0.78901  -0.78470  -0.77621
 Alpha  occ. eigenvalues --   -0.76627  -0.76342  -0.75929  -0.74993  -0.74240
 Alpha  occ. eigenvalues --   -0.73425  -0.72925  -0.72312  -0.71732  -0.71603
 Alpha  occ. eigenvalues --   -0.71134  -0.70558  -0.69838  -0.69129  -0.67900
 Alpha  occ. eigenvalues --   -0.67529  -0.65692  -0.65325  -0.64753  -0.64105
 Alpha  occ. eigenvalues --   -0.62546  -0.62286  -0.60977  -0.60821  -0.60737
 Alpha  occ. eigenvalues --   -0.60254  -0.59306  -0.58665  -0.58269  -0.58191
 Alpha  occ. eigenvalues --   -0.57715  -0.57089  -0.56383  -0.56191  -0.55573
 Alpha  occ. eigenvalues --   -0.54936  -0.54426  -0.53805  -0.53332  -0.53220
 Alpha  occ. eigenvalues --   -0.52574  -0.51968  -0.51402  -0.51184  -0.51099
 Alpha  occ. eigenvalues --   -0.50482  -0.49851  -0.49574  -0.49500  -0.49279
 Alpha  occ. eigenvalues --   -0.48860  -0.48693  -0.48448  -0.48347  -0.48038
 Alpha  occ. eigenvalues --   -0.47732  -0.47590  -0.47259  -0.47125  -0.46974
 Alpha  occ. eigenvalues --   -0.46721  -0.46564  -0.46508  -0.46257  -0.46117
 Alpha  occ. eigenvalues --   -0.46043  -0.45816  -0.45521  -0.45129  -0.44829
 Alpha  occ. eigenvalues --   -0.44630  -0.44378  -0.44303  -0.44087  -0.43853
 Alpha  occ. eigenvalues --   -0.43845  -0.43244  -0.43197  -0.43015  -0.42781
 Alpha  occ. eigenvalues --   -0.42614  -0.42352  -0.42293  -0.42031  -0.41899
 Alpha  occ. eigenvalues --   -0.41611  -0.41195  -0.41125  -0.41057  -0.41004
 Alpha  occ. eigenvalues --   -0.40747  -0.40522  -0.40498  -0.40126  -0.40013
 Alpha  occ. eigenvalues --   -0.39860  -0.39771  -0.39689  -0.39523  -0.39107
 Alpha  occ. eigenvalues --   -0.38880  -0.38851  -0.38621  -0.38500  -0.38114
 Alpha  occ. eigenvalues --   -0.38052  -0.37724  -0.37406  -0.37138  -0.36998
 Alpha  occ. eigenvalues --   -0.36746  -0.36700  -0.36530  -0.36414  -0.36272
 Alpha  occ. eigenvalues --   -0.35638  -0.35487  -0.35382  -0.34760  -0.34677
 Alpha  occ. eigenvalues --   -0.34237  -0.33993  -0.33759  -0.33466  -0.33390
 Alpha  occ. eigenvalues --   -0.33167  -0.33037  -0.32971  -0.32226  -0.31823
 Alpha  occ. eigenvalues --   -0.31744  -0.31560  -0.31356  -0.30814  -0.30582
 Alpha  occ. eigenvalues --   -0.30243  -0.29594  -0.29436  -0.28459  -0.28057
 Alpha  occ. eigenvalues --   -0.26962  -0.26749  -0.26296  -0.25440  -0.22215
 Alpha  occ. eigenvalues --   -0.19697
 Alpha virt. eigenvalues --   -0.06918  -0.04033   0.00015   0.02433   0.02606
 Alpha virt. eigenvalues --    0.03760   0.03995   0.04561   0.05335   0.05539
 Alpha virt. eigenvalues --    0.07115   0.09301   0.09808   0.09874   0.10088

 Mulliken charges:
               1
     1  Mg   0.828145
     2  C    0.108985
     3  C   -0.148663
     4  C   -0.179986
     5  C   -0.153038
     6  N   -0.623744
     7  C    0.334438
     8  C   -0.143104
     9  C   -0.164702
    10  C    0.308240
    11  C   -0.294186
    12  C   -0.168508
    13  C   -0.275602
    14  C    0.593810
    15  O   -0.450926
    16  O   -0.479545
    17  N   -0.746426
    18  C    0.314603
    19  C    0.059817
    20  C   -0.003790
    21  C    0.292879
    22  C   -0.420852
    23  C   -0.024677
    24  C   -0.255593
    25  N   -0.708263
    26  C    0.292377
    27  C    0.065830
    28  C   -0.072685
    29  C    0.344155
    30  C   -0.371088
    31  C   -0.241548
    32  C   -0.306421
    33  N   -0.714780
    34  C    0.320820
    35  C    0.031507
    36  C    0.023754
    37  C    0.255510
    38  C   -0.371819
    39  C    0.362718
    40  O   -0.477219
    41  C   -0.341437
    42  C    0.630737
    43  O   -0.481382
    44  O   -0.457891
    45  C   -0.073423
    46  C   -0.015890
    47  C   -0.102800
    48  C    0.114679
    49  C   -0.358120
    50  C   -0.241068
    51  C   -0.153850
    52  C   -0.191592
    53  C   -0.062868
    54  C   -0.285890
    55  C   -0.151598
    56  C   -0.181582
    57  C   -0.169698
    58  C   -0.027513
    59  C   -0.325018
    60  C   -0.166105
    61  C   -0.203029
    62  C   -0.169990
    63  C   -0.055132
    64  C   -0.326181
    65  C   -0.305672
    66  H    0.059182
    67  H    0.068099
    68  H    0.082310
    69  H    0.108717
    70  H    0.088401
    71  H    0.098754
    72  H    0.113088
    73  H    0.135991
    74  H    0.118622
    75  H    0.120544
    76  H    0.105017
    77  H    0.129313
    78  H    0.130770
    79  H    0.123200
    80  H    0.123083
    81  H    0.088250
    82  H    0.099679
    83  H    0.098845
    84  H    0.112804
    85  H    0.117972
    86  H    0.133959
    87  H    0.100845
    88  H    0.094932
    89  H    0.101041
    90  H    0.116972
    91  H    0.103474
    92  H    0.109964
    93  H    0.157083
    94  H    0.080621
    95  H    0.158963
    96  H    0.123916
    97  H    0.130075
    98  H    0.123901
    99  H    0.146559
   100  H    0.118761
   101  H    0.091200
   102  H    0.094684
   103  H    0.132641
   104  H    0.130103
   105  H    0.076838
   106  H    0.080307
   107  H    0.096264
   108  H    0.104567
   109  H    0.082025
   110  H    0.088160
   111  H    0.041997
   112  H    0.116905
   113  H    0.091764
   114  H    0.100663
   115  H    0.099267
   116  H    0.099288
   117  H    0.099498
   118  H    0.062674
   119  H    0.078161
   120  H    0.071460
   121  H    0.092723
   122  H    0.102538
   123  H    0.066499
   124  H    0.115258
   125  H    0.087382
   126  H    0.100907
   127  H    0.073726
   128  H    0.098564
   129  H    0.107128
   130  H    0.048810
   131  H    0.097678
   132  H    0.113551
   133  H    0.091792
   134  H    0.097947
   135  H    0.107802
   136  H    0.104726
   137  H    0.092686
 Sum of Mulliken charges =  -0.00000

 Dipole moment (field-independent basis, Debye):
    X=              2.3305    Y=              5.3579    Z=              0.3245  Tot=              5.8518
 Quadrupole moment (field-independent basis, Debye-Ang):
   XX=           -344.7564   YY=           -388.5350   ZZ=           -400.5339
   XY=            -23.7805   XZ=             11.7568   YZ=             -1.3685

 Normal termination of Gaussian 16 at Fri Sep  6 06:31:01 2019.
