 Gaussian 09, Revision D.01,
 Gaussian 09:  ES64L-G09RevD.01 24-Apr-2013

 -------------------------------------
 # td=(NStates=1) CAM-B3LYP/6-31G(d,p)
 -------------------------------------

 --
 TD
 --
 Symbolic Z-matrix:
 Charge =  0 Multiplicity = 1

                         Standard orientation:
 ---------------------------------------------------------------------
 Center     Atomic      Atomic             Coordinates (Angstroms)
 Number     Number       Type             X           Y           Z
 ---------------------------------------------------------------------
      1         12           0       -7.101536    0.586702    0.098904
      2          6           0       -4.910518   -1.894785    0.569535
      3          6           0       -4.736388    2.859180    1.123534
      4          6           0       -9.404911    3.125028   -0.329311
      5          6           0       -9.577558   -1.782934   -0.904039
      6          7           0       -5.136401    0.469206    0.808538
      7          6           0       -4.355166   -0.683489    0.831582
      8          6           0       -2.924741   -0.444229    1.163107
      9          6           0       -3.070001    1.093108    1.739083
     10          6           0       -4.341905    1.542581    1.141648
     11          6           0       -2.840855    1.328547    3.196930
     12          6           0       -1.794227   -0.647761    0.105750
     13          6           0       -0.399583   -0.395920    0.438963
     14          6           0        0.507455   -0.648749   -0.662552
     15          8           0        0.241459   -0.928496   -1.769213
     16          8           0        1.848569   -0.575492   -0.126292
     17          7           0       -7.071051    2.668479    0.260420
     18          6           0       -5.942968    3.443073    0.683559
     19          6           0       -6.314334    4.713916    0.717265
     20          6           0       -7.574566    4.925017    0.364827
     21          6           0       -8.117197    3.467521   -0.007511
     22          6           0       -5.440941    5.884050    1.056367
     23          6           0       -8.475386    6.005327    0.149693
     24          6           0       -8.395831    7.259867    0.765120
     25          7           0       -9.123927    0.606200   -0.502224
     26          6           0       -9.827106    1.808694   -0.573360
     27          6           0      -11.130628    1.512087   -1.059563
     28          6           0      -11.181383    0.139557   -1.323173
     29          6           0       -9.965007   -0.403892   -0.974467
     30          6           0      -12.261796    2.535206   -1.286800
     31          6           0      -12.446316   -0.539381   -1.829990
     32          6           0      -12.259061   -1.044006   -3.209166
     33          7           0       -7.294565   -1.385808   -0.135563
     34          6           0       -8.271570   -2.266356   -0.557833
     35          6           0       -7.931939   -3.600033   -0.533493
     36          6           0       -6.563785   -3.559074   -0.021964
     37          6           0       -6.191889   -2.220161    0.142706
     38          6           0       -8.795616   -4.871044   -0.889060
     39          6           0       -5.380238   -4.363714    0.275360
     40          8           0       -5.192535   -5.559033    0.212995
     41          6           0       -4.228024   -3.290885    0.571777
     42          6           0       -3.635870   -3.666145    1.869725
     43          8           0       -3.681825   -3.075242    3.003142
     44          8           0       -2.867735   -4.720555    1.690120
     45          6           0       -2.248865   -5.322971    2.885257
     46          6           0        2.857603   -0.612949   -1.143737
     47          6           0        4.145257   -0.408066   -0.449747
     48          6           0        5.135084    0.248222   -1.051235
     49          6           0        5.209018    0.971870   -2.318851
     50          6           0        6.418865    0.338455   -0.190980
     51          6           0        7.562442   -0.222014   -0.895241
     52          6           0        8.872648   -0.206256    0.015080
     53          6           0       10.122170   -0.683975   -0.823608
     54          6           0       10.045422   -2.130696   -1.303649
     55          6           0       11.365571   -0.406906   -0.018305
     56          6           0       12.623947   -0.604532   -0.677477
     57          6           0       13.894182   -0.235059    0.218491
     58          6           0       15.348993   -0.455286   -0.438292
     59          6           0       15.717768   -1.831918   -0.685164
     60          6           0       16.432814    0.427540    0.371240
     61          6           0       17.762397    0.733792   -0.198902
     62          6           0       18.778759    1.448891    0.736872
     63          6           0       20.153484    1.557364    0.191532
     64          6           0       20.404709    2.236392   -1.168755
     65          6           0       21.103609    2.160731    1.250569
     66          1           0       -3.916291    3.505454    1.575320
     67          1           0      -10.174799    3.915426   -0.285710
     68          1           0      -10.401353   -2.561673   -1.049999
     69          1           0       -2.578709   -1.060792    1.966933
     70          1           0       -2.279880    1.712490    1.205493
     71          1           0       -2.027849    0.758576    3.572795
     72          1           0       -2.716749    2.271697    3.378514
     73          1           0       -3.725959    0.686043    3.709410
     74          1           0       -1.891068   -1.614733   -0.437188
     75          1           0       -2.018057    0.140383   -0.685769
     76          1           0       -0.382963    0.406098    0.952235
     77          1           0       -0.364502   -1.279668    0.989964
     78          1           0       -5.690075    6.863404    0.522330
     79          1           0       -5.550943    6.084950    1.949224
     80          1           0       -4.383938    5.779981    0.990671
     81          1           0       -9.389174    5.776138   -0.430885
     82          1           0       -9.115219    7.905572    0.603427
     83          1           0       -7.385693    7.639158    1.400191
     84          1           0      -12.010182    3.259156   -1.946457
     85          1           0      -13.147821    2.165772   -1.771848
     86          1           0      -12.342415    3.319989   -0.395281
     87          1           0      -12.884110   -1.320481   -1.070302
     88          1           0      -13.265066    0.292690   -1.709309
     89          1           0      -13.068277   -1.660736   -3.644238
     90          1           0      -12.237400   -0.084058   -3.935187
     91          1           0      -11.259848   -1.544957   -3.271224
     92          1           0       -8.903423   -4.942174   -2.028697
     93          1           0       -8.325145   -5.722790   -0.460544
     94          1           0       -9.825045   -4.768112   -0.480127
     95          1           0       -3.418457   -3.461015   -0.250766
     96          1           0       -1.680105   -4.616275    3.361881
     97          1           0       -2.854486   -5.951900    3.505482
     98          1           0       -1.516973   -6.017276    2.469214
     99          1           0        2.682956   -1.532914   -1.578371
    100          1           0        2.835094    0.106975   -1.952529
    101          1           0        4.435502   -0.987620    0.343173
    102          1           0        4.286241    0.909965   -2.806570
    103          1           0        5.516103    1.945892   -1.949537
    104          1           0        6.016981    0.476829   -2.911047
    105          1           0        6.614221    1.407121    0.010734
    106          1           0        6.331424   -0.163294    0.847803
    107          1           0        7.465380   -1.300883   -1.260807
    108          1           0        8.004244    0.446406   -1.850426
    109          1           0        8.951360    0.856514    0.402118
    110          1           0        8.940740   -0.823839    0.793253
    111          1           0       10.139432   -0.081696   -1.796428
    112          1           0        9.183800   -2.477488   -1.664997
    113          1           0       11.019652   -2.164630   -2.040616
    114          1           0       10.054170   -2.835626   -0.482754
    115          1           0       11.397634    0.615049    0.417282
    116          1           0       11.158711   -0.968144    0.972547
    117          1           0       12.664377   -1.692744   -1.044289
    118          1           0       12.586929   -0.007624   -1.673712
    119          1           0       13.812050    0.841618    0.377115
    120          1           0       13.887156   -0.931646    1.159285
    121          1           0       15.120181    0.058229   -1.503859
    122          1           0       15.927822   -2.651377    0.217094
    123          1           0       15.170843   -2.542295   -1.321813
    124          1           0       16.638667   -1.784933   -1.373285
    125          1           0       16.095785    1.363069    0.825233
    126          1           0       16.557060   -0.149249    1.335369
    127          1           0       18.419499   -0.173868   -0.759561
    128          1           0       17.618668    1.420710   -1.122129
    129          1           0       18.252042    2.343560    1.104233
    130          1           0       18.889441    0.959647    1.777770
    131          1           0       20.576149    0.621684   -0.087980
    132          1           0       20.248837    3.326506   -1.000803
    133          1           0       21.320565    2.023596   -1.684582
    134          1           0       19.566078    2.002888   -2.067600
    135          1           0       21.079931    1.694296    2.218214
    136          1           0       22.191808    2.272204    0.949410
    137          1           0       20.734848    3.087378    1.296383
 ---------------------------------------------------------------------

 SCF Done:  E(RCAM-B3LYP) =  -2932.65599341     A.U. after   18 cycles

 Excitation energies and oscillator strengths:

 Excited State   1:      Singlet-A      2.0155 eV  615.15 nm  f=0.2347  <S**2>=0.000
     240 -> 242       -0.17342
     240 -> 243        0.23965
     241 -> 242        0.62620
     241 -> 243        0.10449
 This state for optimization and/or second-order correction.
 Total Energy, E(TD-HF/TD-KS) =  -2932.58192423
 Copying the excited state density for this state as the 1-particle RhoCI density.

 The electronic state is 1-A.
 Alpha  occ. eigenvalues --  -46.83971 -19.26220 -19.24270 -19.22773 -19.19992
 Alpha  occ. eigenvalues --  -19.19238 -14.41880 -14.39650 -14.38799 -14.38649
 Alpha  occ. eigenvalues --  -10.39387 -10.38590 -10.34839 -10.31070 -10.30644
 Alpha  occ. eigenvalues --  -10.30494 -10.30354 -10.29975 -10.29399 -10.29367
 Alpha  occ. eigenvalues --  -10.28947 -10.28760 -10.28649 -10.28573 -10.28525
 Alpha  occ. eigenvalues --  -10.28497 -10.28456 -10.28098 -10.27948 -10.27881
 Alpha  occ. eigenvalues --  -10.27816 -10.27535 -10.27338 -10.27269 -10.27115
 Alpha  occ. eigenvalues --  -10.27056 -10.26817 -10.26813 -10.26761 -10.26557
 Alpha  occ. eigenvalues --  -10.26374 -10.26313 -10.26101 -10.26098 -10.26080
 Alpha  occ. eigenvalues --  -10.26028 -10.26023 -10.26015 -10.25923 -10.25883
 Alpha  occ. eigenvalues --  -10.25854 -10.25852 -10.25634 -10.25565 -10.25538
 Alpha  occ. eigenvalues --  -10.25493 -10.25490 -10.25277 -10.25180 -10.24699
 Alpha  occ. eigenvalues --  -10.24620 -10.24587 -10.24350 -10.23694 -10.23456
 Alpha  occ. eigenvalues --   -3.12933  -1.87648  -1.87201  -1.87077  -1.17916
 Alpha  occ. eigenvalues --   -1.17433  -1.10775  -1.09767  -1.05051  -1.04019
 Alpha  occ. eigenvalues --   -1.03154  -1.02552  -1.01499  -0.92579  -0.92271
 Alpha  occ. eigenvalues --   -0.91705  -0.90494  -0.90362  -0.89943  -0.89049
 Alpha  occ. eigenvalues --   -0.88172  -0.87888  -0.87668  -0.86739  -0.86006
 Alpha  occ. eigenvalues --   -0.85379  -0.84847  -0.83843  -0.83214  -0.82590
 Alpha  occ. eigenvalues --   -0.81916  -0.81503  -0.81084  -0.80553  -0.79010
 Alpha  occ. eigenvalues --   -0.78549  -0.77653  -0.76672  -0.76581  -0.76122
 Alpha  occ. eigenvalues --   -0.75593  -0.75375  -0.74966  -0.73986  -0.73280
 Alpha  occ. eigenvalues --   -0.72354  -0.70828  -0.69465  -0.68464  -0.68182
 Alpha  occ. eigenvalues --   -0.67101  -0.65914  -0.65581  -0.65194  -0.64115
 Alpha  occ. eigenvalues --   -0.63818  -0.63467  -0.63138  -0.62948  -0.61601
 Alpha  occ. eigenvalues --   -0.61578  -0.61294  -0.60281  -0.59771  -0.59002
 Alpha  occ. eigenvalues --   -0.58749  -0.58224  -0.58036  -0.57201  -0.56839
 Alpha  occ. eigenvalues --   -0.56599  -0.56237  -0.55645  -0.54968  -0.54861
 Alpha  occ. eigenvalues --   -0.54577  -0.54250  -0.53893  -0.53595  -0.53430
 Alpha  occ. eigenvalues --   -0.53241  -0.52873  -0.52468  -0.52325  -0.52086
 Alpha  occ. eigenvalues --   -0.51641  -0.51462  -0.51199  -0.50932  -0.50821
 Alpha  occ. eigenvalues --   -0.50318  -0.50121  -0.49965  -0.49767  -0.49659
 Alpha  occ. eigenvalues --   -0.49396  -0.49365  -0.49188  -0.48546  -0.48444
 Alpha  occ. eigenvalues --   -0.48335  -0.47723  -0.47579  -0.47211  -0.47186
 Alpha  occ. eigenvalues --   -0.47158  -0.46952  -0.46434  -0.46257  -0.46223
 Alpha  occ. eigenvalues --   -0.45975  -0.45860  -0.45732  -0.45259  -0.45151
 Alpha  occ. eigenvalues --   -0.44948  -0.44941  -0.44892  -0.44728  -0.44485
 Alpha  occ. eigenvalues --   -0.44204  -0.44131  -0.43740  -0.43516  -0.43372
 Alpha  occ. eigenvalues --   -0.43171  -0.43090  -0.42758  -0.42672  -0.42373
 Alpha  occ. eigenvalues --   -0.42283  -0.42121  -0.41831  -0.41750  -0.41616
 Alpha  occ. eigenvalues --   -0.41397  -0.41318  -0.40746  -0.40476  -0.40110
 Alpha  occ. eigenvalues --   -0.40011  -0.39954  -0.39663  -0.39061  -0.38765
 Alpha  occ. eigenvalues --   -0.38390  -0.38014  -0.37734  -0.37563  -0.37503
 Alpha  occ. eigenvalues --   -0.37405  -0.37233  -0.36875  -0.36690  -0.36373
 Alpha  occ. eigenvalues --   -0.36344  -0.35703  -0.35483  -0.35209  -0.35009
 Alpha  occ. eigenvalues --   -0.34814  -0.34744  -0.34496  -0.34033  -0.33237
 Alpha  occ. eigenvalues --   -0.33134  -0.32962  -0.32123  -0.31198  -0.29642
 Alpha  occ. eigenvalues --   -0.29337  -0.28678  -0.27704  -0.27316  -0.23259
 Alpha  occ. eigenvalues --   -0.21814
 Alpha virt. eigenvalues --   -0.07263  -0.03961   0.01288   0.03502   0.05600
 Alpha virt. eigenvalues --    0.06085   0.06559   0.06992   0.07564   0.07629
 Alpha virt. eigenvalues --    0.08523   0.10850   0.11577   0.11682   0.11852

 Mulliken charges:
               1
     1  Mg   0.808487
     2  C    0.078764
     3  C   -0.220684
     4  C   -0.166556
     5  C   -0.169679
     6  N   -0.662995
     7  C    0.333635
     8  C   -0.154110
     9  C   -0.189391
    10  C    0.385231
    11  C   -0.284185
    12  C   -0.210383
    13  C   -0.223596
    14  C    0.613028
    15  O   -0.426016
    16  O   -0.532211
    17  N   -0.727938
    18  C    0.326655
    19  C    0.028107
    20  C    0.038502
    21  C    0.306301
    22  C   -0.369500
    23  C   -0.110508
    24  C   -0.224730
    25  N   -0.702672
    26  C    0.316286
    27  C    0.021235
    28  C    0.011553
    29  C    0.284629
    30  C   -0.380258
    31  C   -0.225090
    32  C   -0.294805
    33  N   -0.724663
    34  C    0.278045
    35  C    0.024777
    36  C   -0.016389
    37  C    0.261626
    38  C   -0.356765
    39  C    0.355299
    40  O   -0.456938
    41  C   -0.350705
    42  C    0.625223
    43  O   -0.531069
    44  O   -0.436469
    45  C   -0.082738
    46  C    0.035549
    47  C   -0.119280
    48  C    0.097058
    49  C   -0.344005
    50  C   -0.224166
    51  C   -0.163865
    52  C   -0.177427
    53  C   -0.076704
    54  C   -0.296091
    55  C   -0.135151
    56  C   -0.188373
    57  C   -0.173239
    58  C   -0.050652
    59  C   -0.302507
    60  C   -0.175886
    61  C   -0.160688
    62  C   -0.163606
    63  C   -0.059470
    64  C   -0.310684
    65  C   -0.317305
    66  H    0.081710
    67  H    0.094905
    68  H    0.108681
    69  H    0.129460
    70  H    0.090176
    71  H    0.123771
    72  H    0.117229
    73  H    0.112522
    74  H    0.113030
    75  H    0.092580
    76  H    0.133877
    77  H    0.154729
    78  H    0.112021
    79  H    0.142252
    80  H    0.108599
    81  H    0.101518
    82  H    0.106682
    83  H    0.093334
    84  H    0.133788
    85  H    0.119669
    86  H    0.100269
    87  H    0.093182
    88  H    0.089084
    89  H    0.105071
    90  H    0.088248
    91  H    0.112664
    92  H    0.126086
    93  H    0.152965
    94  H    0.119535
    95  H    0.167240
    96  H    0.139792
    97  H    0.141098
    98  H    0.119979
    99  H    0.119545
   100  H    0.096671
   101  H    0.083715
   102  H    0.113559
   103  H    0.123780
   104  H    0.132018
   105  H    0.098476
   106  H    0.096121
   107  H    0.091617
   108  H    0.070065
   109  H    0.081701
   110  H    0.099340
   111  H    0.067588
   112  H    0.108957
   113  H    0.090870
   114  H    0.094199
   115  H    0.083551
   116  H    0.071269
   117  H    0.087798
   118  H    0.078927
   119  H    0.096244
   120  H    0.083306
   121  H    0.067266
   122  H    0.075151
   123  H    0.114796
   124  H    0.098681
   125  H    0.095123
   126  H    0.087469
   127  H    0.061267
   128  H    0.086936
   129  H    0.089132
   130  H    0.083427
   131  H    0.101083
   132  H    0.093423
   133  H    0.114385
   134  H    0.067936
   135  H    0.103217
   136  H    0.090445
   137  H    0.115352
 Sum of Mulliken charges =   0.00000

 Dipole moment (field-independent basis, Debye):
    X=              1.3998    Y=              4.9076    Z=              0.1763  Tot=              5.1063
 Quadrupole moment (field-independent basis, Debye-Ang):
   XX=           -349.4441   YY=           -381.9029   ZZ=           -399.8651
   XY=            -26.0248   XZ=             14.1138   YZ=              1.5774

 Normal termination of Gaussian 09 at Wed Jul  3 04:39:24 2019.
