 Gaussian 16, Revision A.03,
 Gaussian 16:  ES64L-G16RevA.03 25-Dec-2016

 ----------------------------------------------------------------------
 # td=(NStates=1) iop(3/107=0140000000,3/108=0140000000) CAM-B3LYP/6-31
 G(d,p)
 ----------------------------------------------------------------------

 --
 TD
 --
 Symbolic Z-matrix:
 Charge =  0 Multiplicity = 1

                         Standard orientation:
 ---------------------------------------------------------------------
 Center     Atomic      Atomic             Coordinates (Angstroms)
 Number     Number       Type             X           Y           Z
 ---------------------------------------------------------------------
      1         12           0       -7.078036    0.576298   -0.055711
      2          6           0       -4.812730   -1.928114    0.522621
      3          6           0       -4.742312    2.780587    1.184059
      4          6           0       -9.379856    3.096357   -0.529208
      5          6           0       -9.558651   -1.691640   -0.827214
      6          7           0       -5.064344    0.491931    0.563615
      7          6           0       -4.414825   -0.623501    0.705478
      8          6           0       -2.895377   -0.401384    1.140648
      9          6           0       -3.010352    0.995640    1.645428
     10          6           0       -4.416341    1.500758    1.090961
     11          6           0       -2.904294    1.168664    3.193764
     12          6           0       -1.930665   -0.646096    0.110210
     13          6           0       -0.434428   -0.576889    0.521451
     14          6           0        0.582928   -0.782342   -0.584129
     15          8           0        0.283982   -1.222001   -1.732294
     16          8           0        1.840953   -0.617613   -0.189883
     17          7           0       -7.031007    2.633565    0.316769
     18          6           0       -6.039865    3.349149    0.754486
     19          6           0       -6.419522    4.765960    0.913355
     20          6           0       -7.674845    4.854765    0.334777
     21          6           0       -8.120701    3.499507    0.036876
     22          6           0       -5.483353    5.920259    1.248314
     23          6           0       -8.548891    6.012741    0.149213
     24          6           0       -8.451664    7.174460    0.675943
     25          7           0       -9.073851    0.746769   -0.572052
     26          6           0       -9.808533    1.825983   -0.625469
     27          6           0      -11.199836    1.520166   -1.028500
     28          6           0      -11.213991    0.244599   -1.168479
     29          6           0       -9.826278   -0.415879   -0.849550
     30          6           0      -12.348748    2.491467   -1.178759
     31          6           0      -12.433404   -0.761871   -1.630677
     32          6           0      -12.350289   -0.986294   -3.184794
     33          7           0       -7.206775   -1.328469   -0.102633
     34          6           0       -8.178109   -2.204335   -0.522478
     35          6           0       -7.719977   -3.528817   -0.489585
     36          6           0       -6.589572   -3.636763   -0.077707
     37          6           0       -6.167175   -2.207893    0.158649
     38          6           0       -8.672021   -4.723277   -0.803633
     39          6           0       -5.399700   -4.433146    0.237530
     40          8           0       -5.251227   -5.649418    0.301482
     41          6           0       -4.188790   -3.316839    0.466841
     42          6           0       -3.495035   -3.651132    1.772477
     43          8           0       -3.665611   -3.112513    2.856796
     44          8           0       -2.686664   -4.748254    1.526317
     45          6           0       -2.081986   -5.337376    2.768043
     46          6           0        2.832068   -0.819730   -1.271317
     47          6           0        4.141308   -0.479405   -0.561574
     48          6           0        5.096550    0.401800   -0.967003
     49          6           0        4.979319    1.261561   -2.244405
     50          6           0        6.404957    0.473742   -0.199568
     51          6           0        7.581971   -0.033433   -0.985605
     52          6           0        8.852214   -0.129443   -0.123293
     53          6           0       10.102754   -0.458222   -0.843903
     54          6           0       10.152403   -1.905816   -1.360856
     55          6           0       11.305355   -0.211211    0.073645
     56          6           0       12.686611   -0.460442   -0.597519
     57          6           0       13.892294    0.055310    0.186707
     58          6           0       15.282992   -0.135958   -0.470085
     59          6           0       15.654564   -1.574767   -0.674085
     60          6           0       16.316078    0.531994    0.475487
     61          6           0       17.729649    0.486686   -0.151575
     62          6           0       18.737251    1.320984    0.658451
     63          6           0       20.145297    1.328529    0.179189
     64          6           0       20.404917    2.200593   -1.066368
     65          6           0       21.075594    1.802045    1.211102
     66          1           0       -4.122964    3.546796    1.651199
     67          1           0       -9.973809    3.962439   -0.519054
     68          1           0      -10.324990   -2.171542   -1.238454
     69          1           0       -2.857014   -1.167171    2.106776
     70          1           0       -2.184236    1.717010    1.370549
     71          1           0       -1.953722    0.798808    3.614028
     72          1           0       -2.994500    2.336430    3.538429
     73          1           0       -3.627924    0.489246    3.693592
     74          1           0       -1.950190   -1.633440   -0.424903
     75          1           0       -2.252965   -0.007582   -0.795278
     76          1           0       -0.191617    0.479883    1.069844
     77          1           0       -0.488005   -1.327608    1.423129
     78          1           0       -5.579316    6.931213    0.558009
     79          1           0       -5.941992    6.023794    2.255145
     80          1           0       -4.378712    5.727617    1.280026
     81          1           0       -9.319080    5.738317   -0.559585
     82          1           0       -9.349263    7.929074    0.397357
     83          1           0       -7.763077    7.447358    1.434238
     84          1           0      -11.831775    3.386656   -1.828235
     85          1           0      -13.216135    2.181683   -2.040749
     86          1           0      -12.505627    2.678351   -0.195270
     87          1           0      -12.225132   -1.700256   -0.891059
     88          1           0      -13.534646   -0.491835   -1.268943
     89          1           0      -13.115413   -1.697335   -3.522836
     90          1           0      -12.279177   -0.046639   -3.732581
     91          1           0      -11.312187   -1.841153   -3.339034
     92          1           0       -9.068443   -4.840027   -1.646563
     93          1           0       -7.940883   -5.600978   -0.741537
     94          1           0       -9.486991   -4.867291   -0.062572
     95          1           0       -3.512089   -3.416668   -0.445326
     96          1           0       -1.603834   -4.537983    3.226513
     97          1           0       -2.927296   -5.675180    3.563458
     98          1           0       -1.368221   -6.146893    2.510843
     99          1           0        2.988605   -1.876966   -1.382548
    100          1           0        2.891097   -0.193916   -2.067004
    101          1           0        4.268756   -1.197796    0.244085
    102          1           0        3.920256    1.513184   -2.689400
    103          1           0        5.719206    2.165610   -1.943292
    104          1           0        5.753369    0.901161   -3.163065
    105          1           0        6.484198    1.359716    0.466028
    106          1           0        6.593410   -0.368439    0.659684
    107          1           0        7.284049   -0.995189   -1.420003
    108          1           0        7.924491    0.534468   -1.794775
    109          1           0        8.802994    0.767760    0.553008
    110          1           0        8.650329   -0.792787    0.807758
    111          1           0       10.265483    0.277156   -1.636112
    112          1           0        9.292913   -2.230443   -1.941294
    113          1           0       11.072961   -2.245976   -2.164485
    114          1           0       10.234932   -2.381002   -0.335315
    115          1           0       11.333012    0.683636    0.598577
    116          1           0       11.627036   -1.120666    0.809825
    117          1           0       13.124969   -1.542993   -0.582352
    118          1           0       12.730820   -0.296660   -1.760649
    119          1           0       13.833472    1.161937    0.318849
    120          1           0       13.931127   -0.403517    1.192790
    121          1           0       15.439317    0.255594   -1.625398
    122          1           0       15.564451   -2.249206    0.441358
    123          1           0       14.908558   -2.060773   -1.544569
    124          1           0       16.515381   -1.661471   -1.194498
    125          1           0       15.889304    1.404090    0.556333
    126          1           0       16.367716   -0.052726    1.409372
    127          1           0       18.073269   -0.480786   -0.476907
    128          1           0       17.698484    0.972146   -1.087826
    129          1           0       18.457328    2.268903    0.897035
    130          1           0       18.735524    0.634868    1.603207
    131          1           0       20.475989    0.275089    0.023252
    132          1           0       20.043433    3.315575   -0.977489
    133          1           0       21.543377    2.183292   -1.278793
    134          1           0       19.817236    1.941406   -1.964439
    135          1           0       20.890615    1.064994    2.045157
    136          1           0       22.148381    1.747563    0.952611
    137          1           0       21.012434    2.580554    1.749197
 ---------------------------------------------------------------------

 SCF Done:  E(RCAM-B3LYP) =  -2933.31199759     A.U. after   16 cycles

 Excitation energies and oscillator strengths:

 Excited State   1:      Singlet-A      1.9277 eV  643.16 nm  f=0.4153  <S**2>=0.000
     240 -> 243        0.17026
     241 -> 242        0.69001
 This state for optimization and/or second-order correction.
 Total Energy, E(TD-HF/TD-DFT) =  -2933.24115461
 Copying the excited state density for this state as the 1-particle RhoCI density.

 The electronic state is 1-A.
 Alpha  occ. eigenvalues --  -46.79696 -19.23031 -19.21807 -19.17416 -19.17329
 Alpha  occ. eigenvalues --  -19.15972 -14.37605 -14.36063 -14.35286 -14.35123
 Alpha  occ. eigenvalues --  -10.34938 -10.34709 -10.32013 -10.27394 -10.26868
 Alpha  occ. eigenvalues --  -10.25970 -10.25599 -10.25358 -10.25282 -10.25254
 Alpha  occ. eigenvalues --  -10.25221 -10.25135 -10.25088 -10.24944 -10.24825
 Alpha  occ. eigenvalues --  -10.24661 -10.24560 -10.24044 -10.23973 -10.23852
 Alpha  occ. eigenvalues --  -10.23718 -10.23023 -10.22829 -10.22690 -10.22665
 Alpha  occ. eigenvalues --  -10.22628 -10.22474 -10.22365 -10.22335 -10.22329
 Alpha  occ. eigenvalues --  -10.22160 -10.22145 -10.21935 -10.21865 -10.21822
 Alpha  occ. eigenvalues --  -10.21794 -10.21696 -10.21678 -10.21649 -10.21618
 Alpha  occ. eigenvalues --  -10.21539 -10.21530 -10.21462 -10.21387 -10.21200
 Alpha  occ. eigenvalues --  -10.21185 -10.21176 -10.20972 -10.20885 -10.20583
 Alpha  occ. eigenvalues --  -10.19998 -10.19933 -10.19902 -10.19597 -10.18039
 Alpha  occ. eigenvalues --   -3.08533  -1.83453  -1.82995  -1.82972  -1.12880
 Alpha  occ. eigenvalues --   -1.11028  -1.06220  -1.03533  -1.01733  -1.01614
 Alpha  occ. eigenvalues --   -0.99506  -0.98800  -0.97893  -0.86947  -0.86612
 Alpha  occ. eigenvalues --   -0.85898  -0.85265  -0.84912  -0.84816  -0.84556
 Alpha  occ. eigenvalues --   -0.84090  -0.83790  -0.82854  -0.82117  -0.81400
 Alpha  occ. eigenvalues --   -0.80108  -0.79398  -0.78743  -0.78408  -0.77058
 Alpha  occ. eigenvalues --   -0.76730  -0.76141  -0.75604  -0.75243  -0.73438
 Alpha  occ. eigenvalues --   -0.72762  -0.71879  -0.71430  -0.71270  -0.70660
 Alpha  occ. eigenvalues --   -0.70406  -0.70329  -0.69960  -0.68741  -0.68152
 Alpha  occ. eigenvalues --   -0.66282  -0.65866  -0.64904  -0.64625  -0.63586
 Alpha  occ. eigenvalues --   -0.62996  -0.62743  -0.61822  -0.60889  -0.60840
 Alpha  occ. eigenvalues --   -0.59989  -0.59434  -0.58931  -0.58858  -0.57620
 Alpha  occ. eigenvalues --   -0.56703  -0.56549  -0.56212  -0.55628  -0.55165
 Alpha  occ. eigenvalues --   -0.54910  -0.54088  -0.53381  -0.53155  -0.53007
 Alpha  occ. eigenvalues --   -0.52239  -0.51673  -0.51400  -0.50980  -0.50924
 Alpha  occ. eigenvalues --   -0.50467  -0.50365  -0.49741  -0.49499  -0.49365
 Alpha  occ. eigenvalues --   -0.49215  -0.48789  -0.48689  -0.48448  -0.48135
 Alpha  occ. eigenvalues --   -0.47936  -0.47640  -0.47361  -0.47303  -0.47167
 Alpha  occ. eigenvalues --   -0.46822  -0.46659  -0.46279  -0.46046  -0.45802
 Alpha  occ. eigenvalues --   -0.45540  -0.45417  -0.45340  -0.45047  -0.44919
 Alpha  occ. eigenvalues --   -0.44854  -0.44197  -0.44028  -0.43770  -0.43573
 Alpha  occ. eigenvalues --   -0.43500  -0.43318  -0.43233  -0.42691  -0.42577
 Alpha  occ. eigenvalues --   -0.42358  -0.42054  -0.41681  -0.41631  -0.41520
 Alpha  occ. eigenvalues --   -0.41338  -0.41028  -0.40826  -0.40641  -0.40530
 Alpha  occ. eigenvalues --   -0.40422  -0.40284  -0.39983  -0.39695  -0.39455
 Alpha  occ. eigenvalues --   -0.39398  -0.39008  -0.38845  -0.38726  -0.38639
 Alpha  occ. eigenvalues --   -0.38566  -0.38382  -0.38056  -0.37896  -0.37781
 Alpha  occ. eigenvalues --   -0.37547  -0.37253  -0.36967  -0.36750  -0.36621
 Alpha  occ. eigenvalues --   -0.36117  -0.35917  -0.35854  -0.35765  -0.35093
 Alpha  occ. eigenvalues --   -0.34996  -0.34670  -0.34623  -0.34246  -0.34159
 Alpha  occ. eigenvalues --   -0.34084  -0.33686  -0.33665  -0.33640  -0.33338
 Alpha  occ. eigenvalues --   -0.33228  -0.33159  -0.32878  -0.32742  -0.32342
 Alpha  occ. eigenvalues --   -0.32087  -0.31626  -0.31358  -0.30825  -0.30483
 Alpha  occ. eigenvalues --   -0.29966  -0.29667  -0.29357  -0.29073  -0.28724
 Alpha  occ. eigenvalues --   -0.27588  -0.27168  -0.26846  -0.25017  -0.22379
 Alpha  occ. eigenvalues --   -0.19254
 Alpha virt. eigenvalues --   -0.07520  -0.02019  -0.00248   0.02530   0.02890
 Alpha virt. eigenvalues --    0.03454   0.03705   0.04105   0.05989   0.06105
 Alpha virt. eigenvalues --    0.06731   0.07844   0.08894   0.09577   0.09635

 Mulliken charges:
               1
     1  Mg   0.832651
     2  C    0.133360
     3  C   -0.192227
     4  C   -0.147473
     5  C   -0.124681
     6  N   -0.631672
     7  C    0.276252
     8  C   -0.154988
     9  C   -0.142403
    10  C    0.385219
    11  C   -0.308828
    12  C   -0.157901
    13  C   -0.259858
    14  C    0.618050
    15  O   -0.498657
    16  O   -0.450449
    17  N   -0.677163
    18  C    0.308371
    19  C   -0.040705
    20  C    0.023266
    21  C    0.235130
    22  C   -0.356813
    23  C   -0.024970
    24  C   -0.261769
    25  N   -0.709849
    26  C    0.336831
    27  C    0.027293
    28  C   -0.006245
    29  C    0.312147
    30  C   -0.348643
    31  C   -0.235620
    32  C   -0.279262
    33  N   -0.725311
    34  C    0.248600
    35  C   -0.105468
    36  C    0.215662
    37  C    0.162498
    38  C   -0.368435
    39  C    0.368349
    40  O   -0.445673
    41  C   -0.345067
    42  C    0.641809
    43  O   -0.474792
    44  O   -0.466195
    45  C   -0.090215
    46  C    0.036698
    47  C   -0.153973
    48  C    0.134471
    49  C   -0.365922
    50  C   -0.243469
    51  C   -0.160471
    52  C   -0.184639
    53  C   -0.058333
    54  C   -0.289987
    55  C   -0.164741
    56  C   -0.195034
    57  C   -0.178119
    58  C   -0.061109
    59  C   -0.268442
    60  C   -0.136162
    61  C   -0.204963
    62  C   -0.152297
    63  C   -0.045825
    64  C   -0.303426
    65  C   -0.298132
    66  H    0.075532
    67  H    0.077013
    68  H    0.069340
    69  H    0.112537
    70  H    0.094667
    71  H    0.108378
    72  H    0.082262
    73  H    0.120555
    74  H    0.118781
    75  H    0.102816
    76  H    0.105590
    77  H    0.133302
    78  H    0.111169
    79  H    0.137134
    80  H    0.116952
    81  H    0.082668
    82  H    0.081607
    83  H    0.101659
    84  H    0.098785
    85  H    0.104273
    86  H    0.149605
    87  H    0.088916
    88  H    0.089343
    89  H    0.118784
    90  H    0.127799
    91  H    0.054897
    92  H    0.128507
    93  H    0.119069
    94  H    0.119363
    95  H    0.165267
    96  H    0.140145
    97  H    0.120919
    98  H    0.131575
    99  H    0.136699
   100  H    0.119907
   101  H    0.092872
   102  H    0.125848
   103  H    0.104843
   104  H    0.102564
   105  H    0.108854
   106  H    0.083115
   107  H    0.105716
   108  H    0.094156
   109  H    0.092404
   110  H    0.074097
   111  H    0.092663
   112  H    0.106998
   113  H    0.079967
   114  H    0.106660
   115  H    0.102015
   116  H    0.080816
   117  H    0.091741
   118  H    0.067252
   119  H    0.077768
   120  H    0.093011
   121  H    0.060719
   122  H    0.056020
   123  H    0.063338
   124  H    0.116491
   125  H    0.096996
   126  H    0.089130
   127  H    0.097925
   128  H    0.091555
   129  H    0.096143
   130  H    0.068143
   131  H    0.085525
   132  H    0.083339
   133  H    0.092242
   134  H    0.095218
   135  H    0.075668
   136  H    0.089542
   137  H    0.112554
 Sum of Mulliken charges =  -0.00000

 Dipole moment (field-independent basis, Debye):
    X=              1.6300    Y=              4.1291    Z=             -0.0619  Tot=              4.4396
 Quadrupole moment (field-independent basis, Debye-Ang):
   XX=           -345.3957   YY=           -399.6283   ZZ=           -396.8586
   XY=            -17.1589   XZ=             11.9903   YZ=             -1.0075

 Normal termination of Gaussian 16 at Wed Sep  4 08:39:46 2019.
