 Gaussian 16, Revision A.03,
 Gaussian 16:  ES64L-G16RevA.03 25-Dec-2016

 ----------------------------------------------------------------------
 # td=(NStates=1) iop(3/107=0140000000,3/108=0140000000) CAM-B3LYP/6-31
 G(d,p)
 ----------------------------------------------------------------------

 --
 TD
 --
 Symbolic Z-matrix:
 Charge =  0 Multiplicity = 1

                         Standard orientation:
 ---------------------------------------------------------------------
 Center     Atomic      Atomic             Coordinates (Angstroms)
 Number     Number       Type             X           Y           Z
 ---------------------------------------------------------------------
      1         12           0       -7.129570    0.486677    0.151981
      2          6           0       -4.874766   -2.003947    0.510735
      3          6           0       -4.854082    2.761252    1.284904
      4          6           0       -9.400594    3.066655   -0.473566
      5          6           0       -9.514362   -1.774765   -0.808815
      6          7           0       -5.113227    0.390485    0.756526
      7          6           0       -4.427553   -0.690719    0.744940
      8          6           0       -2.985379   -0.462175    1.179319
      9          6           0       -3.053572    0.969965    1.711163
     10          6           0       -4.383808    1.443505    1.225056
     11          6           0       -2.880413    1.151450    3.206743
     12          6           0       -2.036843   -0.463411   -0.001951
     13          6           0       -0.495384   -0.338776    0.516456
     14          6           0        0.431834   -0.620596   -0.681190
     15          8           0        0.013367   -0.956593   -1.777467
     16          8           0        1.748483   -0.229942   -0.344285
     17          7           0       -7.040892    2.697423    0.341133
     18          6           0       -6.030112    3.399668    0.874326
     19          6           0       -6.365477    4.804133    0.758774
     20          6           0       -7.619932    4.869858    0.250154
     21          6           0       -8.011646    3.515939   -0.000034
     22          6           0       -5.377069    5.955154    1.061884
     23          6           0       -8.442385    6.053674    0.127035
     24          6           0       -8.351442    7.221574    0.765448
     25          7           0       -9.140157    0.611809   -0.432315
     26          6           0       -9.859495    1.785108   -0.602849
     27          6           0      -11.266172    1.575553   -1.045183
     28          6           0      -11.290633    0.172217   -1.267422
     29          6           0       -9.974949   -0.454926   -0.775636
     30          6           0      -12.285677    2.574463   -1.298624
     31          6           0      -12.392664   -0.749571   -1.658012
     32          6           0      -12.355948   -1.092416   -3.149419
     33          7           0       -7.181642   -1.361792   -0.178725
     34          6           0       -8.213827   -2.264387   -0.541031
     35          6           0       -7.808088   -3.748873   -0.536445
     36          6           0       -6.425929   -3.699763   -0.151427
     37          6           0       -6.202524   -2.282292    0.060866
     38          6           0       -8.714028   -4.911431   -0.922417
     39          6           0       -5.280082   -4.402583    0.165289
     40          8           0       -5.078286   -5.593710    0.237639
     41          6           0       -4.170420   -3.332061    0.542906
     42          6           0       -3.488497   -3.674849    1.938406
     43          8           0       -3.864691   -3.133277    2.967859
     44          8           0       -2.655848   -4.600899    1.791576
     45          6           0       -2.164837   -5.170245    3.042333
     46          6           0        2.751135   -0.699505   -1.282049
     47          6           0        4.080586   -0.470991   -0.511870
     48          6           0        5.094978    0.362526   -0.978289
     49          6           0        4.967040    1.234869   -2.164534
     50          6           0        6.502416    0.466675   -0.396312
     51          6           0        7.702773   -0.166922   -1.185941
     52          6           0        8.903301   -0.132960   -0.218300
     53          6           0       10.240053   -0.533987   -0.894728
     54          6           0       10.220577   -2.031220   -1.429540
     55          6           0       11.352278   -0.330221    0.034303
     56          6           0       12.773466   -0.565217   -0.616309
     57          6           0       13.862801   -0.125839    0.258086
     58          6           0       15.336740   -0.209447   -0.437305
     59          6           0       15.725502   -1.682829   -0.875687
     60          6           0       16.444466    0.498848    0.413701
     61          6           0       17.816936    0.597656   -0.105951
     62          6           0       18.710113    1.319102    0.788009
     63          6           0       20.223684    1.336845    0.315068
     64          6           0       20.460978    2.027249   -1.057555
     65          6           0       21.079965    1.769231    1.456740
     66          1           0       -4.174358    3.376753    1.702295
     67          1           0       -9.958471    3.974374   -0.804725
     68          1           0      -10.415694   -2.278169   -1.043593
     69          1           0       -2.678814   -1.192476    1.941601
     70          1           0       -2.044932    1.519327    1.518054
     71          1           0       -1.823462    1.246448    3.363443
     72          1           0       -3.102666    2.237479    3.455274
     73          1           0       -3.587600    0.388473    3.762384
     74          1           0       -2.103576   -1.418001   -0.446371
     75          1           0       -2.282160    0.203647   -0.848854
     76          1           0       -0.233128    0.710990    0.611053
     77          1           0       -0.073157   -0.888213    1.310869
     78          1           0       -5.512571    6.917601    0.349017
     79          1           0       -5.426418    6.466455    1.984295
     80          1           0       -4.265567    5.464230    1.024900
     81          1           0       -9.380217    6.202640   -0.530820
     82          1           0       -9.023122    7.893449    0.425634
     83          1           0       -7.622316    7.589013    1.368558
     84          1           0      -12.140236    3.118036   -2.185535
     85          1           0      -13.155162    2.165240   -1.514722
     86          1           0      -12.268396    3.204184   -0.473768
     87          1           0      -12.084837   -1.617874   -1.037177
     88          1           0      -13.375271   -0.211771   -1.483486
     89          1           0      -13.116144   -1.661604   -3.258107
     90          1           0      -12.765823   -0.266004   -3.692236
     91          1           0      -11.297511   -1.626863   -3.443167
     92          1           0       -8.915458   -5.276452   -2.047726
     93          1           0       -8.296792   -5.837239   -0.427470
     94          1           0       -9.712345   -4.771277   -0.464589
     95          1           0       -3.332840   -3.519289   -0.295669
     96          1           0       -1.446194   -4.540170    3.584208
     97          1           0       -3.053196   -5.519920    3.564164
     98          1           0       -1.773766   -6.009447    2.693486
     99          1           0        2.678918   -1.765186   -1.730929
    100          1           0        2.592253   -0.012946   -2.270829
    101          1           0        4.307549   -1.124377    0.270901
    102          1           0        4.084102    1.298007   -2.679296
    103          1           0        5.016633    2.329620   -1.825250
    104          1           0        5.932438    0.841976   -2.786488
    105          1           0        6.862157    1.451780   -0.084426
    106          1           0        6.342104   -0.073160    0.417452
    107          1           0        7.624417   -1.258442   -1.336319
    108          1           0        7.691094    0.354285   -2.202140
    109          1           0        9.300737    0.931170    0.285811
    110          1           0        8.805635   -0.762986    0.670312
    111          1           0       10.301863    0.288425   -1.608378
    112          1           0        9.402633   -2.203767   -2.257074
    113          1           0       11.100835   -2.139355   -2.012415
    114          1           0       10.009411   -2.580632   -0.538250
    115          1           0       11.302385    0.687873    0.438352
    116          1           0       11.300624   -0.875279    1.069880
    117          1           0       12.783506   -1.503005   -1.165683
    118          1           0       12.753021    0.206386   -1.474024
    119          1           0       13.802933    1.024832    0.435530
    120          1           0       13.880658   -0.631077    1.177682
    121          1           0       15.277022    0.271100   -1.428900
    122          1           0       15.290976   -2.473874   -0.130472
    123          1           0       14.942700   -1.977994   -1.969460
    124          1           0       16.697463   -1.816701   -1.208534
    125          1           0       16.100354    1.505622    0.475389
    126          1           0       16.138543   -0.102220    1.324638
    127          1           0       18.081678   -0.540918   -0.259821
    128          1           0       17.894608    1.125254   -1.171456
    129          1           0       18.617713    2.407823    0.770677
    130          1           0       18.605414    0.880344    1.798845
    131          1           0       20.472060    0.418188    0.195352
    132          1           0       20.497777    3.230372   -0.909582
    133          1           0       21.597030    1.722432   -1.253569
    134          1           0       19.925405    1.777530   -2.011298
    135          1           0       20.977141    1.205763    2.308379
    136          1           0       22.041480    1.848572    1.145215
    137          1           0       20.892809    2.823284    1.650758
 ---------------------------------------------------------------------

 SCF Done:  E(RCAM-B3LYP) =  -2933.44839416     A.U. after   16 cycles

 Excitation energies and oscillator strengths:

 Excited State   1:      Singlet-A      1.9120 eV  648.47 nm  f=0.3025  <S**2>=0.000
     240 -> 243       -0.21008
     241 -> 242        0.67286
 This state for optimization and/or second-order correction.
 Total Energy, E(TD-HF/TD-DFT) =  -2933.37813111
 Copying the excited state density for this state as the 1-particle RhoCI density.

 The electronic state is 1-A.
 Alpha  occ. eigenvalues --  -46.80403 -19.23639 -19.21891 -19.17411 -19.15525
 Alpha  occ. eigenvalues --  -19.15449 -14.37501 -14.36366 -14.35030 -14.34297
 Alpha  occ. eigenvalues --  -10.34622 -10.33893 -10.29612 -10.29080 -10.26844
 Alpha  occ. eigenvalues --  -10.26776 -10.26278 -10.25689 -10.25366 -10.25103
 Alpha  occ. eigenvalues --  -10.25034 -10.24508 -10.24286 -10.24079 -10.23882
 Alpha  occ. eigenvalues --  -10.23591 -10.23291 -10.23171 -10.23012 -10.22930
 Alpha  occ. eigenvalues --  -10.22833 -10.22785 -10.22624 -10.22522 -10.22397
 Alpha  occ. eigenvalues --  -10.22373 -10.22352 -10.22341 -10.22294 -10.22195
 Alpha  occ. eigenvalues --  -10.22098 -10.22061 -10.22009 -10.21919 -10.21798
 Alpha  occ. eigenvalues --  -10.21794 -10.21722 -10.21660 -10.21613 -10.21537
 Alpha  occ. eigenvalues --  -10.21358 -10.21213 -10.21089 -10.20981 -10.20968
 Alpha  occ. eigenvalues --  -10.20965 -10.20841 -10.20508 -10.20333 -10.20193
 Alpha  occ. eigenvalues --  -10.20008 -10.19990 -10.19742 -10.18935 -10.18257
 Alpha  occ. eigenvalues --   -3.09053  -1.83974  -1.83549  -1.83460  -1.16399
 Alpha  occ. eigenvalues --   -1.10946  -1.06094  -1.04239  -1.03908  -1.01108
 Alpha  occ. eigenvalues --   -0.99260  -0.98118  -0.95642  -0.87018  -0.86075
 Alpha  occ. eigenvalues --   -0.85465  -0.84897  -0.84631  -0.83754  -0.83678
 Alpha  occ. eigenvalues --   -0.83153  -0.82899  -0.82704  -0.81562  -0.80595
 Alpha  occ. eigenvalues --   -0.80070  -0.79807  -0.79251  -0.78343  -0.77949
 Alpha  occ. eigenvalues --   -0.76918  -0.76246  -0.75580  -0.74926  -0.73477
 Alpha  occ. eigenvalues --   -0.73340  -0.72612  -0.71592  -0.71304  -0.71251
 Alpha  occ. eigenvalues --   -0.70394  -0.70171  -0.69592  -0.68350  -0.67649
 Alpha  occ. eigenvalues --   -0.66860  -0.66024  -0.65130  -0.64456  -0.64224
 Alpha  occ. eigenvalues --   -0.62630  -0.62427  -0.60664  -0.60409  -0.60333
 Alpha  occ. eigenvalues --   -0.59345  -0.59197  -0.58750  -0.58594  -0.58129
 Alpha  occ. eigenvalues --   -0.56982  -0.56247  -0.55637  -0.55496  -0.55303
 Alpha  occ. eigenvalues --   -0.54953  -0.54075  -0.53802  -0.53305  -0.52993
 Alpha  occ. eigenvalues --   -0.52007  -0.51903  -0.51284  -0.51171  -0.51092
 Alpha  occ. eigenvalues --   -0.50768  -0.50473  -0.50386  -0.49972  -0.49508
 Alpha  occ. eigenvalues --   -0.49329  -0.49067  -0.48679  -0.48521  -0.48066
 Alpha  occ. eigenvalues --   -0.47832  -0.47640  -0.47447  -0.47107  -0.46988
 Alpha  occ. eigenvalues --   -0.46775  -0.46435  -0.46406  -0.46124  -0.45951
 Alpha  occ. eigenvalues --   -0.45436  -0.45279  -0.45107  -0.44629  -0.44623
 Alpha  occ. eigenvalues --   -0.44420  -0.44317  -0.44083  -0.43899  -0.43698
 Alpha  occ. eigenvalues --   -0.42990  -0.42740  -0.42645  -0.42494  -0.42347
 Alpha  occ. eigenvalues --   -0.42118  -0.41975  -0.41832  -0.41721  -0.41555
 Alpha  occ. eigenvalues --   -0.41218  -0.41095  -0.41062  -0.40780  -0.40578
 Alpha  occ. eigenvalues --   -0.40493  -0.40271  -0.40128  -0.39979  -0.39877
 Alpha  occ. eigenvalues --   -0.39502  -0.39242  -0.39033  -0.38957  -0.38872
 Alpha  occ. eigenvalues --   -0.38605  -0.38532  -0.38387  -0.38323  -0.38181
 Alpha  occ. eigenvalues --   -0.38028  -0.37928  -0.37818  -0.37743  -0.37216
 Alpha  occ. eigenvalues --   -0.36891  -0.36820  -0.36610  -0.36445  -0.35632
 Alpha  occ. eigenvalues --   -0.35329  -0.35199  -0.35115  -0.34853  -0.34789
 Alpha  occ. eigenvalues --   -0.34586  -0.34161  -0.33952  -0.33490  -0.33476
 Alpha  occ. eigenvalues --   -0.33230  -0.33106  -0.32889  -0.32486  -0.32063
 Alpha  occ. eigenvalues --   -0.31928  -0.31786  -0.30881  -0.30206  -0.29919
 Alpha  occ. eigenvalues --   -0.29686  -0.29427  -0.28871  -0.27910  -0.27684
 Alpha  occ. eigenvalues --   -0.26724  -0.26179  -0.25061  -0.24461  -0.21037
 Alpha  occ. eigenvalues --   -0.19346
 Alpha virt. eigenvalues --   -0.07347  -0.03154  -0.00257   0.02719   0.03621
 Alpha virt. eigenvalues --    0.03817   0.04670   0.05233   0.05413   0.05942
 Alpha virt. eigenvalues --    0.05994   0.08604   0.08605   0.09634   0.09999

 Mulliken charges:
               1
     1  Mg   0.851903
     2  C    0.105267
     3  C   -0.184777
     4  C   -0.175040
     5  C   -0.177077
     6  N   -0.643990
     7  C    0.329146
     8  C   -0.162327
     9  C   -0.141989
    10  C    0.341756
    11  C   -0.305811
    12  C   -0.168276
    13  C   -0.270381
    14  C    0.581699
    15  O   -0.452178
    16  O   -0.473414
    17  N   -0.676045
    18  C    0.297622
    19  C    0.035706
    20  C    0.028628
    21  C    0.279486
    22  C   -0.375123
    23  C   -0.113101
    24  C   -0.213080
    25  N   -0.687945
    26  C    0.326323
    27  C    0.034855
    28  C    0.022913
    29  C    0.260374
    30  C   -0.359595
    31  C   -0.275089
    32  C   -0.284069
    33  N   -0.742423
    34  C    0.269588
    35  C    0.032650
    36  C    0.120196
    37  C    0.255461
    38  C   -0.384769
    39  C    0.312588
    40  O   -0.468273
    41  C   -0.342778
    42  C    0.609856
    43  O   -0.500535
    44  O   -0.391408
    45  C   -0.099297
    46  C    0.001822
    47  C   -0.126982
    48  C    0.095130
    49  C   -0.327970
    50  C   -0.211481
    51  C   -0.179351
    52  C   -0.173004
    53  C   -0.063030
    54  C   -0.309944
    55  C   -0.171614
    56  C   -0.170809
    57  C   -0.177041
    58  C   -0.079548
    59  C   -0.289437
    60  C   -0.155660
    61  C   -0.162247
    62  C   -0.157065
    63  C   -0.053686
    64  C   -0.318150
    65  C   -0.313204
    66  H    0.052650
    67  H    0.086367
    68  H    0.056827
    69  H    0.117294
    70  H    0.086417
    71  H    0.106774
    72  H    0.098024
    73  H    0.119989
    74  H    0.124078
    75  H    0.123872
    76  H    0.143593
    77  H    0.138406
    78  H    0.105695
    79  H    0.132219
    80  H    0.089790
    81  H    0.078060
    82  H    0.087270
    83  H    0.087408
    84  H    0.131238
    85  H    0.113953
    86  H    0.131973
    87  H    0.109147
    88  H    0.097299
    89  H    0.117977
    90  H    0.104980
    91  H    0.099228
    92  H    0.123141
    93  H    0.141535
    94  H    0.126907
    95  H    0.132018
    96  H    0.137696
    97  H    0.146361
    98  H    0.139091
    99  H    0.123552
   100  H    0.102929
   101  H    0.082623
   102  H    0.110543
   103  H    0.106940
   104  H    0.091288
   105  H    0.109688
   106  H    0.104178
   107  H    0.109369
   108  H    0.095047
   109  H    0.052609
   110  H    0.096416
   111  H    0.092013
   112  H    0.083800
   113  H    0.117606
   114  H    0.114599
   115  H    0.087567
   116  H    0.062850
   117  H    0.105103
   118  H    0.079601
   119  H    0.086676
   120  H    0.097061
   121  H    0.081964
   122  H    0.093995
   123  H    0.028229
   124  H    0.120979
   125  H    0.092247
   126  H    0.087141
   127  H    0.070106
   128  H    0.074769
   129  H    0.092383
   130  H    0.084462
   131  H    0.101891
   132  H    0.079654
   133  H    0.085585
   134  H    0.116575
   135  H    0.112788
   136  H    0.102251
   137  H    0.091693
 Sum of Mulliken charges =  -0.00000

 Dipole moment (field-independent basis, Debye):
    X=              2.2938    Y=              1.6291    Z=              0.2945  Tot=              2.8288
 Quadrupole moment (field-independent basis, Debye-Ang):
   XX=           -320.8655   YY=           -392.3072   ZZ=           -398.2281
   XY=            -11.9153   XZ=             20.1636   YZ=             -6.5053

 Normal termination of Gaussian 16 at Sat Sep  7 01:54:06 2019.
