 Gaussian 16, Revision A.03,
 Gaussian 16:  ES64L-G16RevA.03 25-Dec-2016

 ----------------------------------------------------------------------
 # td=(NStates=1) iop(3/107=0140000000,3/108=0140000000) CAM-B3LYP/6-31
 G(d,p)
 ----------------------------------------------------------------------

 --
 TD
 --
 Symbolic Z-matrix:
 Charge =  0 Multiplicity = 1

                         Standard orientation:
 ---------------------------------------------------------------------
 Center     Atomic      Atomic             Coordinates (Angstroms)
 Number     Number       Type             X           Y           Z
 ---------------------------------------------------------------------
      1         12           0       -7.099936    0.588065    0.158982
      2          6           0       -4.904996   -1.971617    0.544501
      3          6           0       -4.738516    2.836623    1.122857
      4          6           0       -9.411556    3.178364   -0.406515
      5          6           0       -9.607174   -1.756671   -0.884908
      6          7           0       -5.041501    0.389091    0.635967
      7          6           0       -4.303237   -0.740381    0.773210
      8          6           0       -2.945308   -0.417105    1.271668
      9          6           0       -3.038054    1.012365    1.730980
     10          6           0       -4.279002    1.535632    1.154625
     11          6           0       -3.024700    1.112543    3.230476
     12          6           0       -1.921166   -0.636601    0.110078
     13          6           0       -0.455228   -0.491607    0.607502
     14          6           0        0.536661   -0.714741   -0.507084
     15          8           0        0.051669   -1.011508   -1.594615
     16          8           0        1.812236   -0.464717   -0.073669
     17          7           0       -7.111862    2.573591    0.467825
     18          6           0       -6.009777    3.372429    0.794424
     19          6           0       -6.310823    4.776877    0.787590
     20          6           0       -7.669317    4.869247    0.333365
     21          6           0       -8.119256    3.455648   -0.014398
     22          6           0       -5.419206    5.866941    1.222613
     23          6           0       -8.468811    6.107034    0.082260
     24          6           0       -8.479439    7.258538    0.820589
     25          7           0       -9.143427    0.649644   -0.594616
     26          6           0       -9.917231    1.845431   -0.744535
     27          6           0      -11.221328    1.495577   -1.137143
     28          6           0      -11.323406    0.187127   -1.220371
     29          6           0       -9.939754   -0.341351   -0.935261
     30          6           0      -12.323156    2.529419   -1.317203
     31          6           0      -12.485095   -0.684313   -1.587604
     32          6           0      -12.323047   -0.966806   -3.133939
     33          7           0       -7.177855   -1.359944   -0.252573
     34          6           0       -8.323782   -2.145966   -0.555598
     35          6           0       -7.912498   -3.574446   -0.517113
     36          6           0       -6.565088   -3.623133   -0.230300
     37          6           0       -6.162769   -2.221865   -0.030194
     38          6           0       -8.742305   -4.736906   -0.837881
     39          6           0       -5.382135   -4.489754    0.078175
     40          8           0       -5.185374   -5.660949    0.183585
     41          6           0       -4.227197   -3.421319    0.507462
     42          6           0       -3.655810   -3.797146    1.858820
     43          8           0       -3.907061   -3.296158    2.939265
     44          8           0       -2.775101   -4.756739    1.708727
     45          6           0       -2.251039   -5.347772    2.970520
     46          6           0        2.806155   -0.644841   -1.015485
     47          6           0        4.135656   -0.296812   -0.367119
     48          6           0        5.101210    0.458585   -0.955547
     49          6           0        4.939681    1.133815   -2.259024
     50          6           0        6.474770    0.521163   -0.276404
     51          6           0        7.647526   -0.036508   -1.108904
     52          6           0        8.868338   -0.014026   -0.253181
     53          6           0       10.305078   -0.439959   -0.965609
     54          6           0       10.097461   -1.759735   -1.473037
     55          6           0       11.458490   -0.210394    0.018999
     56          6           0       12.868896   -0.379269   -0.717826
     57          6           0       14.032761   -0.063133    0.110971
     58          6           0       15.388156   -0.175502   -0.525392
     59          6           0       15.598547   -1.625510   -1.118508
     60          6           0       16.566624    0.300741    0.349173
     61          6           0       17.852079    0.713133   -0.318499
     62          6           0       18.909057    1.153260    0.760476
     63          6           0       20.309053    1.171680    0.360499
     64          6           0       20.603807    2.098275   -0.841769
     65          6           0       21.259781    1.589736    1.540094
     66          1           0       -3.974359    3.699801    1.242153
     67          1           0       -9.986578    4.173464   -0.786454
     68          1           0      -10.349343   -2.490694   -1.475199
     69          1           0       -2.593502   -1.161321    2.096989
     70          1           0       -2.145133    1.794840    1.501970
     71          1           0       -1.988871    0.901265    3.455637
     72          1           0       -3.268150    1.970319    3.614445
     73          1           0       -3.646371    0.471312    3.766341
     74          1           0       -1.835212   -1.709612   -0.529063
     75          1           0       -2.055738   -0.011421   -0.798643
     76          1           0       -0.364523    0.487473    0.944594
     77          1           0       -0.063647   -1.127481    1.429894
     78          1           0       -5.522164    6.797634    0.626973
     79          1           0       -5.594658    6.210881    2.268132
     80          1           0       -4.389357    5.484902    1.183647
     81          1           0       -9.108138    5.934246   -0.654838
     82          1           0       -9.177805    8.182929    0.705088
     83          1           0       -7.795156    7.372491    1.714244
     84          1           0      -11.979756    3.132105   -2.181347
     85          1           0      -13.340585    2.085769   -1.665590
     86          1           0      -12.331748    3.187556   -0.499660
     87          1           0      -12.378214   -1.825162   -1.199327
     88          1           0      -13.525171   -0.308733   -1.399099
     89          1           0      -13.050883   -1.788557   -3.520441
     90          1           0      -12.452103   -0.046771   -3.706919
     91          1           0      -11.370737   -1.461431   -3.408231
     92          1           0       -9.336735   -4.803180   -1.825309
     93          1           0       -8.185884   -5.594868   -0.767352
     94          1           0       -9.438563   -4.974127    0.024174
     95          1           0       -3.387453   -3.380683   -0.205762
     96          1           0       -1.664460   -4.603727    3.544932
     97          1           0       -3.001119   -5.887581    3.429481
     98          1           0       -1.767127   -6.307095    2.707983
     99          1           0        2.764611   -1.647855   -1.356926
    100          1           0        2.417081   -0.182783   -1.907393
    101          1           0        4.486421   -0.659910    0.544029
    102          1           0        3.827036    1.066048   -2.787794
    103          1           0        5.119007    2.232742   -1.744355
    104          1           0        5.610489    0.709433   -3.215992
    105          1           0        6.747269    1.585009   -0.034273
    106          1           0        6.271480   -0.089520    0.682216
    107          1           0        7.343265   -1.011961   -1.439395
    108          1           0        7.673149    0.515674   -2.070191
    109          1           0        9.013141    1.063398    0.169995
    110          1           0        8.670506   -0.576279    0.577423
    111          1           0       10.443358    0.264611   -1.785289
    112          1           0        9.349271   -2.090157   -2.308472
    113          1           0       10.932552   -2.105015   -2.181531
    114          1           0        9.904880   -2.551191   -0.741423
    115          1           0       11.358636    0.772673    0.422586
    116          1           0       11.422995   -0.876527    0.864919
    117          1           0       12.745038   -1.478839   -0.878522
    118          1           0       12.776749    0.067838   -1.930126
    119          1           0       13.748275    1.072369    0.477561
    120          1           0       14.112857   -0.757035    0.977548
    121          1           0       15.338595    0.663697   -1.261227
    122          1           0       15.630385   -2.244086   -0.329276
    123          1           0       14.720666   -1.846663   -1.739805
    124          1           0       16.468941   -1.888686   -1.697144
    125          1           0       16.229150    1.259831    0.896528
    126          1           0       16.761645   -0.598524    0.987494
    127          1           0       18.300859   -0.127636   -1.031163
    128          1           0       17.816097    1.491237   -1.010621
    129          1           0       18.795870    2.004776    1.262104
    130          1           0       18.672161    0.449557    1.572559
    131          1           0       20.624840    0.243786   -0.119853
    132          1           0       20.163063    3.205243   -0.589499
    133          1           0       21.551558    2.067958   -1.299724
    134          1           0       19.979625    1.853913   -1.848308
    135          1           0       21.112575    1.039401    2.406683
    136          1           0       22.372645    1.548930    1.481071
    137          1           0       20.951796    2.717132    2.028349
 ---------------------------------------------------------------------

 SCF Done:  E(RCAM-B3LYP) =  -2933.53587659     A.U. after   16 cycles

 Excitation energies and oscillator strengths:

 Excited State   1:      Singlet-A      1.9610 eV  632.24 nm  f=0.2144  <S**2>=0.000
     240 -> 243        0.25695
     241 -> 242        0.65586
 This state for optimization and/or second-order correction.
 Total Energy, E(TD-HF/TD-DFT) =  -2933.46381035
 Copying the excited state density for this state as the 1-particle RhoCI density.

 The electronic state is 1-A.
 Alpha  occ. eigenvalues --  -46.79662 -19.22905 -19.21587 -19.17588 -19.17184
 Alpha  occ. eigenvalues --  -19.15063 -14.37133 -14.35469 -14.35331 -14.35064
 Alpha  occ. eigenvalues --  -10.34916 -10.33148 -10.31548 -10.27087 -10.26659
 Alpha  occ. eigenvalues --  -10.26282 -10.26196 -10.25434 -10.25306 -10.25242
 Alpha  occ. eigenvalues --  -10.25194 -10.24893 -10.24362 -10.24358 -10.24316
 Alpha  occ. eigenvalues --  -10.24216 -10.24034 -10.23934 -10.23827 -10.23506
 Alpha  occ. eigenvalues --  -10.23409 -10.23364 -10.23252 -10.23234 -10.23185
 Alpha  occ. eigenvalues --  -10.22789 -10.22645 -10.22535 -10.22372 -10.22362
 Alpha  occ. eigenvalues --  -10.22242 -10.22140 -10.22030 -10.22020 -10.21969
 Alpha  occ. eigenvalues --  -10.21930 -10.21866 -10.21660 -10.21576 -10.21527
 Alpha  occ. eigenvalues --  -10.21508 -10.21441 -10.21396 -10.21380 -10.21199
 Alpha  occ. eigenvalues --  -10.21151 -10.21105 -10.21075 -10.21024 -10.21001
 Alpha  occ. eigenvalues --  -10.20737 -10.20473 -10.19493 -10.19265 -10.19003
 Alpha  occ. eigenvalues --   -3.08208  -1.83152  -1.82665  -1.82629  -1.13813
 Alpha  occ. eigenvalues --   -1.12800  -1.08023  -1.05871  -1.02674  -0.98198
 Alpha  occ. eigenvalues --   -0.97464  -0.96812  -0.95487  -0.86379  -0.85757
 Alpha  occ. eigenvalues --   -0.85721  -0.84809  -0.84512  -0.83694  -0.83277
 Alpha  occ. eigenvalues --   -0.83133  -0.82721  -0.82533  -0.82134  -0.81064
 Alpha  occ. eigenvalues --   -0.80200  -0.79146  -0.78430  -0.78220  -0.77236
 Alpha  occ. eigenvalues --   -0.76749  -0.76281  -0.75571  -0.74773  -0.73928
 Alpha  occ. eigenvalues --   -0.72288  -0.71596  -0.71444  -0.71373  -0.70845
 Alpha  occ. eigenvalues --   -0.70633  -0.70564  -0.70294  -0.69012  -0.67592
 Alpha  occ. eigenvalues --   -0.67340  -0.65975  -0.65245  -0.64194  -0.63481
 Alpha  occ. eigenvalues --   -0.62671  -0.62585  -0.61270  -0.60754  -0.60630
 Alpha  occ. eigenvalues --   -0.59707  -0.59467  -0.59095  -0.58869  -0.57430
 Alpha  occ. eigenvalues --   -0.56822  -0.56455  -0.55339  -0.54992  -0.54589
 Alpha  occ. eigenvalues --   -0.53983  -0.53728  -0.53170  -0.52875  -0.52594
 Alpha  occ. eigenvalues --   -0.52427  -0.51729  -0.51560  -0.51266  -0.50812
 Alpha  occ. eigenvalues --   -0.50584  -0.50454  -0.50111  -0.49823  -0.49651
 Alpha  occ. eigenvalues --   -0.48926  -0.48725  -0.48110  -0.47933  -0.47852
 Alpha  occ. eigenvalues --   -0.47507  -0.47356  -0.47065  -0.46895  -0.46604
 Alpha  occ. eigenvalues --   -0.46406  -0.46152  -0.46072  -0.45946  -0.45706
 Alpha  occ. eigenvalues --   -0.45521  -0.45473  -0.45146  -0.45000  -0.44752
 Alpha  occ. eigenvalues --   -0.44531  -0.44405  -0.44320  -0.44022  -0.43804
 Alpha  occ. eigenvalues --   -0.43296  -0.42956  -0.42780  -0.42307  -0.41938
 Alpha  occ. eigenvalues --   -0.41836  -0.41670  -0.41572  -0.41378  -0.41297
 Alpha  occ. eigenvalues --   -0.41178  -0.41056  -0.40961  -0.40767  -0.40646
 Alpha  occ. eigenvalues --   -0.40492  -0.40388  -0.40219  -0.39621  -0.39305
 Alpha  occ. eigenvalues --   -0.39136  -0.38954  -0.38854  -0.38795  -0.38678
 Alpha  occ. eigenvalues --   -0.38488  -0.38370  -0.38311  -0.37985  -0.37879
 Alpha  occ. eigenvalues --   -0.37714  -0.37624  -0.37207  -0.37003  -0.36675
 Alpha  occ. eigenvalues --   -0.36597  -0.36512  -0.36284  -0.36029  -0.36025
 Alpha  occ. eigenvalues --   -0.35934  -0.35856  -0.35675  -0.35347  -0.34955
 Alpha  occ. eigenvalues --   -0.34762  -0.34551  -0.34476  -0.33748  -0.33342
 Alpha  occ. eigenvalues --   -0.33120  -0.32798  -0.32583  -0.32529  -0.32359
 Alpha  occ. eigenvalues --   -0.31925  -0.31795  -0.31731  -0.30471  -0.30279
 Alpha  occ. eigenvalues --   -0.29944  -0.29616  -0.29083  -0.28082  -0.27320
 Alpha  occ. eigenvalues --   -0.27116  -0.26889  -0.25614  -0.24343  -0.21392
 Alpha  occ. eigenvalues --   -0.19403
 Alpha virt. eigenvalues --   -0.06604  -0.04211  -0.00012   0.02218   0.03408
 Alpha virt. eigenvalues --    0.04247   0.04505   0.04923   0.05327   0.06401
 Alpha virt. eigenvalues --    0.06737   0.08511   0.09065   0.09350   0.09606

 Mulliken charges:
               1
     1  Mg   0.820219
     2  C    0.057621
     3  C   -0.212936
     4  C   -0.168245
     5  C   -0.167193
     6  N   -0.636554
     7  C    0.347645
     8  C   -0.164549
     9  C   -0.150650
    10  C    0.328364
    11  C   -0.296617
    12  C   -0.179985
    13  C   -0.266483
    14  C    0.609681
    15  O   -0.471371
    16  O   -0.452677
    17  N   -0.706320
    18  C    0.329379
    19  C    0.045631
    20  C   -0.027265
    21  C    0.284779
    22  C   -0.383834
    23  C   -0.047812
    24  C   -0.254820
    25  N   -0.656229
    26  C    0.235305
    27  C    0.050161
    28  C    0.044035
    29  C    0.289255
    30  C   -0.372266
    31  C   -0.256883
    32  C   -0.312337
    33  N   -0.721660
    34  C    0.295846
    35  C    0.002233
    36  C    0.047196
    37  C    0.252429
    38  C   -0.399156
    39  C    0.381594
    40  O   -0.430928
    41  C   -0.331616
    42  C    0.622744
    43  O   -0.492940
    44  O   -0.438045
    45  C   -0.090049
    46  C    0.008632
    47  C   -0.130786
    48  C    0.125861
    49  C   -0.333451
    50  C   -0.228103
    51  C   -0.167959
    52  C   -0.176378
    53  C   -0.047068
    54  C   -0.310440
    55  C   -0.181313
    56  C   -0.164141
    57  C   -0.150470
    58  C   -0.060917
    59  C   -0.332535
    60  C   -0.167771
    61  C   -0.176028
    62  C   -0.155693
    63  C   -0.044315
    64  C   -0.296015
    65  C   -0.314824
    66  H    0.071620
    67  H    0.085558
    68  H    0.100817
    69  H    0.125548
    70  H    0.090402
    71  H    0.102857
    72  H    0.116615
    73  H    0.130842
    74  H    0.100295
    75  H    0.127656
    76  H    0.133798
    77  H    0.123851
    78  H    0.126173
    79  H    0.125697
    80  H    0.107053
    81  H    0.080062
    82  H    0.105619
    83  H    0.099100
    84  H    0.118663
    85  H    0.101113
    86  H    0.132155
    87  H    0.088223
    88  H    0.106869
    89  H    0.080463
    90  H    0.112734
    91  H    0.110837
    92  H    0.119036
    93  H    0.147406
    94  H    0.124173
    95  H    0.151832
    96  H    0.138073
    97  H    0.142545
    98  H    0.117718
    99  H    0.122829
   100  H    0.119253
   101  H    0.081120
   102  H    0.092603
   103  H    0.105745
   104  H    0.106490
   105  H    0.095474
   106  H    0.084787
   107  H    0.102926
   108  H    0.094235
   109  H    0.068245
   110  H    0.102305
   111  H    0.089975
   112  H    0.093356
   113  H    0.085633
   114  H    0.104416
   115  H    0.093277
   116  H    0.095786
   117  H    0.103728
   118  H    0.051465
   119  H    0.065241
   120  H    0.087354
   121  H    0.075891
   122  H    0.112138
   123  H    0.110394
   124  H    0.107377
   125  H    0.084478
   126  H    0.082183
   127  H    0.069069
   128  H    0.108231
   129  H    0.098807
   130  H    0.086648
   131  H    0.089532
   132  H    0.072765
   133  H    0.114624
   134  H    0.067242
   135  H    0.113773
   136  H    0.104166
   137  H    0.060050
 Sum of Mulliken charges =  -0.00000

 Dipole moment (field-independent basis, Debye):
    X=              3.3129    Y=              2.1197    Z=              0.4990  Tot=              3.9645
 Quadrupole moment (field-independent basis, Debye-Ang):
   XX=           -364.2659   YY=           -387.1802   ZZ=           -395.8141
   XY=            -25.5722   XZ=             11.8322   YZ=              0.0911

 Normal termination of Gaussian 16 at Sun Sep 22 13:09:27 2019.
