 Gaussian 09, Revision D.01,
 Gaussian 09:  ES64L-G09RevD.01 24-Apr-2013

 -------------------------------------
 # td=(NStates=1) CAM-B3LYP/6-31G(d,p)
 -------------------------------------

 --
 TD
 --
 Symbolic Z-matrix:
 Charge =  0 Multiplicity = 1

                         Standard orientation:
 ---------------------------------------------------------------------
 Center     Atomic      Atomic             Coordinates (Angstroms)
 Number     Number       Type             X           Y           Z
 ---------------------------------------------------------------------
      1         12           0       -7.107998    0.638198    0.026823
      2          6           0       -4.816008   -1.941634    0.427610
      3          6           0       -4.832676    2.833813    1.161571
      4          6           0       -9.483295    3.069650   -0.428882
      5          6           0       -9.477141   -1.701088   -0.886030
      6          7           0       -5.092323    0.442042    0.624442
      7          6           0       -4.285466   -0.750082    0.866688
      8          6           0       -2.896389   -0.397610    1.290824
      9          6           0       -3.105696    1.103299    1.712166
     10          6           0       -4.402870    1.505966    1.129448
     11          6           0       -3.209545    1.308824    3.212002
     12          6           0       -1.952186   -0.607493    0.092635
     13          6           0       -0.512764   -0.487282    0.635272
     14          6           0        0.532403   -0.590665   -0.570079
     15          8           0        0.081780   -0.914604   -1.693437
     16          8           0        1.768283   -0.448824   -0.225149
     17          7           0       -7.140522    2.620945    0.293319
     18          6           0       -6.086572    3.391955    0.705980
     19          6           0       -6.486966    4.831933    0.800893
     20          6           0       -7.759009    4.898245    0.378807
     21          6           0       -8.268426    3.451767    0.139340
     22          6           0       -5.494184    5.945541    1.108893
     23          6           0       -8.587579    6.093837    0.039328
     24          6           0       -8.536095    7.239632    0.741259
     25          7           0       -9.099539    0.562298   -0.608238
     26          6           0       -9.885712    1.751293   -0.722778
     27          6           0      -11.244805    1.435402   -1.133846
     28          6           0      -11.217812    0.021837   -1.341358
     29          6           0       -9.935250   -0.474256   -0.953141
     30          6           0      -12.317348    2.388386   -1.228048
     31          6           0      -12.387642   -0.856827   -1.697352
     32          6           0      -12.231239   -1.283724   -3.226242
     33          7           0       -7.168869   -1.386790   -0.216674
     34          6           0       -8.192133   -2.187165   -0.457661
     35          6           0       -7.797285   -3.613513   -0.423198
     36          6           0       -6.447463   -3.519736   -0.122964
     37          6           0       -6.146324   -2.126346    0.114307
     38          6           0       -8.671731   -4.810551   -0.773206
     39          6           0       -5.316902   -4.395935    0.155048
     40          8           0       -5.177596   -5.594469    0.086776
     41          6           0       -4.188464   -3.356278    0.705656
     42          6           0       -3.445453   -3.707336    2.007465
     43          8           0       -3.684885   -3.053871    2.994714
     44          8           0       -2.770398   -4.776669    1.806762
     45          6           0       -2.056929   -5.253746    2.959563
     46          6           0        2.793415   -0.571491   -1.236474
     47          6           0        4.109527   -0.413320   -0.640277
     48          6           0        5.157600    0.357857   -1.008993
     49          6           0        5.081605    1.318835   -2.149848
     50          6           0        6.464360    0.417059   -0.174733
     51          6           0        7.611929   -0.144450   -0.927199
     52          6           0        8.927816   -0.227667   -0.131193
     53          6           0       10.239865   -0.615397   -0.884381
     54          6           0       10.231820   -2.042210   -1.441746
     55          6           0       11.463277   -0.371514   -0.079758
     56          6           0       12.892915   -0.489324   -0.791105
     57          6           0       14.020637   -0.097053    0.179368
     58          6           0       15.367579   -0.146366   -0.513879
     59          6           0       15.723650   -1.620358   -0.922473
     60          6           0       16.438725    0.432870    0.303799
     61          6           0       17.844245    0.466351   -0.229229
     62          6           0       18.768929    1.183841    0.815406
     63          6           0       20.183834    1.389617    0.304173
     64          6           0       20.471694    2.354110   -0.932204
     65          6           0       21.106445    1.872074    1.463033
     66          1           0       -3.987317    3.463133    1.357429
     67          1           0      -10.217659    3.981634   -0.531557
     68          1           0      -10.250147   -2.556057   -0.918904
     69          1           0       -2.562505   -1.025640    2.128048
     70          1           0       -2.253594    1.728062    1.211505
     71          1           0       -2.336594    0.992614    3.691305
     72          1           0       -3.497485    2.206790    3.627902
     73          1           0       -3.945423    0.674292    3.820852
     74          1           0       -2.128730   -1.537551   -0.252427
     75          1           0       -1.882146    0.229280   -0.548558
     76          1           0       -0.201751    0.530448    1.230332
     77          1           0       -0.497496   -1.247478    1.275317
     78          1           0       -5.529932    6.696931    0.395512
     79          1           0       -5.564020    6.146401    2.061160
     80          1           0       -4.442176    5.724410    1.018271
     81          1           0       -9.390970    5.981643   -0.847713
     82          1           0       -9.165118    8.072656    0.450569
     83          1           0       -8.010191    7.341370    1.581884
     84          1           0      -12.108601    2.996679   -2.050147
     85          1           0      -13.223584    1.905400   -1.437197
     86          1           0      -12.657847    3.142183   -0.363317
     87          1           0      -12.518493   -1.756861   -1.018664
     88          1           0      -13.373603   -0.330994   -1.587725
     89          1           0      -13.364210   -1.893879   -3.427272
     90          1           0      -11.932795   -0.392308   -3.851639
     91          1           0      -11.248415   -1.653392   -3.432439
     92          1           0       -8.881952   -4.990184   -1.991123
     93          1           0       -8.134755   -5.727223   -0.410204
     94          1           0       -9.716824   -4.862730   -0.201091
     95          1           0       -3.418609   -3.437688    0.028476
     96          1           0       -1.113649   -4.608755    3.315976
     97          1           0       -2.787618   -5.278570    3.715861
     98          1           0       -1.659883   -6.137419    2.680071
     99          1           0        2.544900   -1.421861   -2.104073
    100          1           0        2.583899    0.332150   -1.997926
    101          1           0        4.348600   -1.133397    0.303995
    102          1           0        3.938553    1.445987   -2.595171
    103          1           0        5.377424    2.431645   -2.175104
    104          1           0        5.599110    0.954495   -3.074687
    105          1           0        6.482689    1.529884    0.155942
    106          1           0        6.159212    0.240865    0.887921
    107          1           0        7.463836   -1.220424   -1.401654
    108          1           0        7.711463    0.423246   -1.861147
    109          1           0        9.097944    0.713507    0.410396
    110          1           0        8.766027   -1.103737    0.546982
    111          1           0       10.376170   -0.025830   -1.720936
    112          1           0        9.423863   -2.384613   -2.140511
    113          1           0       11.049463   -2.306199   -1.953440
    114          1           0       10.112420   -2.776507   -0.720891
    115          1           0       11.307518    0.671804    0.341377
    116          1           0       11.533113   -1.006795    0.771641
    117          1           0       13.055164   -1.583748   -1.188487
    118          1           0       12.944445    0.174095   -1.699070
    119          1           0       13.903540    0.787337    0.410933
    120          1           0       14.118558   -0.681177    1.176282
    121          1           0       15.288652    0.497211   -1.371842
    122          1           0       15.731085   -2.400867   -0.026337
    123          1           0       15.126122   -2.043178   -1.987873
    124          1           0       16.933498   -1.558416   -1.259519
    125          1           0       16.128028    1.590647    0.344692
    126          1           0       16.355916   -0.213730    1.268961
    127          1           0       18.129987   -0.427521   -0.490948
    128          1           0       17.900971    1.110086   -1.271605
    129          1           0       18.251034    2.206957    1.274268
    130          1           0       18.870225    0.340806    1.646985
    131          1           0       20.647363    0.267181    0.057583
    132          1           0       19.716618    3.239730   -0.694531
    133          1           0       21.588213    2.581437   -1.052421
    134          1           0       20.035116    1.755497   -1.795858
    135          1           0       21.035542    1.244664    2.312383
    136          1           0       22.178526    1.904411    1.084781
    137          1           0       20.715081    2.865340    1.605696
 ---------------------------------------------------------------------

 SCF Done:  E(RCAM-B3LYP) =  -2932.61351779     A.U. after   18 cycles

 Excitation energies and oscillator strengths:

 Excited State   1:      Singlet-A      2.0796 eV  596.20 nm  f=0.2457  <S**2>=0.000
     240 -> 242       -0.11207
     240 -> 243        0.23349
     241 -> 242        0.65007
 This state for optimization and/or second-order correction.
 Total Energy, E(TD-HF/TD-KS) =  -2932.53709496
 Copying the excited state density for this state as the 1-particle RhoCI density.

 The electronic state is 1-A.
 Alpha  occ. eigenvalues --  -46.83610 -19.28379 -19.28248 -19.20324 -19.20133
 Alpha  occ. eigenvalues --  -19.19800 -14.40900 -14.39723 -14.38596 -14.38586
 Alpha  occ. eigenvalues --  -10.39549 -10.39033 -10.34596 -10.34406 -10.31923
 Alpha  occ. eigenvalues --  -10.31026 -10.30225 -10.30124 -10.29687 -10.28960
 Alpha  occ. eigenvalues --  -10.28957 -10.28633 -10.28615 -10.28114 -10.28003
 Alpha  occ. eigenvalues --  -10.27930 -10.27900 -10.27841 -10.27797 -10.27782
 Alpha  occ. eigenvalues --  -10.27585 -10.27448 -10.27447 -10.27446 -10.27432
 Alpha  occ. eigenvalues --  -10.27373 -10.27298 -10.27142 -10.27032 -10.26997
 Alpha  occ. eigenvalues --  -10.26895 -10.26861 -10.26821 -10.26706 -10.26704
 Alpha  occ. eigenvalues --  -10.26229 -10.26224 -10.26131 -10.26109 -10.25971
 Alpha  occ. eigenvalues --  -10.25839 -10.25439 -10.25378 -10.25280 -10.25246
 Alpha  occ. eigenvalues --  -10.25246 -10.25145 -10.25112 -10.24940 -10.24504
 Alpha  occ. eigenvalues --  -10.24459 -10.24102 -10.23953 -10.23774 -10.22921
 Alpha  occ. eigenvalues --   -3.12669  -1.87378  -1.86898  -1.86859  -1.21211
 Alpha  occ. eigenvalues --   -1.20125  -1.10522  -1.10273  -1.07756  -1.05168
 Alpha  occ. eigenvalues --   -1.02286  -1.01487  -1.00713  -0.91786  -0.91476
 Alpha  occ. eigenvalues --   -0.91335  -0.90023  -0.89758  -0.88891  -0.88247
 Alpha  occ. eigenvalues --   -0.88111  -0.87542  -0.86886  -0.86205  -0.85742
 Alpha  occ. eigenvalues --   -0.85051  -0.84387  -0.84063  -0.83533  -0.82489
 Alpha  occ. eigenvalues --   -0.81939  -0.81222  -0.79733  -0.79429  -0.78303
 Alpha  occ. eigenvalues --   -0.77324  -0.76881  -0.76711  -0.76025  -0.75584
 Alpha  occ. eigenvalues --   -0.74640  -0.74569  -0.74046  -0.73245  -0.71672
 Alpha  occ. eigenvalues --   -0.71516  -0.70609  -0.69459  -0.68808  -0.68117
 Alpha  occ. eigenvalues --   -0.67474  -0.67065  -0.65422  -0.64745  -0.64644
 Alpha  occ. eigenvalues --   -0.64194  -0.64175  -0.63872  -0.61834  -0.61703
 Alpha  occ. eigenvalues --   -0.60749  -0.60667  -0.59925  -0.59300  -0.58720
 Alpha  occ. eigenvalues --   -0.58101  -0.57980  -0.57414  -0.57265  -0.56891
 Alpha  occ. eigenvalues --   -0.56194  -0.55387  -0.55274  -0.54932  -0.54750
 Alpha  occ. eigenvalues --   -0.54440  -0.54243  -0.54087  -0.53820  -0.52930
 Alpha  occ. eigenvalues --   -0.52827  -0.52542  -0.52403  -0.51931  -0.51787
 Alpha  occ. eigenvalues --   -0.51411  -0.51330  -0.50864  -0.50837  -0.50504
 Alpha  occ. eigenvalues --   -0.50305  -0.49828  -0.49710  -0.49485  -0.49255
 Alpha  occ. eigenvalues --   -0.48947  -0.48853  -0.48449  -0.48350  -0.48124
 Alpha  occ. eigenvalues --   -0.47952  -0.47293  -0.46864  -0.46827  -0.46616
 Alpha  occ. eigenvalues --   -0.46565  -0.46356  -0.46132  -0.45708  -0.45552
 Alpha  occ. eigenvalues --   -0.45343  -0.45140  -0.45012  -0.44853  -0.44732
 Alpha  occ. eigenvalues --   -0.44389  -0.44119  -0.44081  -0.43924  -0.43888
 Alpha  occ. eigenvalues --   -0.43841  -0.43506  -0.43310  -0.43075  -0.43020
 Alpha  occ. eigenvalues --   -0.42935  -0.42709  -0.42373  -0.42228  -0.42212
 Alpha  occ. eigenvalues --   -0.41969  -0.41889  -0.41662  -0.41641  -0.41442
 Alpha  occ. eigenvalues --   -0.41011  -0.40720  -0.40328  -0.40150  -0.40134
 Alpha  occ. eigenvalues --   -0.39834  -0.39507  -0.39467  -0.39358  -0.38657
 Alpha  occ. eigenvalues --   -0.38457  -0.38227  -0.37945  -0.37717  -0.37572
 Alpha  occ. eigenvalues --   -0.37422  -0.37024  -0.36993  -0.36914  -0.36749
 Alpha  occ. eigenvalues --   -0.36456  -0.36375  -0.35981  -0.35758  -0.35529
 Alpha  occ. eigenvalues --   -0.35343  -0.35035  -0.34999  -0.34109  -0.33277
 Alpha  occ. eigenvalues --   -0.32983  -0.32680  -0.31098  -0.30495  -0.30305
 Alpha  occ. eigenvalues --   -0.29254  -0.28773  -0.28441  -0.26860  -0.22698
 Alpha  occ. eigenvalues --   -0.20435
 Alpha virt. eigenvalues --   -0.05581  -0.02347   0.02246   0.04472   0.04611
 Alpha virt. eigenvalues --    0.06125   0.06695   0.06923   0.07032   0.07422
 Alpha virt. eigenvalues --    0.08635   0.10468   0.11258   0.11421   0.11644

 Mulliken charges:
               1
     1  Mg   0.815630
     2  C   -0.004082
     3  C   -0.201600
     4  C   -0.185685
     5  C   -0.205143
     6  N   -0.636774
     7  C    0.277079
     8  C   -0.165628
     9  C   -0.155434
    10  C    0.374982
    11  C   -0.324178
    12  C   -0.138358
    13  C   -0.277134
    14  C    0.595006
    15  O   -0.497608
    16  O   -0.425749
    17  N   -0.700781
    18  C    0.314771
    19  C    0.003254
    20  C   -0.003283
    21  C    0.276109
    22  C   -0.361885
    23  C   -0.092568
    24  C   -0.223940
    25  N   -0.697822
    26  C    0.280290
    27  C    0.038688
    28  C    0.000850
    29  C    0.364138
    30  C   -0.385452
    31  C   -0.229054
    32  C   -0.301623
    33  N   -0.674839
    34  C    0.238191
    35  C    0.045108
    36  C   -0.039250
    37  C    0.330406
    38  C   -0.373489
    39  C    0.373832
    40  O   -0.456017
    41  C   -0.305593
    42  C    0.599730
    43  O   -0.481060
    44  O   -0.402443
    45  C   -0.088446
    46  C   -0.003298
    47  C   -0.122573
    48  C    0.121465
    49  C   -0.376272
    50  C   -0.220810
    51  C   -0.170412
    52  C   -0.175286
    53  C   -0.055530
    54  C   -0.331854
    55  C   -0.172072
    56  C   -0.195541
    57  C   -0.125037
    58  C   -0.064803
    59  C   -0.287877
    60  C   -0.150830
    61  C   -0.157881
    62  C   -0.147742
    63  C   -0.062452
    64  C   -0.299024
    65  C   -0.291360
    66  H    0.076636
    67  H    0.094759
    68  H    0.092465
    69  H    0.125861
    70  H    0.094056
    71  H    0.110464
    72  H    0.123942
    73  H    0.119092
    74  H    0.130863
    75  H    0.126864
    76  H    0.101001
    77  H    0.132916
    78  H    0.134674
    79  H    0.137384
    80  H    0.112781
    81  H    0.095322
    82  H    0.101972
    83  H    0.107665
    84  H    0.132712
    85  H    0.118016
    86  H    0.107166
    87  H    0.104080
    88  H    0.099831
    89  H    0.081133
    90  H    0.103149
    91  H    0.123025
    92  H    0.108132
    93  H    0.142657
    94  H    0.106397
    95  H    0.148578
    96  H    0.107240
    97  H    0.150620
    98  H    0.141682
    99  H    0.141330
   100  H    0.109830
   101  H    0.086331
   102  H    0.084007
   103  H    0.120189
   104  H    0.126090
   105  H    0.097430
   106  H    0.105791
   107  H    0.093406
   108  H    0.104994
   109  H    0.088390
   110  H    0.096486
   111  H    0.090812
   112  H    0.084796
   113  H    0.112674
   114  H    0.104417
   115  H    0.074929
   116  H    0.095702
   117  H    0.091026
   118  H    0.086819
   119  H    0.096778
   120  H    0.072242
   121  H    0.086222
   122  H    0.095859
   123  H    0.077237
   124  H    0.064924
   125  H    0.071795
   126  H    0.074315
   127  H    0.109227
   128  H    0.059716
   129  H    0.071474
   130  H    0.084858
   131  H    0.048414
   132  H    0.090327
   133  H    0.110017
   134  H    0.105084
   135  H    0.102179
   136  H    0.087496
   137  H    0.099297
 Sum of Mulliken charges =   0.00000

 Dipole moment (field-independent basis, Debye):
    X=              4.4007    Y=              4.8607    Z=              1.5002  Tot=              6.7263
 Quadrupole moment (field-independent basis, Debye-Ang):
   XX=           -355.4531   YY=           -386.4231   ZZ=           -397.5535
   XY=            -29.5457   XZ=              0.2030   YZ=             -7.5249

 Normal termination of Gaussian 09 at Fri Jul  5 04:29:59 2019.
