 Gaussian 16, Revision A.03,
 Gaussian 16:  ES64L-G16RevA.03 25-Dec-2016

 ----------------------------------------------------------------------
 # td=(NStates=1) iop(3/107=0140000000,3/108=0140000000) CAM-B3LYP/6-31
 G(d,p)
 ----------------------------------------------------------------------

 --
 TD
 --
 Symbolic Z-matrix:
 Charge =  0 Multiplicity = 1

                         Standard orientation:
 ---------------------------------------------------------------------
 Center     Atomic      Atomic             Coordinates (Angstroms)
 Number     Number       Type             X           Y           Z
 ---------------------------------------------------------------------
      1         12           0       -7.192235    0.623931    0.193518
      2          6           0       -4.818949   -1.971990    0.536663
      3          6           0       -4.840268    2.805476    1.263682
      4          6           0       -9.339141    3.048312   -0.405821
      5          6           0       -9.502526   -1.707229   -0.855858
      6          7           0       -5.166253    0.401452    0.863219
      7          6           0       -4.319496   -0.705214    0.897959
      8          6           0       -2.987820   -0.404047    1.345252
      9          6           0       -3.146392    1.071343    1.672827
     10          6           0       -4.394529    1.481577    1.228971
     11          6           0       -3.153867    1.141497    3.252257
     12          6           0       -1.955273   -0.533566    0.109186
     13          6           0       -0.450296   -0.466646    0.507409
     14          6           0        0.546505   -0.685348   -0.679547
     15          8           0        0.251459   -0.830964   -1.891762
     16          8           0        1.772792   -0.535967   -0.275847
     17          7           0       -7.073063    2.608161    0.296090
     18          6           0       -6.060043    3.338732    0.784119
     19          6           0       -6.496387    4.811702    0.862409
     20          6           0       -7.801477    4.900154    0.364108
     21          6           0       -8.145542    3.479515    0.024393
     22          6           0       -5.498477    5.790848    1.168172
     23          6           0       -8.550885    6.052026    0.050780
     24          6           0       -8.479550    7.276072    0.586215
     25          7           0       -9.027737    0.580384   -0.517712
     26          6           0       -9.823133    1.759570   -0.665037
     27          6           0      -11.091321    1.438992   -1.132130
     28          6           0      -11.206118    0.092236   -1.214067
     29          6           0       -9.962802   -0.397202   -0.818975
     30          6           0      -12.112579    2.490296   -1.339092
     31          6           0      -12.293311   -0.763553   -1.792078
     32          6           0      -12.110443   -1.235653   -3.268577
     33          7           0       -7.260176   -1.381093   -0.031741
     34          6           0       -8.260604   -2.229833   -0.503909
     35          6           0       -7.781802   -3.626191   -0.486708
     36          6           0       -6.429549   -3.484010   -0.224295
     37          6           0       -6.207635   -2.149816    0.132958
     38          6           0       -8.751537   -4.817784   -0.757636
     39          6           0       -5.309952   -4.294372    0.138186
     40          8           0       -5.136490   -5.512251    0.054833
     41          6           0       -4.131320   -3.323066    0.518100
     42          6           0       -3.559400   -3.751603    1.815504
     43          8           0       -3.854002   -3.329398    2.998184
     44          8           0       -2.592213   -4.664566    1.557015
     45          6           0       -2.173051   -5.320401    2.819320
     46          6           0        2.805829   -0.527891   -1.315026
     47          6           0        4.118344   -0.319552   -0.597727
     48          6           0        5.082627    0.536761   -0.915183
     49          6           0        5.077359    1.409532   -2.144155
     50          6           0        6.409591    0.427585   -0.180646
     51          6           0        7.608887   -0.087285   -1.059862
     52          6           0        8.898160   -0.097983   -0.148184
     53          6           0       10.192906   -0.510718   -0.844170
     54          6           0       10.134433   -1.938543   -1.528432
     55          6           0       11.405308   -0.305831    0.054395
     56          6           0       12.702604   -0.568256   -0.606554
     57          6           0       13.981460   -0.200034    0.290816
     58          6           0       15.322658   -0.284500   -0.480536
     59          6           0       15.693926   -1.751507   -0.799534
     60          6           0       16.419940    0.346105    0.460379
     61          6           0       17.834810    0.470821   -0.082505
     62          6           0       18.793410    1.273441    0.777371
     63          6           0       20.264427    1.402396    0.203114
     64          6           0       20.292819    2.139102   -1.067516
     65          6           0       21.175066    1.997602    1.228313
     66          1           0       -4.104526    3.536814    1.512027
     67          1           0      -10.072550    3.873040   -0.352768
     68          1           0      -10.288090   -2.405614   -1.067036
     69          1           0       -2.844531   -1.038087    2.243806
     70          1           0       -2.345857    1.529334    1.373294
     71          1           0       -2.351147    0.670204    3.828032
     72          1           0       -3.371623    2.167263    3.564617
     73          1           0       -3.939604    0.539736    3.925248
     74          1           0       -2.173246   -1.553793   -0.443267
     75          1           0       -2.015229    0.325093   -0.585349
     76          1           0       -0.155541    0.520373    0.751837
     77          1           0       -0.176244   -1.133794    1.177447
     78          1           0       -5.577008    6.759632    0.574391
     79          1           0       -5.506054    6.077350    2.284447
     80          1           0       -4.369733    5.675291    0.931739
     81          1           0       -9.339365    5.595497   -0.609812
     82          1           0       -9.109129    8.231993    0.154738
     83          1           0       -7.770724    7.412666    1.151770
     84          1           0      -11.705165    3.127018   -2.163987
     85          1           0      -13.065162    2.008393   -1.550771
     86          1           0      -12.265687    3.164470   -0.416962
     87          1           0      -12.476787   -1.698305   -1.284215
     88          1           0      -13.258944   -0.280352   -1.531279
     89          1           0      -13.076826   -1.669607   -3.590500
     90          1           0      -12.034640   -0.457604   -4.021759
     91          1           0      -11.208367   -1.937974   -3.298540
     92          1           0       -9.372059   -4.823398   -1.848152
     93          1           0       -8.204617   -5.725004   -0.813676
     94          1           0       -9.475346   -4.920606    0.020428
     95          1           0       -3.422528   -3.295732   -0.097085
     96          1           0       -1.447149   -4.594257    3.354800
     97          1           0       -3.011876   -5.637378    3.307659
     98          1           0       -1.421821   -6.114424    2.600238
     99          1           0        2.805080   -1.527374   -1.644424
    100          1           0        2.550919    0.012905   -2.229958
    101          1           0        4.264022   -1.073526    0.161879
    102          1           0        4.179489    1.578086   -2.639537
    103          1           0        5.350910    2.370610   -1.828320
    104          1           0        5.881861    1.091226   -2.807737
    105          1           0        6.675152    1.458313    0.124798
    106          1           0        6.198869   -0.285885    0.636172
    107          1           0        7.328414   -1.123513   -1.419069
    108          1           0        7.562849    0.491917   -1.999006
    109          1           0        8.977410    0.941437    0.223007
    110          1           0        8.888911   -0.850585    0.775391
    111          1           0       10.346426    0.358501   -1.542588
    112          1           0        9.180545   -1.798024   -2.172056
    113          1           0       10.926895   -2.050994   -2.015325
    114          1           0       10.117307   -2.678954   -0.721368
    115          1           0       11.319514    0.644784    0.543590
    116          1           0       11.468760   -0.983295    0.959482
    117          1           0       12.885729   -1.607660   -0.976239
    118          1           0       12.841078    0.204946   -1.514143
    119          1           0       13.721328    0.737760    0.422990
    120          1           0       14.002418   -0.620715    1.337330
    121          1           0       15.301407    0.444731   -1.296688
    122          1           0       15.746950   -2.390094    0.101928
    123          1           0       14.902526   -2.373208   -1.254668
    124          1           0       16.502134   -1.838511   -1.438880
    125          1           0       16.130451    1.332254    0.806669
    126          1           0       16.509643   -0.019267    1.412442
    127          1           0       18.259298   -0.700194   -0.228170
    128          1           0       17.813845    0.942573   -0.895535
    129          1           0       18.380227    2.270262    1.154209
    130          1           0       19.162332    0.404262    1.621733
    131          1           0       20.618772    0.449807    0.009102
    132          1           0       20.028252    3.178489   -0.874246
    133          1           0       21.250574    1.894402   -1.638905
    134          1           0       19.630119    1.852621   -1.845771
    135          1           0       21.027229    1.251255    1.972164
    136          1           0       22.279175    2.004185    0.832269
    137          1           0       20.711858    2.981468    1.600955
 ---------------------------------------------------------------------

 SCF Done:  E(RCAM-B3LYP) =  -2933.52870802     A.U. after   16 cycles

 Excitation energies and oscillator strengths:

 Excited State   1:      Singlet-A      2.1013 eV  590.04 nm  f=0.2172  <S**2>=0.000
     240 -> 243        0.26654
     241 -> 242        0.64960
 This state for optimization and/or second-order correction.
 Total Energy, E(TD-HF/TD-DFT) =  -2933.45148783
 Copying the excited state density for this state as the 1-particle RhoCI density.

 The electronic state is 1-A.
 Alpha  occ. eigenvalues --  -46.78616 -19.22637 -19.22607 -19.15973 -19.15519
 Alpha  occ. eigenvalues --  -19.15354 -14.36989 -14.35544 -14.34631 -14.34180
 Alpha  occ. eigenvalues --  -10.34445 -10.34120 -10.29897 -10.27161 -10.26931
 Alpha  occ. eigenvalues --  -10.26003 -10.25827 -10.25402 -10.24975 -10.24467
 Alpha  occ. eigenvalues --  -10.24283 -10.24065 -10.23972 -10.23511 -10.23354
 Alpha  occ. eigenvalues --  -10.23123 -10.23087 -10.23084 -10.22938 -10.22908
 Alpha  occ. eigenvalues --  -10.22838 -10.22788 -10.22701 -10.22552 -10.22548
 Alpha  occ. eigenvalues --  -10.22349 -10.22295 -10.22193 -10.22177 -10.22157
 Alpha  occ. eigenvalues --  -10.22115 -10.22091 -10.22035 -10.21819 -10.21808
 Alpha  occ. eigenvalues --  -10.21743 -10.21742 -10.21736 -10.21615 -10.21531
 Alpha  occ. eigenvalues --  -10.21412 -10.21024 -10.20902 -10.20819 -10.20698
 Alpha  occ. eigenvalues --  -10.20509 -10.20463 -10.20460 -10.20141 -10.20114
 Alpha  occ. eigenvalues --  -10.19879 -10.19836 -10.19765 -10.19239 -10.19104
 Alpha  occ. eigenvalues --   -3.07486  -1.82405  -1.81971  -1.81904  -1.13967
 Alpha  occ. eigenvalues --   -1.11502  -1.04696  -1.01638  -1.00557  -0.99625
 Alpha  occ. eigenvalues --   -0.98781  -0.97772  -0.96654  -0.87528  -0.86385
 Alpha  occ. eigenvalues --   -0.85506  -0.85336  -0.84978  -0.84795  -0.84002
 Alpha  occ. eigenvalues --   -0.83358  -0.83336  -0.82892  -0.81673  -0.81476
 Alpha  occ. eigenvalues --   -0.80387  -0.79821  -0.79187  -0.78698  -0.78352
 Alpha  occ. eigenvalues --   -0.77159  -0.76363  -0.75748  -0.75554  -0.73558
 Alpha  occ. eigenvalues --   -0.73249  -0.72653  -0.72455  -0.71777  -0.71577
 Alpha  occ. eigenvalues --   -0.71451  -0.70467  -0.70136  -0.69096  -0.67953
 Alpha  occ. eigenvalues --   -0.67708  -0.66230  -0.65645  -0.65052  -0.64326
 Alpha  occ. eigenvalues --   -0.64068  -0.62459  -0.62171  -0.60667  -0.60458
 Alpha  occ. eigenvalues --   -0.59844  -0.59789  -0.59649  -0.58130  -0.57934
 Alpha  occ. eigenvalues --   -0.57815  -0.56921  -0.56771  -0.56172  -0.55294
 Alpha  occ. eigenvalues --   -0.54752  -0.54249  -0.53833  -0.53443  -0.53285
 Alpha  occ. eigenvalues --   -0.52062  -0.51915  -0.51715  -0.51420  -0.51258
 Alpha  occ. eigenvalues --   -0.50908  -0.50529  -0.50357  -0.49837  -0.49345
 Alpha  occ. eigenvalues --   -0.49060  -0.48902  -0.48493  -0.48430  -0.48129
 Alpha  occ. eigenvalues --   -0.47649  -0.47551  -0.47413  -0.47149  -0.46852
 Alpha  occ. eigenvalues --   -0.46827  -0.46373  -0.46259  -0.46089  -0.45906
 Alpha  occ. eigenvalues --   -0.45601  -0.45342  -0.45200  -0.45122  -0.44933
 Alpha  occ. eigenvalues --   -0.44586  -0.44375  -0.44076  -0.43887  -0.43697
 Alpha  occ. eigenvalues --   -0.43405  -0.43121  -0.42762  -0.42607  -0.42224
 Alpha  occ. eigenvalues --   -0.42065  -0.41977  -0.41817  -0.41697  -0.41421
 Alpha  occ. eigenvalues --   -0.41278  -0.41186  -0.40795  -0.40672  -0.40576
 Alpha  occ. eigenvalues --   -0.40436  -0.40314  -0.40188  -0.39888  -0.39860
 Alpha  occ. eigenvalues --   -0.39707  -0.39697  -0.39571  -0.39238  -0.39124
 Alpha  occ. eigenvalues --   -0.38925  -0.38776  -0.38602  -0.38512  -0.38417
 Alpha  occ. eigenvalues --   -0.38024  -0.37679  -0.37537  -0.37326  -0.37179
 Alpha  occ. eigenvalues --   -0.36899  -0.36828  -0.36628  -0.36451  -0.36130
 Alpha  occ. eigenvalues --   -0.35955  -0.35878  -0.35599  -0.35051  -0.34993
 Alpha  occ. eigenvalues --   -0.34540  -0.34526  -0.34234  -0.33942  -0.33814
 Alpha  occ. eigenvalues --   -0.33510  -0.33320  -0.33295  -0.32850  -0.32588
 Alpha  occ. eigenvalues --   -0.32429  -0.32161  -0.31351  -0.30823  -0.30410
 Alpha  occ. eigenvalues --   -0.29489  -0.29210  -0.29155  -0.27930  -0.27295
 Alpha  occ. eigenvalues --   -0.27198  -0.26475  -0.25669  -0.24940  -0.21283
 Alpha  occ. eigenvalues --   -0.19957
 Alpha virt. eigenvalues --   -0.06541  -0.03969  -0.00025   0.01677   0.03108
 Alpha virt. eigenvalues --    0.04133   0.04970   0.05113   0.05297   0.05971
 Alpha virt. eigenvalues --    0.06811   0.08859   0.09080   0.09783   0.10483

 Mulliken charges:
               1
     1  Mg   0.803451
     2  C    0.022508
     3  C   -0.204583
     4  C   -0.206990
     5  C   -0.198664
     6  N   -0.632515
     7  C    0.316015
     8  C   -0.170523
     9  C   -0.129954
    10  C    0.402659
    11  C   -0.339412
    12  C   -0.184277
    13  C   -0.249235
    14  C    0.562996
    15  O   -0.509776
    16  O   -0.436960
    17  N   -0.709881
    18  C    0.322375
    19  C    0.029263
    20  C    0.042395
    21  C    0.297235
    22  C   -0.417475
    23  C   -0.039704
    24  C   -0.225068
    25  N   -0.702634
    26  C    0.302154
    27  C    0.032830
    28  C    0.064751
    29  C    0.291436
    30  C   -0.373445
    31  C   -0.260977
    32  C   -0.304270
    33  N   -0.717124
    34  C    0.261013
    35  C    0.048864
    36  C   -0.018882
    37  C    0.357582
    38  C   -0.373835
    39  C    0.363706
    40  O   -0.477877
    41  C   -0.251443
    42  C    0.608921
    43  O   -0.521430
    44  O   -0.444078
    45  C   -0.077086
    46  C   -0.001743
    47  C   -0.140498
    48  C    0.127306
    49  C   -0.371504
    50  C   -0.226572
    51  C   -0.191941
    52  C   -0.153940
    53  C   -0.069229
    54  C   -0.295623
    55  C   -0.165360
    56  C   -0.183536
    57  C   -0.179668
    58  C   -0.047776
    59  C   -0.316576
    60  C   -0.186541
    61  C   -0.139634
    62  C   -0.174162
    63  C   -0.060408
    64  C   -0.301889
    65  C   -0.278524
    66  H    0.067716
    67  H    0.082465
    68  H    0.074124
    69  H    0.140592
    70  H    0.098428
    71  H    0.114547
    72  H    0.109547
    73  H    0.111457
    74  H    0.111368
    75  H    0.123222
    76  H    0.137978
    77  H    0.137937
    78  H    0.115157
    79  H    0.119615
    80  H    0.116940
    81  H    0.074406
    82  H    0.095719
    83  H    0.085359
    84  H    0.122449
    85  H    0.108269
    86  H    0.114752
    87  H    0.113659
    88  H    0.094438
    89  H    0.104377
    90  H    0.114632
    91  H    0.108858
    92  H    0.093765
    93  H    0.148859
    94  H    0.139038
    95  H    0.145557
    96  H    0.115553
    97  H    0.155594
    98  H    0.120461
    99  H    0.132847
   100  H    0.136892
   101  H    0.088885
   102  H    0.117672
   103  H    0.119600
   104  H    0.123266
   105  H    0.096048
   106  H    0.102933
   107  H    0.098240
   108  H    0.095691
   109  H    0.090249
   110  H    0.077304
   111  H    0.074476
   112  H    0.094242
   113  H    0.121702
   114  H    0.101893
   115  H    0.088812
   116  H    0.073603
   117  H    0.094854
   118  H    0.061451
   119  H    0.104562
   120  H    0.080214
   121  H    0.086964
   122  H    0.103614
   123  H    0.091331
   124  H    0.114629
   125  H    0.074560
   126  H    0.095348
   127  H    0.058457
   128  H    0.099642
   129  H    0.083786
   130  H    0.053546
   131  H    0.091951
   132  H    0.093128
   133  H    0.083172
   134  H    0.100898
   135  H    0.102833
   136  H    0.089906
   137  H    0.089726
 Sum of Mulliken charges =  -0.00000

 Dipole moment (field-independent basis, Debye):
    X=              2.6697    Y=              4.3173    Z=              0.4888  Tot=              5.0995
 Quadrupole moment (field-independent basis, Debye-Ang):
   XX=           -353.9044   YY=           -390.0044   ZZ=           -400.4804
   XY=            -19.7619   XZ=              3.6108   YZ=             -3.7419

 Normal termination of Gaussian 16 at Mon Sep 16 03:48:59 2019.
