 Gaussian 09, Revision D.01,
 Gaussian 09:  ES64L-G09RevD.01 24-Apr-2013

 -------------------------------------
 # td=(NStates=1) CAM-B3LYP/6-31G(d,p)
 -------------------------------------

 --
 TD
 --
 Symbolic Z-matrix:
 Charge =  0 Multiplicity = 1

                         Standard orientation:
 ---------------------------------------------------------------------
 Center     Atomic      Atomic             Coordinates (Angstroms)
 Number     Number       Type             X           Y           Z
 ---------------------------------------------------------------------
      1         12           0       -7.130005    0.583396    0.090553
      2          6           0       -4.902197   -1.936337    0.443719
      3          6           0       -4.779468    2.816290    1.093783
      4          6           0       -9.427340    3.074695   -0.336396
      5          6           0       -9.641927   -1.859206   -0.779993
      6          7           0       -5.026362    0.410252    0.611035
      7          6           0       -4.259719   -0.703950    0.729625
      8          6           0       -2.919588   -0.425795    1.087516
      9          6           0       -2.941708    1.180701    1.515691
     10          6           0       -4.402401    1.479583    0.998021
     11          6           0       -2.802418    1.219341    3.042535
     12          6           0       -1.904812   -0.714200    0.033847
     13          6           0       -0.440487   -0.389722    0.372025
     14          6           0        0.526248   -0.653845   -0.721570
     15          8           0        0.259356   -1.098684   -1.827112
     16          8           0        1.780919   -0.522606   -0.228428
     17          7           0       -7.090423    2.511550    0.336343
     18          6           0       -6.094693    3.312540    0.732045
     19          6           0       -6.402118    4.756345    0.729428
     20          6           0       -7.822459    4.786834    0.392854
     21          6           0       -8.188808    3.387941    0.083200
     22          6           0       -5.549612    5.872842    1.116829
     23          6           0       -8.641156    5.961586    0.134536
     24          6           0       -8.435376    7.161838    0.759722
     25          7           0       -9.154445    0.674517   -0.474628
     26          6           0       -9.940145    1.725086   -0.679111
     27          6           0      -11.331319    1.445078   -0.907207
     28          6           0      -11.342819    0.066521   -1.163706
     29          6           0      -10.042532   -0.483713   -0.768194
     30          6           0      -12.481448    2.377476   -1.273868
     31          6           0      -12.529586   -0.693206   -1.670503
     32          6           0      -12.443139   -0.909086   -3.109086
     33          7           0       -7.256938   -1.351287   -0.188603
     34          6           0       -8.356399   -2.245359   -0.433496
     35          6           0       -7.862525   -3.644442   -0.385247
     36          6           0       -6.508123   -3.582849   -0.055878
     37          6           0       -6.182910   -2.169805    0.050765
     38          6           0       -8.709319   -4.862098   -0.624608
     39          6           0       -5.355649   -4.433974    0.291853
     40          8           0       -5.198064   -5.588974    0.296000
     41          6           0       -4.148319   -3.300314    0.561333
     42          6           0       -3.485245   -3.520465    1.814022
     43          8           0       -3.585939   -2.965399    2.875689
     44          8           0       -2.690226   -4.624645    1.648284
     45          6           0       -1.973828   -5.092803    2.893734
     46          6           0        2.875349   -0.681055   -1.200666
     47          6           0        4.179386   -0.449242   -0.535459
     48          6           0        5.101337    0.358231   -1.048256
     49          6           0        5.008862    1.096126   -2.274989
     50          6           0        6.305843    0.495477   -0.192899
     51          6           0        7.678161    0.038891   -0.973146
     52          6           0        8.907474   -0.098656   -0.093645
     53          6           0       10.211819   -0.501560   -0.860302
     54          6           0       10.251339   -2.089908   -1.253534
     55          6           0       11.492923   -0.168446   -0.004176
     56          6           0       12.943728   -0.498087   -0.629707
     57          6           0       14.010767   -0.021865    0.253908
     58          6           0       15.360715   -0.094943   -0.572011
     59          6           0       15.697263   -1.634935   -1.049197
     60          6           0       16.454050    0.439216    0.549879
     61          6           0       17.800183    0.544701   -0.080944
     62          6           0       18.797886    1.245401    0.893814
     63          6           0       20.328595    1.272216    0.357158
     64          6           0       20.301881    1.931292   -1.144783
     65          6           0       21.215969    1.968497    1.332941
     66          1           0       -4.001251    3.788666    1.364665
     67          1           0      -10.082180    3.920985   -0.202235
     68          1           0      -10.435209   -2.655989   -0.883369
     69          1           0       -2.691311   -1.076670    2.055668
     70          1           0       -2.194570    1.637038    0.983608
     71          1           0       -1.821514    1.037375    3.531042
     72          1           0       -3.132674    2.305662    3.464022
     73          1           0       -3.451271    0.527818    3.562877
     74          1           0       -2.141558   -1.721732   -0.197242
     75          1           0       -1.978863    0.019729   -0.680074
     76          1           0       -0.237908    0.628195    0.689444
     77          1           0       -0.201246   -1.124017    1.215562
     78          1           0       -5.852981    6.628210    0.349220
     79          1           0       -5.457099    6.204089    2.160602
     80          1           0       -4.601602    5.649268    0.676715
     81          1           0       -9.159401    5.720857   -0.649427
     82          1           0       -9.076508    8.132461    0.313292
     83          1           0       -7.485598    7.353530    1.344313
     84          1           0      -12.134896    3.072783   -2.001703
     85          1           0      -13.372483    1.820665   -1.593364
     86          1           0      -12.657652    3.088736   -0.342018
     87          1           0      -12.519384   -1.649078   -0.973399
     88          1           0      -13.529853   -0.196060   -1.358164
     89          1           0      -13.279452   -1.371322   -3.635168
     90          1           0      -12.528508   -0.024647   -3.521796
     91          1           0      -11.422354   -1.271412   -3.568421
     92          1           0       -9.170414   -4.777739   -1.571805
     93          1           0       -8.147999   -5.760799   -0.604918
     94          1           0       -9.563624   -4.847719    0.232751
     95          1           0       -3.408533   -3.460180   -0.164460
     96          1           0       -1.406795   -4.284810    3.119825
     97          1           0       -2.884939   -5.424380    3.470920
     98          1           0       -1.208943   -5.820577    2.419200
     99          1           0        2.606432   -1.709023   -1.603296
    100          1           0        2.502044    0.088053   -1.936519
    101          1           0        4.405012   -1.083228    0.328714
    102          1           0        3.994470    1.027668   -2.828391
    103          1           0        5.324164    2.158525   -2.240338
    104          1           0        5.771794    0.755231   -3.105249
    105          1           0        6.478823    1.562824    0.187723
    106          1           0        6.102739   -0.019908    0.729210
    107          1           0        7.382981   -1.068035   -1.489469
    108          1           0        7.947035    0.637234   -1.987002
    109          1           0        9.113470    0.811162    0.304699
    110          1           0        8.742288   -0.676843    0.753792
    111          1           0       10.268749    0.018797   -1.963099
    112          1           0        9.407004   -2.374608   -1.738242
    113          1           0       11.055540   -2.361543   -2.007894
    114          1           0       10.328476   -2.782193   -0.330676
    115          1           0       11.492380    0.886102    0.245541
    116          1           0       11.511288   -0.847308    0.928162
    117          1           0       13.206468   -1.533223   -0.669918
    118          1           0       13.109555   -0.108414   -1.638964
    119          1           0       13.985962    0.937343    0.493485
    120          1           0       13.831912   -0.649843    1.110673
    121          1           0       15.244970    0.560819   -1.298159
    122          1           0       15.607430   -2.456303   -0.276942
    123          1           0       15.082124   -2.009867   -1.951073
    124          1           0       16.693123   -1.657289   -1.438957
    125          1           0       16.047431    1.385007    0.971370
    126          1           0       16.486213   -0.261659    1.428762
    127          1           0       18.270840   -0.387835   -0.377838
    128          1           0       17.701775    1.034481   -1.007734
    129          1           0       18.576502    2.390788    0.832853
    130          1           0       18.576372    0.911173    1.913417
    131          1           0       20.695729    0.338120    0.447790
    132          1           0       20.064332    2.986022   -0.980951
    133          1           0       21.407920    1.977865   -1.506301
    134          1           0       19.511524    1.591009   -1.808619
    135          1           0       20.985242    1.409846    2.243484
    136          1           0       22.334741    2.094921    0.983628
    137          1           0       20.911494    3.112406    1.431836
 ---------------------------------------------------------------------

 SCF Done:  E(RCAM-B3LYP) =  -2932.69688986     A.U. after   17 cycles

 Excitation energies and oscillator strengths:

 Excited State   1:      Singlet-A      2.1409 eV  579.12 nm  f=0.1752  <S**2>=0.000
     240 -> 242       -0.16712
     240 -> 243        0.26990
     241 -> 242        0.59479
     241 -> 243        0.18860
 This state for optimization and/or second-order correction.
 Total Energy, E(TD-HF/TD-KS) =  -2932.61821354
 Copying the excited state density for this state as the 1-particle RhoCI density.

 The electronic state is 1-A.
 Alpha  occ. eigenvalues --  -46.83485 -19.24925 -19.23932 -19.21636 -19.20521
 Alpha  occ. eigenvalues --  -19.20080 -14.41247 -14.39726 -14.39529 -14.39276
 Alpha  occ. eigenvalues --  -10.38544 -10.37628 -10.35897 -10.31857 -10.31286
 Alpha  occ. eigenvalues --  -10.30753 -10.30468 -10.30463 -10.29303 -10.29106
 Alpha  occ. eigenvalues --  -10.29054 -10.28887 -10.28882 -10.28836 -10.28809
 Alpha  occ. eigenvalues --  -10.28775 -10.28343 -10.28247 -10.27809 -10.27597
 Alpha  occ. eigenvalues --  -10.27498 -10.27385 -10.27260 -10.27233 -10.27214
 Alpha  occ. eigenvalues --  -10.27081 -10.26944 -10.26918 -10.26870 -10.26770
 Alpha  occ. eigenvalues --  -10.26682 -10.26479 -10.26444 -10.26411 -10.26321
 Alpha  occ. eigenvalues --  -10.26286 -10.26157 -10.26150 -10.26064 -10.25857
 Alpha  occ. eigenvalues --  -10.25791 -10.25709 -10.25677 -10.25648 -10.25564
 Alpha  occ. eigenvalues --  -10.25536 -10.25499 -10.25391 -10.25223 -10.24636
 Alpha  occ. eigenvalues --  -10.24435 -10.24093 -10.24014 -10.23785 -10.22637
 Alpha  occ. eigenvalues --   -3.12741  -1.87420  -1.86987  -1.86948  -1.16957
 Alpha  occ. eigenvalues --   -1.16370  -1.14496  -1.08245  -1.07541  -1.05550
 Alpha  occ. eigenvalues --   -1.02762  -1.01839  -1.00593  -0.92249  -0.91866
 Alpha  occ. eigenvalues --   -0.90424  -0.90003  -0.89855  -0.88982  -0.88400
 Alpha  occ. eigenvalues --   -0.87713  -0.87472  -0.87087  -0.86202  -0.85461
 Alpha  occ. eigenvalues --   -0.84853  -0.84493  -0.83491  -0.83263  -0.82448
 Alpha  occ. eigenvalues --   -0.81389  -0.80739  -0.79638  -0.78887  -0.78361
 Alpha  occ. eigenvalues --   -0.77814  -0.77001  -0.76667  -0.75730  -0.75194
 Alpha  occ. eigenvalues --   -0.74828  -0.74659  -0.73663  -0.72960  -0.71518
 Alpha  occ. eigenvalues --   -0.71249  -0.70271  -0.69844  -0.68946  -0.68511
 Alpha  occ. eigenvalues --   -0.67044  -0.66283  -0.65609  -0.65068  -0.64425
 Alpha  occ. eigenvalues --   -0.64316  -0.63004  -0.62527  -0.62268  -0.61697
 Alpha  occ. eigenvalues --   -0.60590  -0.60377  -0.59765  -0.59340  -0.59001
 Alpha  occ. eigenvalues --   -0.57903  -0.57504  -0.57383  -0.56957  -0.56833
 Alpha  occ. eigenvalues --   -0.55684  -0.55419  -0.55226  -0.54840  -0.54694
 Alpha  occ. eigenvalues --   -0.54061  -0.53936  -0.53178  -0.53024  -0.52646
 Alpha  occ. eigenvalues --   -0.52385  -0.52175  -0.51819  -0.51816  -0.51648
 Alpha  occ. eigenvalues --   -0.51245  -0.50925  -0.50876  -0.50766  -0.50637
 Alpha  occ. eigenvalues --   -0.50294  -0.50051  -0.49922  -0.49671  -0.49272
 Alpha  occ. eigenvalues --   -0.49062  -0.48763  -0.48599  -0.48220  -0.48062
 Alpha  occ. eigenvalues --   -0.47864  -0.47619  -0.47353  -0.47232  -0.47077
 Alpha  occ. eigenvalues --   -0.46905  -0.46794  -0.46194  -0.46115  -0.46031
 Alpha  occ. eigenvalues --   -0.45885  -0.45570  -0.45449  -0.45245  -0.45135
 Alpha  occ. eigenvalues --   -0.44941  -0.44653  -0.44505  -0.44425  -0.44046
 Alpha  occ. eigenvalues --   -0.43843  -0.43717  -0.43536  -0.43232  -0.42984
 Alpha  occ. eigenvalues --   -0.42913  -0.42723  -0.42613  -0.42386  -0.42340
 Alpha  occ. eigenvalues --   -0.42296  -0.42212  -0.41832  -0.41727  -0.41532
 Alpha  occ. eigenvalues --   -0.41252  -0.41017  -0.40748  -0.40646  -0.40495
 Alpha  occ. eigenvalues --   -0.39957  -0.39907  -0.39591  -0.39444  -0.39393
 Alpha  occ. eigenvalues --   -0.38913  -0.38032  -0.37844  -0.37812  -0.37530
 Alpha  occ. eigenvalues --   -0.37409  -0.37199  -0.36976  -0.36842  -0.36722
 Alpha  occ. eigenvalues --   -0.36280  -0.36153  -0.35882  -0.35342  -0.35271
 Alpha  occ. eigenvalues --   -0.35170  -0.34830  -0.34559  -0.33470  -0.33147
 Alpha  occ. eigenvalues --   -0.33097  -0.32241  -0.31849  -0.30568  -0.29888
 Alpha  occ. eigenvalues --   -0.29854  -0.29609  -0.27744  -0.27035  -0.23037
 Alpha  occ. eigenvalues --   -0.20757
 Alpha virt. eigenvalues --   -0.05363  -0.03655   0.01300   0.03685   0.05180
 Alpha virt. eigenvalues --    0.06240   0.06435   0.06812   0.06984   0.07621
 Alpha virt. eigenvalues --    0.08361   0.11087   0.11494   0.11766   0.12130

 Mulliken charges:
               1
     1  Mg   0.817198
     2  C    0.022665
     3  C   -0.210001
     4  C   -0.198721
     5  C   -0.170316
     6  N   -0.628930
     7  C    0.373592
     8  C   -0.233898
     9  C   -0.127950
    10  C    0.343279
    11  C   -0.309514
    12  C   -0.136996
    13  C   -0.280956
    14  C    0.608283
    15  O   -0.484540
    16  O   -0.501900
    17  N   -0.724618
    18  C    0.340372
    19  C    0.008324
    20  C   -0.017911
    21  C    0.315150
    22  C   -0.392253
    23  C   -0.037818
    24  C   -0.255632
    25  N   -0.645662
    26  C    0.291773
    27  C    0.016263
    28  C    0.009264
    29  C    0.228689
    30  C   -0.360576
    31  C   -0.238394
    32  C   -0.302968
    33  N   -0.739015
    34  C    0.269823
    35  C    0.001300
    36  C   -0.001212
    37  C    0.316893
    38  C   -0.367516
    39  C    0.378758
    40  O   -0.400922
    41  C   -0.345501
    42  C    0.618515
    43  O   -0.488434
    44  O   -0.505720
    45  C   -0.074389
    46  C    0.009593
    47  C   -0.143677
    48  C    0.195460
    49  C   -0.386426
    50  C   -0.238421
    51  C   -0.174784
    52  C   -0.158837
    53  C   -0.060672
    54  C   -0.316353
    55  C   -0.172951
    56  C   -0.196720
    57  C   -0.158928
    58  C   -0.068952
    59  C   -0.334564
    60  C   -0.187507
    61  C   -0.171461
    62  C   -0.185867
    63  C   -0.059323
    64  C   -0.324520
    65  C   -0.291527
    66  H    0.075965
    67  H    0.093048
    68  H    0.110524
    69  H    0.132367
    70  H    0.100358
    71  H    0.110850
    72  H    0.078601
    73  H    0.135864
    74  H    0.114822
    75  H    0.118322
    76  H    0.136186
    77  H    0.131094
    78  H    0.126710
    79  H    0.139172
    80  H    0.120230
    81  H    0.102707
    82  H    0.089187
    83  H    0.119652
    84  H    0.130568
    85  H    0.114215
    86  H    0.099703
    87  H    0.082844
    88  H    0.098099
    89  H    0.099459
    90  H    0.127340
    91  H    0.103807
    92  H    0.135600
    93  H    0.146589
    94  H    0.111316
    95  H    0.168740
    96  H    0.142392
    97  H    0.152898
    98  H    0.124832
    99  H    0.130701
   100  H    0.119441
   101  H    0.104080
   102  H    0.109747
   103  H    0.121837
   104  H    0.116640
   105  H    0.094820
   106  H    0.107560
   107  H    0.063811
   108  H    0.082778
   109  H    0.103574
   110  H    0.103769
   111  H    0.061981
   112  H    0.110523
   113  H    0.097319
   114  H    0.084820
   115  H    0.091896
   116  H    0.080991
   117  H    0.107224
   118  H    0.076664
   119  H    0.089192
   120  H    0.088257
   121  H    0.100092
   122  H    0.105514
   123  H    0.094463
   124  H    0.107776
   125  H    0.091481
   126  H    0.089715
   127  H    0.098796
   128  H    0.093915
   129  H    0.074138
   130  H    0.088591
   131  H    0.100862
   132  H    0.105257
   133  H    0.092711
   134  H    0.112790
   135  H    0.106705
   136  H    0.088468
   137  H    0.075589
 Sum of Mulliken charges =   0.00000

 Dipole moment (field-independent basis, Debye):
    X=              2.6233    Y=              4.4882    Z=             -0.1234  Tot=              5.2001
 Quadrupole moment (field-independent basis, Debye-Ang):
   XX=           -352.7536   YY=           -386.5368   ZZ=           -398.3309
   XY=            -18.3589   XZ=             13.2984   YZ=             -6.9135

 Normal termination of Gaussian 09 at Wed Jul  3 00:16:21 2019.
