 Gaussian 16, Revision A.03,
 Gaussian 16:  ES64L-G16RevA.03 25-Dec-2016

 ----------------------------------------------------------------------
 # td=(NStates=1) iop(3/107=0140000000,3/108=0140000000) CAM-B3LYP/6-31
 G(d,p)
 ----------------------------------------------------------------------

 --
 TD
 --
 Symbolic Z-matrix:
 Charge =  0 Multiplicity = 1

                         Standard orientation:
 ---------------------------------------------------------------------
 Center     Atomic      Atomic             Coordinates (Angstroms)
 Number     Number       Type             X           Y           Z
 ---------------------------------------------------------------------
      1         12           0       -7.159353    0.615524   -0.034758
      2          6           0       -4.928338   -1.940501    0.494726
      3          6           0       -4.756030    2.812724    1.057649
      4          6           0       -9.336809    3.257393   -0.379688
      5          6           0       -9.533688   -1.620179   -0.957991
      6          7           0       -5.156543    0.472723    0.764118
      7          6           0       -4.436295   -0.644905    0.786894
      8          6           0       -3.040236   -0.449733    1.260636
      9          6           0       -3.066686    1.031977    1.578751
     10          6           0       -4.387385    1.486525    1.114180
     11          6           0       -2.964140    1.290668    3.097313
     12          6           0       -1.934182   -0.687004    0.124406
     13          6           0       -0.529577   -0.667289    0.715118
     14          6           0        0.544369   -0.757073   -0.391702
     15          8           0        0.270967   -1.232235   -1.567326
     16          8           0        1.797044   -0.457136   -0.026022
     17          7           0       -7.065043    2.635715    0.298146
     18          6           0       -6.038299    3.433035    0.739878
     19          6           0       -6.369661    4.778136    0.787941
     20          6           0       -7.658873    4.872561    0.299901
     21          6           0       -8.081137    3.510105    0.054164
     22          6           0       -5.494493    5.956159    1.187277
     23          6           0       -8.539176    6.064466    0.204381
     24          6           0       -8.466054    7.165040    0.932161
     25          7           0       -9.066370    0.682635   -0.582156
     26          6           0       -9.766945    1.917174   -0.802869
     27          6           0      -11.118357    1.563427   -1.188491
     28          6           0      -11.114037    0.221755   -1.373973
     29          6           0       -9.836946   -0.363916   -0.965525
     30          6           0      -12.246325    2.581649   -1.432442
     31          6           0      -12.234628   -0.709796   -1.798101
     32          6           0      -12.116013   -1.318172   -3.248499
     33          7           0       -7.164664   -1.438882   -0.239310
     34          6           0       -8.276484   -2.152004   -0.548644
     35          6           0       -7.838165   -3.571668   -0.545286
     36          6           0       -6.530308   -3.573125   -0.227460
     37          6           0       -6.173791   -2.293174   -0.057148
     38          6           0       -8.769106   -4.695298   -0.937926
     39          6           0       -5.446923   -4.417131    0.136229
     40          8           0       -5.254814   -5.573803    0.128379
     41          6           0       -4.214352   -3.360884    0.563632
     42          6           0       -3.744592   -3.682032    1.894250
     43          8           0       -4.053661   -3.197540    3.016465
     44          8           0       -2.794148   -4.681143    1.811412
     45          6           0       -2.248401   -5.362859    3.014555
     46          6           0        2.891020   -0.672903   -1.009539
     47          6           0        4.194093   -0.422717   -0.310259
     48          6           0        5.188828    0.485422   -0.736818
     49          6           0        5.039342    1.259398   -2.065784
     50          6           0        6.479880    0.392516   -0.041928
     51          6           0        7.658793   -0.207370   -0.851765
     52          6           0        8.896590   -0.140781   -0.028996
     53          6           0       10.187458   -0.646300   -0.925840
     54          6           0       10.133470   -2.118406   -1.383754
     55          6           0       11.399835   -0.407734    0.043103
     56          6           0       12.772968   -0.370014   -0.628780
     57          6           0       13.946878   -0.005645    0.226905
     58          6           0       15.261512   -0.239351   -0.430049
     59          6           0       15.691245   -1.654194   -0.740058
     60          6           0       16.457169    0.358224    0.416095
     61          6           0       17.834799    0.524122   -0.321383
     62          6           0       18.771102    1.318429    0.510666
     63          6           0       20.309168    1.422116    0.071360
     64          6           0       20.394521    2.174481   -1.280346
     65          6           0       21.194957    2.022408    1.067361
     66          1           0       -4.074881    3.589448    1.479119
     67          1           0      -10.088664    3.908468   -0.608025
     68          1           0      -10.135409   -2.387607   -1.491423
     69          1           0       -2.898527   -0.959212    2.170513
     70          1           0       -2.285060    1.681125    1.134048
     71          1           0       -1.964760    1.065966    3.442446
     72          1           0       -2.920563    2.407903    3.411479
     73          1           0       -3.905954    0.779276    3.458441
     74          1           0       -2.129294   -1.717998   -0.198658
     75          1           0       -2.151183    0.039066   -0.597254
     76          1           0       -0.339677    0.193166    1.163946
     77          1           0       -0.359794   -1.268784    1.591984
     78          1           0       -5.438615    6.963537    0.674770
     79          1           0       -5.592487    6.111883    2.251668
     80          1           0       -4.270208    5.635078    1.265144
     81          1           0       -9.396814    5.763495   -0.409811
     82          1           0       -9.125675    8.094421    0.635204
     83          1           0       -7.539815    7.426420    1.526869
     84          1           0      -12.082151    3.295628   -2.235375
     85          1           0      -13.147020    2.104111   -1.867800
     86          1           0      -12.582283    3.236045   -0.642592
     87          1           0      -12.270131   -1.512656   -0.922320
     88          1           0      -13.434846   -0.288878   -1.739242
     89          1           0      -12.928944   -1.755386   -3.458138
     90          1           0      -12.108579   -0.486070   -4.066322
     91          1           0      -11.242405   -1.822026   -3.463404
     92          1           0       -9.216214   -4.722918   -2.083967
     93          1           0       -8.192943   -5.745231   -1.053483
     94          1           0       -9.621455   -4.836023   -0.155354
     95          1           0       -3.477083   -3.316163   -0.087203
     96          1           0       -1.569153   -4.584716    3.640930
     97          1           0       -3.189035   -5.893328    3.528765
     98          1           0       -1.608183   -5.995640    2.531231
     99          1           0        2.717703   -1.626550   -1.488982
    100          1           0        2.494387    0.015235   -1.845997
    101          1           0        4.269791   -1.008068    0.643878
    102          1           0        4.013561    1.212671   -2.557234
    103          1           0        5.351348    2.298813   -1.839734
    104          1           0        5.728548    0.877768   -2.829422
    105          1           0        6.886611    1.312622    0.452785
    106          1           0        6.450263   -0.218338    0.895024
    107          1           0        7.356322   -1.025600   -1.165895
    108          1           0        7.846394    0.403203   -1.762500
    109          1           0        9.309552    1.055556    0.135093
    110          1           0        8.719134   -0.836846    0.839750
    111          1           0       10.552079    0.062431   -1.719487
    112          1           0        9.114176   -2.262216   -1.997637
    113          1           0       10.827734   -2.550489   -1.944170
    114          1           0       10.093731   -2.994528   -0.677951
    115          1           0       11.358498    0.587761    0.497335
    116          1           0       11.418063   -1.145259    0.931290
    117          1           0       12.936342   -1.291481   -1.141494
    118          1           0       12.820304    0.370625   -1.477701
    119          1           0       13.889590    0.935532    0.815900
    120          1           0       13.914007   -0.804934    1.087900
    121          1           0       15.312187    0.184526   -1.344376
    122          1           0       15.711138   -2.209918    0.343289
    123          1           0       14.729539   -2.070283   -1.092173
    124          1           0       16.427778   -1.681915   -1.499316
    125          1           0       16.038081    1.293185    0.806627
    126          1           0       16.562123   -0.307503    1.471364
    127          1           0       18.225959   -0.428023   -0.235469
    128          1           0       18.103001    0.845751   -1.199218
    129          1           0       18.572325    2.440447    0.540732
    130          1           0       18.702937    0.923536    1.619982
    131          1           0       20.792389    0.102963    0.140739
    132          1           0       19.865149    3.118744   -1.073144
    133          1           0       21.483571    2.025626   -1.788650
    134          1           0       19.694965    1.847914   -2.045935
    135          1           0       21.358145    1.162644    1.919746
    136          1           0       22.222320    2.252425    0.659783
    137          1           0       20.706157    2.926299    1.316449
 ---------------------------------------------------------------------

 SCF Done:  E(RCAM-B3LYP) =  -2933.42034228     A.U. after   16 cycles

 Excitation energies and oscillator strengths:

 Excited State   1:      Singlet-A      1.9955 eV  621.33 nm  f=0.2865  <S**2>=0.000
     240 -> 243        0.23013
     241 -> 242        0.66759
 This state for optimization and/or second-order correction.
 Total Energy, E(TD-HF/TD-DFT) =  -2933.34701030
 Copying the excited state density for this state as the 1-particle RhoCI density.

 The electronic state is 1-A.
 Alpha  occ. eigenvalues --  -46.79610 -19.22186 -19.20088 -19.17088 -19.15375
 Alpha  occ. eigenvalues --  -19.15043 -14.37399 -14.35069 -14.34928 -14.34452
 Alpha  occ. eigenvalues --  -10.34699 -10.33323 -10.30885 -10.27991 -10.27786
 Alpha  occ. eigenvalues --  -10.25687 -10.25492 -10.25344 -10.25262 -10.24766
 Alpha  occ. eigenvalues --  -10.24564 -10.24508 -10.24484 -10.24257 -10.24079
 Alpha  occ. eigenvalues --  -10.23981 -10.23858 -10.23657 -10.23602 -10.23569
 Alpha  occ. eigenvalues --  -10.23231 -10.22935 -10.22903 -10.22827 -10.22683
 Alpha  occ. eigenvalues --  -10.22550 -10.22474 -10.22469 -10.22345 -10.22334
 Alpha  occ. eigenvalues --  -10.22304 -10.22289 -10.22199 -10.22189 -10.22145
 Alpha  occ. eigenvalues --  -10.22126 -10.22042 -10.22015 -10.21993 -10.21825
 Alpha  occ. eigenvalues --  -10.21821 -10.21775 -10.21687 -10.21652 -10.21293
 Alpha  occ. eigenvalues --  -10.21138 -10.21094 -10.20869 -10.20635 -10.20575
 Alpha  occ. eigenvalues --  -10.20145 -10.20111 -10.19888 -10.19872 -10.19112
 Alpha  occ. eigenvalues --   -3.08252  -1.83196  -1.82708  -1.82667  -1.11357
 Alpha  occ. eigenvalues --   -1.09461  -1.08718  -1.01387  -1.00303  -1.00166
 Alpha  occ. eigenvalues --   -0.99823  -0.98948  -0.96983  -0.87118  -0.86342
 Alpha  occ. eigenvalues --   -0.85917  -0.85341  -0.84415  -0.84232  -0.83871
 Alpha  occ. eigenvalues --   -0.83298  -0.83196  -0.82244  -0.82018  -0.81516
 Alpha  occ. eigenvalues --   -0.80669  -0.79677  -0.79079  -0.78677  -0.77759
 Alpha  occ. eigenvalues --   -0.77101  -0.76691  -0.75971  -0.75345  -0.73176
 Alpha  occ. eigenvalues --   -0.73168  -0.72523  -0.71970  -0.71462  -0.71244
 Alpha  occ. eigenvalues --   -0.71068  -0.70511  -0.69343  -0.68276  -0.67768
 Alpha  occ. eigenvalues --   -0.67259  -0.66422  -0.64995  -0.64898  -0.64723
 Alpha  occ. eigenvalues --   -0.63065  -0.62836  -0.61458  -0.61091  -0.60981
 Alpha  occ. eigenvalues --   -0.59829  -0.59746  -0.59236  -0.58649  -0.57059
 Alpha  occ. eigenvalues --   -0.56888  -0.56062  -0.55846  -0.55624  -0.55561
 Alpha  occ. eigenvalues --   -0.55077  -0.53818  -0.53726  -0.53056  -0.52522
 Alpha  occ. eigenvalues --   -0.52174  -0.51940  -0.51601  -0.51274  -0.50826
 Alpha  occ. eigenvalues --   -0.50794  -0.50585  -0.50529  -0.49328  -0.48786
 Alpha  occ. eigenvalues --   -0.48672  -0.48548  -0.48507  -0.48111  -0.47821
 Alpha  occ. eigenvalues --   -0.47408  -0.47356  -0.47194  -0.46957  -0.46692
 Alpha  occ. eigenvalues --   -0.46597  -0.46418  -0.46306  -0.46145  -0.45844
 Alpha  occ. eigenvalues --   -0.45708  -0.45520  -0.45212  -0.44901  -0.44750
 Alpha  occ. eigenvalues --   -0.44515  -0.44358  -0.44112  -0.43752  -0.43594
 Alpha  occ. eigenvalues --   -0.43350  -0.43158  -0.43019  -0.42855  -0.42662
 Alpha  occ. eigenvalues --   -0.42578  -0.42520  -0.42292  -0.42020  -0.41533
 Alpha  occ. eigenvalues --   -0.41421  -0.41133  -0.40697  -0.40624  -0.40503
 Alpha  occ. eigenvalues --   -0.40383  -0.40315  -0.40088  -0.39940  -0.39771
 Alpha  occ. eigenvalues --   -0.39598  -0.39377  -0.39334  -0.39241  -0.38862
 Alpha  occ. eigenvalues --   -0.38625  -0.38560  -0.38291  -0.38192  -0.37864
 Alpha  occ. eigenvalues --   -0.37777  -0.37457  -0.37230  -0.37105  -0.36683
 Alpha  occ. eigenvalues --   -0.36534  -0.36469  -0.36372  -0.36206  -0.36009
 Alpha  occ. eigenvalues --   -0.35926  -0.35479  -0.35343  -0.34827  -0.34537
 Alpha  occ. eigenvalues --   -0.34460  -0.33922  -0.33915  -0.33779  -0.33691
 Alpha  occ. eigenvalues --   -0.33151  -0.32927  -0.32854  -0.32704  -0.31980
 Alpha  occ. eigenvalues --   -0.31534  -0.30963  -0.30822  -0.30425  -0.30043
 Alpha  occ. eigenvalues --   -0.29920  -0.28911  -0.28534  -0.28313  -0.27602
 Alpha  occ. eigenvalues --   -0.27019  -0.26613  -0.26108  -0.25340  -0.21680
 Alpha  occ. eigenvalues --   -0.19850
 Alpha virt. eigenvalues --   -0.07293  -0.03742   0.00303   0.02102   0.02620
 Alpha virt. eigenvalues --    0.03197   0.03807   0.04568   0.05475   0.06074
 Alpha virt. eigenvalues --    0.06964   0.08250   0.08612   0.08993   0.09325

 Mulliken charges:
               1
     1  Mg   0.817460
     2  C    0.063032
     3  C   -0.208689
     4  C   -0.153774
     5  C   -0.170689
     6  N   -0.610185
     7  C    0.289894
     8  C   -0.169552
     9  C   -0.169244
    10  C    0.375871
    11  C   -0.303107
    12  C   -0.150656
    13  C   -0.261363
    14  C    0.588735
    15  O   -0.515658
    16  O   -0.467978
    17  N   -0.714665
    18  C    0.297148
    19  C    0.055111
    20  C   -0.014211
    21  C    0.355626
    22  C   -0.396299
    23  C   -0.022958
    24  C   -0.257978
    25  N   -0.744179
    26  C    0.223893
    27  C    0.043590
    28  C    0.030627
    29  C    0.400074
    30  C   -0.398922
    31  C   -0.252631
    32  C   -0.301257
    33  N   -0.710391
    34  C    0.267562
    35  C   -0.018313
    36  C    0.132296
    37  C    0.234316
    38  C   -0.390529
    39  C    0.338959
    40  O   -0.412564
    41  C   -0.313524
    42  C    0.617789
    43  O   -0.507007
    44  O   -0.481279
    45  C   -0.066317
    46  C    0.002449
    47  C   -0.132696
    48  C    0.126432
    49  C   -0.367829
    50  C   -0.247638
    51  C   -0.139995
    52  C   -0.166608
    53  C   -0.058045
    54  C   -0.320234
    55  C   -0.169834
    56  C   -0.189655
    57  C   -0.170081
    58  C   -0.049736
    59  C   -0.299736
    60  C   -0.172726
    61  C   -0.148991
    62  C   -0.176381
    63  C   -0.026105
    64  C   -0.318482
    65  C   -0.266138
    66  H    0.062749
    67  H    0.083664
    68  H    0.103453
    69  H    0.134810
    70  H    0.100025
    71  H    0.109737
    72  H    0.092060
    73  H    0.125793
    74  H    0.121877
    75  H    0.121705
    76  H    0.132856
    77  H    0.142154
    78  H    0.135080
    79  H    0.139325
    80  H    0.071968
    81  H    0.081506
    82  H    0.093986
    83  H    0.100136
    84  H    0.122693
    85  H    0.114364
    86  H    0.126300
    87  H    0.098414
    88  H    0.066465
    89  H    0.122400
    90  H    0.089619
    91  H    0.118815
    92  H    0.103963
    93  H    0.121159
    94  H    0.124945
    95  H    0.155607
    96  H    0.110146
    97  H    0.132176
    98  H    0.143102
    99  H    0.145019
   100  H    0.120462
   101  H    0.099972
   102  H    0.114496
   103  H    0.119872
   104  H    0.128053
   105  H    0.092281
   106  H    0.094838
   107  H    0.111046
   108  H    0.087243
   109  H    0.075450
   110  H    0.100712
   111  H    0.092799
   112  H    0.076742
   113  H    0.122961
   114  H    0.097822
   115  H    0.083520
   116  H    0.077784
   117  H    0.101717
   118  H    0.077649
   119  H    0.093376
   120  H    0.065152
   121  H    0.091364
   122  H    0.079156
   123  H    0.088840
   124  H    0.118904
   125  H    0.082830
   126  H    0.060993
   127  H    0.120233
   128  H    0.088487
   129  H    0.067430
   130  H    0.071916
   131  H   -0.010408
   132  H    0.107153
   133  H    0.100970
   134  H    0.107467
   135  H    0.087223
   136  H    0.100093
   137  H    0.099289
 Sum of Mulliken charges =  -0.00000

 Dipole moment (field-independent basis, Debye):
    X=              2.2166    Y=              4.4444    Z=             -1.2951  Tot=              5.1326
 Quadrupole moment (field-independent basis, Debye-Ang):
   XX=           -359.4019   YY=           -390.2277   ZZ=           -398.0375
   XY=            -14.6174   XZ=              8.2345   YZ=             -1.8458

 Normal termination of Gaussian 16 at Sun Sep 15 05:57:08 2019.
