 Gaussian 09, Revision D.01,
 Gaussian 09:  ES64L-G09RevD.01 24-Apr-2013

 -------------------------------------
 # td=(NStates=1) CAM-B3LYP/6-31G(d,p)
 -------------------------------------

 --
 TD
 --
 Symbolic Z-matrix:
 Charge =  0 Multiplicity = 1

                         Standard orientation:
 ---------------------------------------------------------------------
 Center     Atomic      Atomic             Coordinates (Angstroms)
 Number     Number       Type             X           Y           Z
 ---------------------------------------------------------------------
      1         12           0       -7.131256    0.670214    0.078117
      2          6           0       -4.836016   -2.035398    0.540878
      3          6           0       -4.808513    2.818675    1.114170
      4          6           0       -9.387683    3.135359   -0.340535
      5          6           0       -9.567450   -1.766211   -1.041234
      6          7           0       -5.163949    0.323179    0.739466
      7          6           0       -4.377964   -0.767112    0.793180
      8          6           0       -3.031108   -0.438152    1.416212
      9          6           0       -3.036505    0.962606    1.779513
     10          6           0       -4.411469    1.426832    1.196491
     11          6           0       -2.918141    1.271856    3.186627
     12          6           0       -1.840534   -0.839022    0.255192
     13          6           0       -0.436612   -0.701458    0.704856
     14          6           0        0.562984   -0.768397   -0.403850
     15          8           0        0.250137   -0.961286   -1.549089
     16          8           0        1.751951   -0.493858   -0.019835
     17          7           0       -7.070679    2.640991    0.432878
     18          6           0       -6.051802    3.357021    0.721945
     19          6           0       -6.321714    4.801302    0.737001
     20          6           0       -7.624223    4.870093    0.273756
     21          6           0       -8.081590    3.544931    0.085112
     22          6           0       -5.337537    5.785060    1.273149
     23          6           0       -8.516720    6.033249    0.201104
     24          6           0       -8.418589    7.136324    0.824263
     25          7           0       -9.103979    0.684533   -0.397024
     26          6           0       -9.882059    1.809365   -0.638984
     27          6           0      -11.142990    1.579884   -1.167022
     28          6           0      -11.189810    0.194989   -1.176256
     29          6           0       -9.919719   -0.368141   -0.959565
     30          6           0      -12.133590    2.641752   -1.489276
     31          6           0      -12.334678   -0.577355   -1.803835
     32          6           0      -12.221560   -0.933338   -3.253516
     33          7           0       -7.233458   -1.363039   -0.241759
     34          6           0       -8.297785   -2.213007   -0.700095
     35          6           0       -7.853514   -3.569951   -0.698799
     36          6           0       -6.513744   -3.497704   -0.288610
     37          6           0       -6.180241   -2.137580   -0.060323
     38          6           0       -8.684395   -4.717201   -1.021402
     39          6           0       -5.400005   -4.448347    0.085959
     40          8           0       -5.292844   -5.681574    0.195160
     41          6           0       -4.257950   -3.464586    0.570395
     42          6           0       -3.650743   -3.869657    1.876260
     43          8           0       -3.774043   -3.255893    2.962839
     44          8           0       -2.893565   -4.948010    1.781155
     45          6           0       -2.283829   -5.352548    3.018569
     46          6           0        2.897677   -0.711778   -1.043974
     47          6           0        4.016142   -0.277390   -0.483478
     48          6           0        5.093386    0.414917   -0.933584
     49          6           0        5.124606    1.393320   -2.173702
     50          6           0        6.447578    0.545776   -0.202206
     51          6           0        7.605986   -0.067149   -0.970259
     52          6           0        8.953378   -0.013396   -0.129080
     53          6           0       10.218687   -0.461749   -0.953446
     54          6           0       10.075058   -2.017886   -1.337583
     55          6           0       11.565540   -0.269040   -0.139996
     56          6           0       12.837406   -0.468944   -0.855078
     57          6           0       14.040751   -0.141613    0.064338
     58          6           0       15.446064   -0.117450   -0.553983
     59          6           0       15.746201   -1.540747   -1.099412
     60          6           0       16.382423    0.336342    0.458408
     61          6           0       17.786484    0.516485   -0.191862
     62          6           0       18.697837    1.363103    0.779840
     63          6           0       20.179164    1.266230    0.312554
     64          6           0       20.376611    1.916561   -1.131491
     65          6           0       21.010947    1.981046    1.376935
     66          1           0       -4.131128    3.558929    1.517260
     67          1           0      -10.232856    4.030074   -0.434963
     68          1           0      -10.371281   -2.434744   -1.416931
     69          1           0       -2.967495   -1.219382    2.242616
     70          1           0       -2.444184    1.561913    0.941909
     71          1           0       -2.085851    0.861624    3.555099
     72          1           0       -3.040494    2.335189    3.269952
     73          1           0       -3.703032    0.748515    3.951556
     74          1           0       -2.075791   -1.801393   -0.324675
     75          1           0       -1.734422    0.042871   -0.582593
     76          1           0       -0.544560    0.258564    1.519125
     77          1           0       -0.124728   -1.364029    1.416665
     78          1           0       -5.535058    6.906454    1.008650
     79          1           0       -5.364455    5.750215    2.316484
     80          1           0       -4.337356    5.560683    0.718299
     81          1           0       -9.449981    5.746962   -0.473772
     82          1           0       -9.320182    7.860267    0.696398
     83          1           0       -7.605581    7.326338    1.533708
     84          1           0      -11.766269    3.210790   -2.346200
     85          1           0      -13.061691    2.218801   -1.910138
     86          1           0      -12.329312    3.492485   -0.833293
     87          1           0      -12.257655   -1.355165   -1.034989
     88          1           0      -13.138745    0.089678   -1.819671
     89          1           0      -13.083422   -1.584626   -3.447199
     90          1           0      -12.360645    0.042361   -3.855304
     91          1           0      -11.228494   -1.433288   -3.467022
     92          1           0       -8.948881   -4.522942   -2.122282
     93          1           0       -8.216743   -5.788014   -1.184989
     94          1           0       -9.531652   -4.789704   -0.352902
     95          1           0       -3.600742   -3.489722   -0.185400
     96          1           0       -1.819842   -4.495737    3.515280
     97          1           0       -3.269076   -5.388827    3.692670
     98          1           0       -1.593018   -6.174721    2.715473
     99          1           0        2.807337   -1.750362   -1.475295
    100          1           0        2.503603    0.084620   -1.834991
    101          1           0        4.367593   -0.874296    0.381806
    102          1           0        4.067850    1.533618   -2.561761
    103          1           0        5.418550    2.407541   -1.814125
    104          1           0        5.776330    1.020863   -3.153670
    105          1           0        6.510082    1.395751    0.452050
    106          1           0        6.148711   -0.156530    0.691273
    107          1           0        7.361049   -1.132319   -1.339200
    108          1           0        7.854288    0.577712   -1.759676
    109          1           0        9.005832    1.083799    0.222769
    110          1           0        8.801247   -0.570090    0.652760
    111          1           0       10.433995    0.047955   -1.919042
    112          1           0        9.222677   -2.384677   -1.763265
    113          1           0       10.803683   -2.140997   -2.093128
    114          1           0       10.172294   -2.660837   -0.395933
    115          1           0       11.602435    0.674021    0.111286
    116          1           0       11.392765   -0.936251    0.791621
    117          1           0       12.955819   -1.479418   -1.168724
    118          1           0       12.870244    0.221800   -1.898225
    119          1           0       13.854734    0.886514    0.360613
    120          1           0       14.032592   -0.932725    0.905179
    121          1           0       15.449897    0.619472   -1.326870
    122          1           0       15.810645   -2.196220   -0.265357
    123          1           0       14.944141   -1.899022   -1.723774
    124          1           0       16.784397   -1.493102   -1.597747
    125          1           0       16.030398    1.294030    0.914199
    126          1           0       16.357549   -0.316191    1.323868
    127          1           0       18.254744   -0.390484   -0.340272
    128          1           0       17.615295    1.219745   -1.115930
    129          1           0       18.207407    2.445270    1.069101
    130          1           0       18.632951    0.776228    1.645852
    131          1           0       20.486899    0.062025    0.421183
    132          1           0       19.973089    2.969991   -1.121778
    133          1           0       21.536661    1.904039   -1.299764
    134          1           0       19.870610    1.340620   -1.859010
    135          1           0       20.897485    1.381319    2.237664
    136          1           0       22.153798    1.949999    1.412285
    137          1           0       20.866596    3.034326    1.355428
 ---------------------------------------------------------------------

 SCF Done:  E(RCAM-B3LYP) =  -2932.66168370     A.U. after   18 cycles

 Excitation energies and oscillator strengths:

 Excited State   1:      Singlet-A      2.0892 eV  593.45 nm  f=0.1952  <S**2>=0.000
     240 -> 243        0.26414
     241 -> 242        0.64749
 This state for optimization and/or second-order correction.
 Total Energy, E(TD-HF/TD-KS) =  -2932.58490691
 Copying the excited state density for this state as the 1-particle RhoCI density.

 The electronic state is 1-A.
 Alpha  occ. eigenvalues --  -46.83457 -19.26406 -19.25504 -19.20590 -19.20198
 Alpha  occ. eigenvalues --  -19.19130 -14.41072 -14.39159 -14.39129 -14.38642
 Alpha  occ. eigenvalues --  -10.39051 -10.37675 -10.35717 -10.33100 -10.31843
 Alpha  occ. eigenvalues --  -10.31819 -10.29919 -10.29740 -10.29442 -10.29354
 Alpha  occ. eigenvalues --  -10.28984 -10.28862 -10.28861 -10.28786 -10.28187
 Alpha  occ. eigenvalues --  -10.28162 -10.28070 -10.27989 -10.27873 -10.27744
 Alpha  occ. eigenvalues --  -10.27673 -10.27614 -10.27428 -10.27232 -10.27135
 Alpha  occ. eigenvalues --  -10.27097 -10.27001 -10.26872 -10.26855 -10.26761
 Alpha  occ. eigenvalues --  -10.26736 -10.26551 -10.26329 -10.26112 -10.26025
 Alpha  occ. eigenvalues --  -10.26000 -10.25894 -10.25811 -10.25500 -10.25465
 Alpha  occ. eigenvalues --  -10.25441 -10.25353 -10.25309 -10.25290 -10.25147
 Alpha  occ. eigenvalues --  -10.25138 -10.25072 -10.25049 -10.24630 -10.24515
 Alpha  occ. eigenvalues --  -10.24375 -10.24336 -10.24274 -10.24180 -10.23784
 Alpha  occ. eigenvalues --   -3.12584  -1.87286  -1.86805  -1.86788  -1.18693
 Alpha  occ. eigenvalues --   -1.18673  -1.09429  -1.08307  -1.07134  -1.05410
 Alpha  occ. eigenvalues --   -1.03610  -1.02501  -1.01002  -0.92245  -0.91483
 Alpha  occ. eigenvalues --   -0.91357  -0.89991  -0.89854  -0.89462  -0.88642
 Alpha  occ. eigenvalues --   -0.88041  -0.87916  -0.87297  -0.87152  -0.86635
 Alpha  occ. eigenvalues --   -0.85785  -0.84273  -0.83706  -0.83650  -0.82803
 Alpha  occ. eigenvalues --   -0.81384  -0.80892  -0.80183  -0.79769  -0.78150
 Alpha  occ. eigenvalues --   -0.78104  -0.77224  -0.76229  -0.75888  -0.75706
 Alpha  occ. eigenvalues --   -0.75403  -0.75059  -0.74709  -0.73494  -0.72011
 Alpha  occ. eigenvalues --   -0.71324  -0.69992  -0.69151  -0.68461  -0.67587
 Alpha  occ. eigenvalues --   -0.66907  -0.66642  -0.65016  -0.64404  -0.63883
 Alpha  occ. eigenvalues --   -0.63625  -0.63458  -0.63021  -0.61959  -0.61649
 Alpha  occ. eigenvalues --   -0.61078  -0.60569  -0.60165  -0.59241  -0.58991
 Alpha  occ. eigenvalues --   -0.58510  -0.58085  -0.57784  -0.57409  -0.56944
 Alpha  occ. eigenvalues --   -0.56276  -0.55727  -0.55359  -0.54466  -0.54297
 Alpha  occ. eigenvalues --   -0.53969  -0.53791  -0.53617  -0.53354  -0.53245
 Alpha  occ. eigenvalues --   -0.52993  -0.52700  -0.52452  -0.52309  -0.51779
 Alpha  occ. eigenvalues --   -0.51751  -0.51349  -0.51267  -0.50806  -0.50741
 Alpha  occ. eigenvalues --   -0.50337  -0.50251  -0.49947  -0.49865  -0.49547
 Alpha  occ. eigenvalues --   -0.49526  -0.49342  -0.48850  -0.48681  -0.48461
 Alpha  occ. eigenvalues --   -0.48219  -0.48030  -0.47677  -0.47613  -0.47256
 Alpha  occ. eigenvalues --   -0.46965  -0.46496  -0.46337  -0.46057  -0.45903
 Alpha  occ. eigenvalues --   -0.45788  -0.45735  -0.45232  -0.44994  -0.44924
 Alpha  occ. eigenvalues --   -0.44581  -0.44512  -0.44443  -0.44235  -0.44105
 Alpha  occ. eigenvalues --   -0.43954  -0.43339  -0.43108  -0.43042  -0.42969
 Alpha  occ. eigenvalues --   -0.42859  -0.42766  -0.42456  -0.42157  -0.42050
 Alpha  occ. eigenvalues --   -0.41928  -0.41710  -0.41704  -0.41669  -0.41527
 Alpha  occ. eigenvalues --   -0.41128  -0.40765  -0.40659  -0.40277  -0.40121
 Alpha  occ. eigenvalues --   -0.39917  -0.39471  -0.38977  -0.38832  -0.38429
 Alpha  occ. eigenvalues --   -0.38345  -0.38036  -0.37967  -0.37557  -0.37277
 Alpha  occ. eigenvalues --   -0.37202  -0.36893  -0.36447  -0.36442  -0.36218
 Alpha  occ. eigenvalues --   -0.36009  -0.35872  -0.35754  -0.35733  -0.35571
 Alpha  occ. eigenvalues --   -0.35351  -0.35148  -0.34868  -0.33454  -0.33408
 Alpha  occ. eigenvalues --   -0.33154  -0.32858  -0.31723  -0.30948  -0.30027
 Alpha  occ. eigenvalues --   -0.29739  -0.29047  -0.28208  -0.27122  -0.22619
 Alpha  occ. eigenvalues --   -0.21330
 Alpha virt. eigenvalues --   -0.06098  -0.02906   0.02130   0.03337   0.04815
 Alpha virt. eigenvalues --    0.05973   0.06255   0.06938   0.07344   0.07696
 Alpha virt. eigenvalues --    0.09202   0.10682   0.11263   0.11580   0.11767

 Mulliken charges:
               1
     1  Mg   0.811863
     2  C    0.027783
     3  C   -0.227000
     4  C   -0.199251
     5  C   -0.169071
     6  N   -0.634766
     7  C    0.323008
     8  C   -0.187404
     9  C   -0.119036
    10  C    0.286682
    11  C   -0.296786
    12  C   -0.174386
    13  C   -0.261229
    14  C    0.609444
    15  O   -0.492330
    16  O   -0.474786
    17  N   -0.699657
    18  C    0.356613
    19  C    0.010338
    20  C    0.007761
    21  C    0.285251
    22  C   -0.380500
    23  C   -0.022319
    24  C   -0.261385
    25  N   -0.681036
    26  C    0.301014
    27  C    0.074952
    28  C   -0.058403
    29  C    0.260936
    30  C   -0.393021
    31  C   -0.213852
    32  C   -0.293286
    33  N   -0.709508
    34  C    0.251144
    35  C    0.067571
    36  C   -0.064963
    37  C    0.334699
    38  C   -0.388701
    39  C    0.381731
    40  O   -0.469159
    41  C   -0.296858
    42  C    0.636545
    43  O   -0.518448
    44  O   -0.430289
    45  C   -0.091849
    46  C   -0.016950
    47  C   -0.078483
    48  C    0.091971
    49  C   -0.353508
    50  C   -0.238916
    51  C   -0.174871
    52  C   -0.167308
    53  C   -0.089182
    54  C   -0.317949
    55  C   -0.139788
    56  C   -0.184606
    57  C   -0.170185
    58  C   -0.055639
    59  C   -0.315260
    60  C   -0.167635
    61  C   -0.182867
    62  C   -0.162411
    63  C   -0.063578
    64  C   -0.306377
    65  C   -0.299393
    66  H    0.071615
    67  H    0.083482
    68  H    0.114532
    69  H    0.144979
    70  H    0.125817
    71  H    0.121508
    72  H    0.112844
    73  H    0.107753
    74  H    0.108444
    75  H    0.095059
    76  H    0.101308
    77  H    0.131616
    78  H    0.109758
    79  H    0.144974
    80  H    0.120644
    81  H    0.074441
    82  H    0.097655
    83  H    0.102048
    84  H    0.126335
    85  H    0.109020
    86  H    0.127246
    87  H    0.104581
    88  H    0.099152
    89  H    0.109935
    90  H    0.097275
    91  H    0.101169
    92  H    0.119981
    93  H    0.138402
    94  H    0.137273
    95  H    0.174133
    96  H    0.136233
    97  H    0.135353
    98  H    0.132403
    99  H    0.152111
   100  H    0.128152
   101  H    0.087006
   102  H    0.104271
   103  H    0.123210
   104  H    0.107168
   105  H    0.126717
   106  H    0.072830
   107  H    0.099571
   108  H    0.115429
   109  H    0.077040
   110  H    0.107737
   111  H    0.079837
   112  H    0.106138
   113  H    0.108954
   114  H    0.088303
   115  H    0.100067
   116  H    0.076847
   117  H    0.100870
   118  H    0.053118
   119  H    0.085608
   120  H    0.079780
   121  H    0.084004
   122  H    0.102736
   123  H    0.108443
   124  H    0.092157
   125  H    0.082996
   126  H    0.086026
   127  H    0.109101
   128  H    0.084323
   129  H    0.070978
   130  H    0.099790
   131  H    0.056914
   132  H    0.100455
   133  H    0.092683
   134  H    0.115725
   135  H    0.106088
   136  H    0.076746
   137  H    0.107981
 Sum of Mulliken charges =   0.00000

 Dipole moment (field-independent basis, Debye):
    X=              3.6992    Y=              4.1944    Z=              0.0297  Tot=              5.5927
 Quadrupole moment (field-independent basis, Debye-Ang):
   XX=           -347.3538   YY=           -391.4465   ZZ=           -397.5398
   XY=            -26.1529   XZ=             18.3408   YZ=              1.9659

 Normal termination of Gaussian 09 at Sat Jul  6 10:00:08 2019.
