 Gaussian 09, Revision D.01,
 Gaussian 09:  ES64L-G09RevD.01 24-Apr-2013

 -------------------------------------
 # td=(NStates=1) CAM-B3LYP/6-31G(d,p)
 -------------------------------------

 --
 TD
 --
 Symbolic Z-matrix:
 Charge =  0 Multiplicity = 1

                         Standard orientation:
 ---------------------------------------------------------------------
 Center     Atomic      Atomic             Coordinates (Angstroms)
 Number     Number       Type             X           Y           Z
 ---------------------------------------------------------------------
      1         12           0       -7.103977    0.537816    0.065975
      2          6           0       -4.832048   -1.976787    0.569383
      3          6           0       -4.836189    2.751250    1.149648
      4          6           0       -9.394759    3.146879   -0.393827
      5          6           0       -9.535792   -1.771198   -0.935472
      6          7           0       -5.102954    0.375795    0.743552
      7          6           0       -4.343128   -0.679153    0.717167
      8          6           0       -2.887268   -0.397079    1.242210
      9          6           0       -3.050618    1.112132    1.802960
     10          6           0       -4.393466    1.483727    1.189956
     11          6           0       -2.967153    1.151222    3.227318
     12          6           0       -1.937720   -0.493949    0.069096
     13          6           0       -0.491796   -0.248389    0.518985
     14          6           0        0.504845   -0.453317   -0.596428
     15          8           0        0.180732   -0.877352   -1.732947
     16          8           0        1.751279   -0.384814   -0.253894
     17          7           0       -7.028068    2.612617    0.269987
     18          6           0       -6.054865    3.393418    0.766593
     19          6           0       -6.383235    4.764436    0.784572
     20          6           0       -7.715245    4.843738    0.404303
     21          6           0       -8.063364    3.472863    0.002578
     22          6           0       -5.504159    5.895222    1.300310
     23          6           0       -8.536995    6.096689    0.139386
     24          6           0       -8.381764    7.185291    0.788052
     25          7           0       -9.108280    0.615388   -0.621700
     26          6           0       -9.882810    1.809470   -0.639103
     27          6           0      -11.168651    1.408926   -1.090183
     28          6           0      -11.139229    0.079007   -1.250178
     29          6           0       -9.954778   -0.470990   -0.895562
     30          6           0      -12.300312    2.415346   -1.308500
     31          6           0      -12.319604   -0.786651   -1.838751
     32          6           0      -12.448529   -0.995804   -3.257352
     33          7           0       -7.226838   -1.459767   -0.256771
     34          6           0       -8.346916   -2.303437   -0.522596
     35          6           0       -7.833497   -3.729716   -0.529283
     36          6           0       -6.582744   -3.638933   -0.100549
     37          6           0       -6.226048   -2.207724    0.037091
     38          6           0       -8.742370   -4.857515   -0.798438
     39          6           0       -5.347445   -4.433552    0.183958
     40          8           0       -5.174924   -5.614905    0.329662
     41          6           0       -4.141095   -3.368153    0.624427
     42          6           0       -3.606702   -3.679858    1.905946
     43          8           0       -3.709007   -3.067093    2.975663
     44          8           0       -2.772846   -4.735983    1.837539
     45          6           0       -2.205980   -5.209514    3.021354
     46          6           0        2.778696   -0.433733   -1.290192
     47          6           0        4.153082   -0.401991   -0.634075
     48          6           0        5.070828    0.484366   -0.999186
     49          6           0        5.079268    1.406178   -2.169983
     50          6           0        6.387277    0.411594   -0.291992
     51          6           0        7.617974   -0.065389   -1.189269
     52          6           0        8.901770    0.023524   -0.400925
     53          6           0       10.208415   -0.590552   -1.071743
     54          6           0       10.160506   -2.071634   -1.414541
     55          6           0       11.381990   -0.293331   -0.072999
     56          6           0       12.847646   -0.521032   -0.682798
     57          6           0       13.924053   -0.299435    0.236795
     58          6           0       15.367636   -0.390160   -0.430092
     59          6           0       15.675092   -1.844551   -0.715477
     60          6           0       16.566621    0.178866    0.527511
     61          6           0       17.936260    0.345045   -0.134995
     62          6           0       18.816891    1.246657    0.751772
     63          6           0       20.290040    1.435633    0.248649
     64          6           0       20.349348    2.130085   -1.010607
     65          6           0       21.139347    2.081282    1.312375
     66          1           0       -3.993745    3.624552    1.538745
     67          1           0      -10.088589    3.902511   -0.491436
     68          1           0      -10.292586   -2.572890   -1.245602
     69          1           0       -2.653587   -1.100628    2.039877
     70          1           0       -2.221433    1.654279    1.364493
     71          1           0       -1.959242    0.982512    3.753330
     72          1           0       -2.977825    2.065308    3.572419
     73          1           0       -3.728015    0.552159    3.878514
     74          1           0       -1.833109   -1.301351   -0.424620
     75          1           0       -2.134144    0.324819   -0.679112
     76          1           0       -0.654772    0.825120    0.804200
     77          1           0       -0.111564   -0.865860    1.352463
     78          1           0       -5.689556    7.045632    0.657207
     79          1           0       -5.760456    6.102379    2.386813
     80          1           0       -4.589106    5.489442    1.237202
     81          1           0       -9.328332    5.833812   -0.726902
     82          1           0       -8.950945    8.044346    0.575490
     83          1           0       -7.602624    7.286047    1.607682
     84          1           0      -12.068736    3.086278   -2.168312
     85          1           0      -13.228774    1.819458   -1.437752
     86          1           0      -12.508748    3.253786   -0.524467
     87          1           0      -12.315958   -1.706812   -1.246899
     88          1           0      -13.095228   -0.312737   -1.276142
     89          1           0      -13.307067   -1.681937   -3.462189
     90          1           0      -12.165219   -0.037155   -3.945258
     91          1           0      -11.538362   -1.786105   -3.425636
     92          1           0       -9.373478   -4.777097   -1.761584
     93          1           0       -8.060169   -5.710609   -0.721739
     94          1           0       -9.535177   -4.946706   -0.165631
     95          1           0       -3.330831   -3.490921   -0.218263
     96          1           0       -1.635015   -4.196427    3.467894
     97          1           0       -3.039902   -5.532520    3.862674
     98          1           0       -1.453874   -5.926334    2.651400
     99          1           0        2.729470   -1.499378   -1.724876
    100          1           0        2.755793    0.495773   -1.862177
    101          1           0        4.274256   -0.882772    0.411695
    102          1           0        4.120861    1.495817   -2.546179
    103          1           0        5.573038    2.335989   -1.863738
    104          1           0        5.848257    0.889494   -2.833764
    105          1           0        6.593878    1.525905    0.257860
    106          1           0        6.413523   -0.119463    0.582053
    107          1           0        7.356508   -1.102547   -1.286126
    108          1           0        7.727847    0.502817   -2.185466
    109          1           0        9.081610    1.094600   -0.357851
    110          1           0        8.747498   -0.606151    0.522228
    111          1           0       10.370721   -0.027894   -2.039550
    112          1           0        9.355682   -2.359704   -1.974337
    113          1           0       11.104087   -2.362219   -2.072176
    114          1           0       10.080784   -2.833397   -0.550824
    115          1           0       11.230535    0.828829    0.026266
    116          1           0       11.257571   -0.921507    0.774731
    117          1           0       12.718339   -1.608669   -0.985772
    118          1           0       12.989549    0.059484   -1.497752
    119          1           0       13.672232    0.720226    0.342161
    120          1           0       14.005358   -0.895796    1.217404
    121          1           0       15.431229    0.355262   -1.367277
    122          1           0       15.733993   -2.411602    0.190298
    123          1           0       14.909956   -2.331985   -1.429584
    124          1           0       16.527283   -2.018973   -1.205807
    125          1           0       16.291427    1.244230    0.695341
    126          1           0       16.595733   -0.155769    1.536307
    127          1           0       18.372734   -0.652973   -0.327905
    128          1           0       17.598785    0.895838   -1.186751
    129          1           0       18.401989    2.263721    0.846351
    130          1           0       18.813387    0.957210    1.680524
    131          1           0       20.609520    0.405039    0.237907
    132          1           0       19.813241    3.246775   -0.851052
    133          1           0       21.255832    2.107792   -1.512943
    134          1           0       19.576879    1.812525   -1.818821
    135          1           0       21.010413    1.606705    2.447294
    136          1           0       22.322556    2.116788    1.198183
    137          1           0       20.654803    3.026866    1.556127
 ---------------------------------------------------------------------

 SCF Done:  E(RCAM-B3LYP) =  -2932.64845585     A.U. after   15 cycles

 Excitation energies and oscillator strengths:

 Excited State   1:      Singlet-A      2.1470 eV  577.48 nm  f=0.2110  <S**2>=0.000
     240 -> 243       -0.27357
     241 -> 242        0.64299
 This state for optimization and/or second-order correction.
 Total Energy, E(TD-HF/TD-KS) =  -2932.56955606
 Copying the excited state density for this state as the 1-particle RhoCI density.

 The electronic state is 1-A.
 Alpha  occ. eigenvalues --  -46.84906 -19.26419 -19.25419 -19.22183 -19.20082
 Alpha  occ. eigenvalues --  -19.18938 -14.41122 -14.39913 -14.39778 -14.38423
 Alpha  occ. eigenvalues --  -10.38505 -10.38424 -10.37019 -10.32873 -10.32761
 Alpha  occ. eigenvalues --  -10.30501 -10.30393 -10.30209 -10.29854 -10.29654
 Alpha  occ. eigenvalues --  -10.29442 -10.29342 -10.29290 -10.28254 -10.28253
 Alpha  occ. eigenvalues --  -10.28147 -10.27863 -10.27634 -10.27453 -10.27414
 Alpha  occ. eigenvalues --  -10.27329 -10.27249 -10.27167 -10.27122 -10.27117
 Alpha  occ. eigenvalues --  -10.26977 -10.26933 -10.26762 -10.26761 -10.26746
 Alpha  occ. eigenvalues --  -10.26694 -10.26631 -10.26514 -10.26507 -10.26463
 Alpha  occ. eigenvalues --  -10.26447 -10.26182 -10.26153 -10.26112 -10.25856
 Alpha  occ. eigenvalues --  -10.25831 -10.25378 -10.25231 -10.25188 -10.25171
 Alpha  occ. eigenvalues --  -10.25123 -10.25117 -10.24616 -10.24608 -10.24607
 Alpha  occ. eigenvalues --  -10.24596 -10.24362 -10.24061 -10.23912 -10.23308
 Alpha  occ. eigenvalues --   -3.13757  -1.88484  -1.88000  -1.87909  -1.18886
 Alpha  occ. eigenvalues --   -1.18233  -1.13074  -1.07657  -1.06206  -1.05055
 Alpha  occ. eigenvalues --   -1.04353  -1.03744  -1.01343  -0.92000  -0.90971
 Alpha  occ. eigenvalues --   -0.90565  -0.90483  -0.89949  -0.89410  -0.89156
 Alpha  occ. eigenvalues --   -0.88352  -0.88297  -0.88046  -0.87422  -0.86336
 Alpha  occ. eigenvalues --   -0.85530  -0.84600  -0.83944  -0.83757  -0.82769
 Alpha  occ. eigenvalues --   -0.82157  -0.81380  -0.80780  -0.80377  -0.78795
 Alpha  occ. eigenvalues --   -0.78298  -0.77025  -0.76741  -0.75738  -0.75475
 Alpha  occ. eigenvalues --   -0.75375  -0.74773  -0.74412  -0.73493  -0.72498
 Alpha  occ. eigenvalues --   -0.71542  -0.70398  -0.68941  -0.68569  -0.68033
 Alpha  occ. eigenvalues --   -0.66647  -0.66322  -0.65400  -0.64503  -0.64110
 Alpha  occ. eigenvalues --   -0.63411  -0.63294  -0.62756  -0.62538  -0.61741
 Alpha  occ. eigenvalues --   -0.60915  -0.60575  -0.60262  -0.59432  -0.59309
 Alpha  occ. eigenvalues --   -0.58781  -0.58170  -0.57843  -0.57560  -0.57285
 Alpha  occ. eigenvalues --   -0.56487  -0.56251  -0.56040  -0.55462  -0.55080
 Alpha  occ. eigenvalues --   -0.54755  -0.54636  -0.54270  -0.54054  -0.53438
 Alpha  occ. eigenvalues --   -0.53102  -0.52523  -0.52104  -0.51950  -0.51575
 Alpha  occ. eigenvalues --   -0.51431  -0.51074  -0.50953  -0.50686  -0.50319
 Alpha  occ. eigenvalues --   -0.50214  -0.49974  -0.49769  -0.49605  -0.49463
 Alpha  occ. eigenvalues --   -0.49254  -0.49225  -0.48856  -0.48734  -0.48308
 Alpha  occ. eigenvalues --   -0.48217  -0.47901  -0.47824  -0.47644  -0.47539
 Alpha  occ. eigenvalues --   -0.47405  -0.47074  -0.46715  -0.46657  -0.46294
 Alpha  occ. eigenvalues --   -0.45928  -0.45814  -0.45552  -0.45436  -0.45158
 Alpha  occ. eigenvalues --   -0.44959  -0.44760  -0.44443  -0.44277  -0.44221
 Alpha  occ. eigenvalues --   -0.44169  -0.43649  -0.43559  -0.43360  -0.43085
 Alpha  occ. eigenvalues --   -0.43011  -0.42773  -0.42564  -0.42460  -0.42169
 Alpha  occ. eigenvalues --   -0.42155  -0.41812  -0.41664  -0.41596  -0.41330
 Alpha  occ. eigenvalues --   -0.40990  -0.40435  -0.40201  -0.40087  -0.39605
 Alpha  occ. eigenvalues --   -0.39574  -0.39291  -0.39023  -0.38684  -0.38530
 Alpha  occ. eigenvalues --   -0.38376  -0.38117  -0.38084  -0.37754  -0.37726
 Alpha  occ. eigenvalues --   -0.37462  -0.37277  -0.37081  -0.36605  -0.36252
 Alpha  occ. eigenvalues --   -0.36141  -0.36034  -0.35978  -0.35552  -0.35302
 Alpha  occ. eigenvalues --   -0.34378  -0.34214  -0.33878  -0.33248  -0.33229
 Alpha  occ. eigenvalues --   -0.32781  -0.32532  -0.32185  -0.31719  -0.30875
 Alpha  occ. eigenvalues --   -0.30516  -0.29700  -0.28280  -0.27286  -0.22872
 Alpha  occ. eigenvalues --   -0.21772
 Alpha virt. eigenvalues --   -0.06353  -0.03243   0.02059   0.04535   0.05475
 Alpha virt. eigenvalues --    0.06072   0.06323   0.06560   0.06778   0.07510
 Alpha virt. eigenvalues --    0.08513   0.10476   0.11294   0.11518   0.11586

 Mulliken charges:
               1
     1  Mg   0.817462
     2  C    0.040057
     3  C   -0.218470
     4  C   -0.133132
     5  C   -0.170630
     6  N   -0.631396
     7  C    0.318915
     8  C   -0.176366
     9  C   -0.127794
    10  C    0.330082
    11  C   -0.303777
    12  C   -0.158390
    13  C   -0.278207
    14  C    0.594226
    15  O   -0.511164
    16  O   -0.456524
    17  N   -0.692601
    18  C    0.336960
    19  C    0.014355
    20  C   -0.019821
    21  C    0.276318
    22  C   -0.340801
    23  C   -0.024362
    24  C   -0.263579
    25  N   -0.705484
    26  C    0.257934
    27  C    0.039624
    28  C   -0.026729
    29  C    0.321126
    30  C   -0.376640
    31  C   -0.215894
    32  C   -0.283357
    33  N   -0.714580
    34  C    0.217162
    35  C    0.042467
    36  C   -0.000549
    37  C    0.328737
    38  C   -0.379866
    39  C    0.366563
    40  O   -0.419077
    41  C   -0.345373
    42  C    0.657422
    43  O   -0.496691
    44  O   -0.435955
    45  C   -0.063502
    46  C    0.031978
    47  C   -0.155648
    48  C    0.115941
    49  C   -0.345527
    50  C   -0.210452
    51  C   -0.188639
    52  C   -0.161705
    53  C   -0.072324
    54  C   -0.313727
    55  C   -0.167051
    56  C   -0.179457
    57  C   -0.147945
    58  C   -0.068509
    59  C   -0.299270
    60  C   -0.196834
    61  C   -0.163191
    62  C   -0.172988
    63  C   -0.045668
    64  C   -0.284084
    65  C   -0.300038
    66  H    0.051368
    67  H    0.085833
    68  H    0.089549
    69  H    0.133391
    70  H    0.103280
    71  H    0.094328
    72  H    0.117891
    73  H    0.121935
    74  H    0.126563
    75  H    0.109221
    76  H    0.121516
    77  H    0.133767
    78  H    0.088409
    79  H    0.123642
    80  H    0.116463
    81  H    0.090850
    82  H    0.106568
    83  H    0.109816
    84  H    0.118727
    85  H    0.113322
    86  H    0.106780
    87  H    0.092673
    88  H    0.099592
    89  H    0.114992
    90  H    0.109758
    91  H    0.077543
    92  H    0.117274
    93  H    0.143301
    94  H    0.149504
    95  H    0.165615
    96  H    0.093531
    97  H    0.118352
    98  H    0.127414
    99  H    0.137816
   100  H    0.120297
   101  H    0.094756
   102  H    0.111904
   103  H    0.124473
   104  H    0.127724
   105  H    0.047179
   106  H    0.106674
   107  H    0.110626
   108  H    0.086597
   109  H    0.100443
   110  H    0.087966
   111  H    0.075339
   112  H    0.110677
   113  H    0.093995
   114  H    0.085951
   115  H    0.076940
   116  H    0.099600
   117  H    0.081177
   118  H    0.099040
   119  H    0.093252
   120  H    0.081668
   121  H    0.059458
   122  H    0.103607
   123  H    0.085353
   124  H    0.111577
   125  H    0.084359
   126  H    0.091046
   127  H    0.095781
   128  H    0.069508
   129  H    0.082948
   130  H    0.100777
   131  H    0.091838
   132  H    0.065443
   133  H    0.111719
   134  H    0.094475
   135  H    0.063479
   136  H    0.094608
   137  H    0.103600
 Sum of Mulliken charges =   0.00000

 Dipole moment (field-independent basis, Debye):
    X=              1.5158    Y=              3.5039    Z=              0.3780  Tot=              3.8364
 Quadrupole moment (field-independent basis, Debye-Ang):
   XX=           -351.7125   YY=           -387.5517   ZZ=           -401.1084
   XY=            -17.4812   XZ=              6.9444   YZ=              1.0689

 Normal termination of Gaussian 09 at Sun Jul  7 01:18:54 2019.
