 Gaussian 16, Revision A.03,
 Gaussian 16:  ES64L-G16RevA.03 25-Dec-2016

 ----------------------------------------------------------------------
 # td=(NStates=1) iop(3/107=0140000000,3/108=0140000000) CAM-B3LYP/6-31
 G(d,p)
 ----------------------------------------------------------------------

 --
 TD
 --
 Symbolic Z-matrix:
 Charge =  0 Multiplicity = 1

                         Standard orientation:
 ---------------------------------------------------------------------
 Center     Atomic      Atomic             Coordinates (Angstroms)
 Number     Number       Type             X           Y           Z
 ---------------------------------------------------------------------
      1         12           0       -7.167679    0.610450    0.168577
      2          6           0       -4.879559   -2.027343    0.449661
      3          6           0       -4.884345    2.793949    1.151593
      4          6           0       -9.383840    3.122708   -0.271633
      5          6           0       -9.436714   -1.656737   -0.895849
      6          7           0       -5.176460    0.341871    0.830965
      7          6           0       -4.392897   -0.772613    0.836627
      8          6           0       -2.933444   -0.354164    1.237443
      9          6           0       -3.016033    1.081995    1.699702
     10          6           0       -4.466929    1.438826    1.230125
     11          6           0       -2.918181    1.067429    3.324291
     12          6           0       -1.846028   -0.618530    0.165924
     13          6           0       -0.497270   -0.371562    0.535398
     14          6           0        0.485857   -0.559206   -0.629701
     15          8           0        0.163945   -0.810455   -1.709888
     16          8           0        1.739511   -0.321653   -0.260632
     17          7           0       -7.110181    2.526863    0.367019
     18          6           0       -6.105928    3.287379    0.875185
     19          6           0       -6.363631    4.710032    0.930913
     20          6           0       -7.680703    4.856826    0.486391
     21          6           0       -8.111003    3.469779    0.195007
     22          6           0       -5.414623    5.876823    1.268350
     23          6           0       -8.483483    6.010801    0.197965
     24          6           0       -8.299491    7.322823    0.665553
     25          7           0       -9.067840    0.641916   -0.502689
     26          6           0       -9.843810    1.814266   -0.727224
     27          6           0      -11.183890    1.507099   -1.125144
     28          6           0      -11.177386    0.137529   -1.354249
     29          6           0       -9.837538   -0.370158   -0.872182
     30          6           0      -12.219447    2.497339   -1.558192
     31          6           0      -12.306049   -0.628892   -1.864808
     32          6           0      -12.239334   -0.921815   -3.352336
     33          7           0       -7.243629   -1.434758   -0.205472
     34          6           0       -8.270587   -2.222583   -0.600379
     35          6           0       -7.869464   -3.687703   -0.493240
     36          6           0       -6.508070   -3.544786   -0.080745
     37          6           0       -6.216575   -2.179576    0.095155
     38          6           0       -8.592971   -4.793957   -0.800884
     39          6           0       -5.355356   -4.315122    0.130735
     40          8           0       -5.160575   -5.580741    0.052745
     41          6           0       -4.280090   -3.381243    0.597282
     42          6           0       -3.653377   -3.695601    1.909649
     43          8           0       -3.816780   -3.160130    2.951345
     44          8           0       -2.865199   -4.860037    1.770641
     45          6           0       -2.234364   -5.258965    2.974913
     46          6           0        2.757402   -0.564039   -1.284710
     47          6           0        4.144391   -0.440030   -0.656524
     48          6           0        5.136208    0.362526   -1.077595
     49          6           0        5.074207    1.338375   -2.277782
     50          6           0        6.484688    0.396741   -0.377250
     51          6           0        7.639954   -0.147900   -1.173852
     52          6           0        8.770276   -0.090430   -0.247668
     53          6           0       10.086239   -0.675922   -0.826948
     54          6           0       10.038853   -2.139146   -1.109105
     55          6           0       11.423260   -0.334202   -0.052616
     56          6           0       12.814235   -0.679636   -0.785009
     57          6           0       14.002845   -0.267367    0.110388
     58          6           0       15.430990   -0.198727   -0.496544
     59          6           0       15.745169   -1.549859   -0.997402
     60          6           0       16.381740    0.469975    0.419003
     61          6           0       17.770598    0.709588   -0.224442
     62          6           0       18.788662    1.380443    0.765692
     63          6           0       20.232699    1.303260    0.298919
     64          6           0       20.441931    2.215212   -0.982964
     65          6           0       21.093744    1.834340    1.460148
     66          1           0       -4.033129    3.596454    1.459834
     67          1           0       -9.916635    4.010485   -0.562013
     68          1           0      -10.139596   -2.410932   -1.361065
     69          1           0       -2.603724   -1.159662    2.283903
     70          1           0       -2.188121    1.743737    1.312022
     71          1           0       -1.889089    0.713339    3.640160
     72          1           0       -3.194730    1.913651    3.797006
     73          1           0       -3.625936    0.338906    3.591920
     74          1           0       -1.927335   -1.712339   -0.102027
     75          1           0       -2.118074    0.063850   -0.605252
     76          1           0       -0.231613    0.400488    0.981920
     77          1           0       -0.056232   -1.185542    1.237277
     78          1           0       -5.458285    6.559876    0.579572
     79          1           0       -5.384707    6.326211    2.274689
     80          1           0       -4.363666    5.504049    1.379848
     81          1           0       -9.382682    5.717602   -0.432491
     82          1           0       -8.877358    8.166028    0.390249
     83          1           0       -7.512582    7.623247    1.347564
     84          1           0      -11.970957    3.123502   -2.350238
     85          1           0      -13.314536    2.144649   -1.589153
     86          1           0      -12.376448    3.408934   -0.711532
     87          1           0      -12.077740   -1.521573   -1.278273
     88          1           0      -13.189559   -0.176987   -1.513382
     89          1           0      -13.103590   -1.466658   -3.697937
     90          1           0      -12.031083   -0.136512   -4.008997
     91          1           0      -11.341995   -1.653662   -3.332823
     92          1           0       -8.867588   -4.779780   -1.679640
     93          1           0       -8.370922   -5.989157   -0.569788
     94          1           0       -9.781124   -4.701416   -0.404241
     95          1           0       -3.667561   -3.530567   -0.040486
     96          1           0       -1.590039   -4.507074    3.277070
     97          1           0       -2.864951   -5.773175    3.833519
     98          1           0       -1.469868   -6.098124    2.701844
     99          1           0        2.616088   -1.587884   -1.526731
    100          1           0        2.519046    0.159459   -2.144652
    101          1           0        4.235151   -1.276765    0.150920
    102          1           0        4.145892    1.603733   -2.590575
    103          1           0        5.647705    2.186944   -2.038659
    104          1           0        5.673156    0.696037   -3.102355
    105          1           0        6.631536    1.478391   -0.179888
    106          1           0        6.334951   -0.046322    0.632399
    107          1           0        7.486454   -1.195283   -1.320758
    108          1           0        7.747730    0.563543   -2.072660
    109          1           0        8.919876    0.978882    0.207842
    110          1           0        8.430831   -0.676210    0.639139
    111          1           0       10.269213    0.019184   -1.707910
    112          1           0        9.451710   -2.595148   -1.840715
    113          1           0       11.077997   -2.516391   -1.444596
    114          1           0       10.051329   -2.696968   -0.209238
    115          1           0       11.321021    0.668090    0.256244
    116          1           0       11.516555   -0.881375    0.928658
    117          1           0       12.839934   -1.810742   -0.876540
    118          1           0       12.847682   -0.236108   -1.808289
    119          1           0       13.778446    0.817537    0.500377
    120          1           0       13.946269   -0.812247    0.993212
    121          1           0       15.333499    0.393096   -1.469013
    122          1           0       15.817407   -2.315393   -0.132055
    123          1           0       15.119098   -1.947791   -1.703527
    124          1           0       16.698468   -1.655874   -1.448379
    125          1           0       15.985073    1.464253    0.558695
    126          1           0       16.388582   -0.130823    1.387756
    127          1           0       18.140582   -0.251021   -0.452178
    128          1           0       17.798571    1.380188   -1.051789
    129          1           0       18.420767    2.283413    0.981428
    130          1           0       18.615809    0.685746    1.621558
    131          1           0       20.558984    0.262711    0.107642
    132          1           0       19.962512    3.143783   -0.702825
    133          1           0       21.512224    2.407536   -1.265564
    134          1           0       19.822550    1.926430   -1.923527
    135          1           0       20.940008    1.150183    2.368248
    136          1           0       22.217166    1.727746    1.276770
    137          1           0       20.764039    2.741600    1.776878
 ---------------------------------------------------------------------

 SCF Done:  E(RCAM-B3LYP) =  -2933.51419605     A.U. after   16 cycles

 Excitation energies and oscillator strengths:

 Excited State   1:      Singlet-A      2.0370 eV  608.66 nm  f=0.2331  <S**2>=0.000
     240 -> 243        0.25266
     241 -> 242        0.65328
 This state for optimization and/or second-order correction.
 Total Energy, E(TD-HF/TD-DFT) =  -2933.43933799
 Copying the excited state density for this state as the 1-particle RhoCI density.

 The electronic state is 1-A.
 Alpha  occ. eigenvalues --  -46.79501 -19.20837 -19.20638 -19.17391 -19.15659
 Alpha  occ. eigenvalues --  -19.14413 -14.38143 -14.35601 -14.35097 -14.34898
 Alpha  occ. eigenvalues --  -10.34355 -10.32816 -10.28986 -10.27322 -10.27068
 Alpha  occ. eigenvalues --  -10.26697 -10.26448 -10.25223 -10.25155 -10.25081
 Alpha  occ. eigenvalues --  -10.24654 -10.24653 -10.24593 -10.24449 -10.24160
 Alpha  occ. eigenvalues --  -10.24118 -10.23672 -10.23398 -10.23258 -10.23172
 Alpha  occ. eigenvalues --  -10.23144 -10.22691 -10.22398 -10.22391 -10.22249
 Alpha  occ. eigenvalues --  -10.22235 -10.22184 -10.22171 -10.21989 -10.21897
 Alpha  occ. eigenvalues --  -10.21887 -10.21877 -10.21868 -10.21784 -10.21644
 Alpha  occ. eigenvalues --  -10.21603 -10.21592 -10.21492 -10.21423 -10.21390
 Alpha  occ. eigenvalues --  -10.21130 -10.21013 -10.20981 -10.20957 -10.20926
 Alpha  occ. eigenvalues --  -10.20776 -10.20690 -10.20555 -10.20516 -10.20419
 Alpha  occ. eigenvalues --  -10.19959 -10.19721 -10.19604 -10.19436 -10.18846
 Alpha  occ. eigenvalues --   -3.08362  -1.83277  -1.82822  -1.82812  -1.14114
 Alpha  occ. eigenvalues --   -1.12485  -1.05400  -1.04744  -1.01815  -1.00200
 Alpha  occ. eigenvalues --   -0.99193  -0.98389  -0.97424  -0.89481  -0.86725
 Alpha  occ. eigenvalues --   -0.85796  -0.85669  -0.84618  -0.84385  -0.84231
 Alpha  occ. eigenvalues --   -0.83943  -0.83663  -0.83331  -0.82670  -0.81273
 Alpha  occ. eigenvalues --   -0.80504  -0.79647  -0.79045  -0.78172  -0.77588
 Alpha  occ. eigenvalues --   -0.77223  -0.76723  -0.75843  -0.75540  -0.74067
 Alpha  occ. eigenvalues --   -0.73481  -0.72419  -0.71879  -0.71662  -0.71265
 Alpha  occ. eigenvalues --   -0.71233  -0.70482  -0.70145  -0.68808  -0.68098
 Alpha  occ. eigenvalues --   -0.67905  -0.66436  -0.65912  -0.65213  -0.64700
 Alpha  occ. eigenvalues --   -0.63703  -0.62392  -0.60869  -0.60469  -0.60036
 Alpha  occ. eigenvalues --   -0.59529  -0.59290  -0.58845  -0.58696  -0.57963
 Alpha  occ. eigenvalues --   -0.57727  -0.56741  -0.56249  -0.55833  -0.55619
 Alpha  occ. eigenvalues --   -0.55211  -0.54888  -0.54339  -0.53752  -0.53280
 Alpha  occ. eigenvalues --   -0.53077  -0.52241  -0.51597  -0.51481  -0.51150
 Alpha  occ. eigenvalues --   -0.50827  -0.50339  -0.49911  -0.49827  -0.49372
 Alpha  occ. eigenvalues --   -0.49245  -0.49105  -0.48917  -0.48327  -0.48251
 Alpha  occ. eigenvalues --   -0.47993  -0.47750  -0.47524  -0.47283  -0.47154
 Alpha  occ. eigenvalues --   -0.47056  -0.46758  -0.46330  -0.46067  -0.45970
 Alpha  occ. eigenvalues --   -0.45803  -0.45438  -0.45179  -0.44990  -0.44660
 Alpha  occ. eigenvalues --   -0.44547  -0.44382  -0.44231  -0.43980  -0.43745
 Alpha  occ. eigenvalues --   -0.43565  -0.43354  -0.43112  -0.43020  -0.42899
 Alpha  occ. eigenvalues --   -0.42557  -0.42390  -0.42263  -0.42144  -0.42021
 Alpha  occ. eigenvalues --   -0.41705  -0.41512  -0.41487  -0.40987  -0.40828
 Alpha  occ. eigenvalues --   -0.40710  -0.40481  -0.40302  -0.40268  -0.40107
 Alpha  occ. eigenvalues --   -0.39761  -0.39389  -0.39154  -0.38908  -0.38869
 Alpha  occ. eigenvalues --   -0.38627  -0.38395  -0.38324  -0.38163  -0.37723
 Alpha  occ. eigenvalues --   -0.37647  -0.37547  -0.37315  -0.37108  -0.36929
 Alpha  occ. eigenvalues --   -0.36768  -0.36639  -0.36557  -0.36170  -0.36051
 Alpha  occ. eigenvalues --   -0.35864  -0.35777  -0.35575  -0.35498  -0.35255
 Alpha  occ. eigenvalues --   -0.34972  -0.34542  -0.34066  -0.33860  -0.33592
 Alpha  occ. eigenvalues --   -0.33385  -0.33229  -0.33223  -0.33042  -0.32676
 Alpha  occ. eigenvalues --   -0.32561  -0.31895  -0.31820  -0.30831  -0.30659
 Alpha  occ. eigenvalues --   -0.30633  -0.30068  -0.29688  -0.28233  -0.26995
 Alpha  occ. eigenvalues --   -0.26289  -0.25810  -0.25775  -0.25144  -0.21653
 Alpha  occ. eigenvalues --   -0.19836
 Alpha virt. eigenvalues --   -0.06856  -0.04390  -0.00684   0.01400   0.04038
 Alpha virt. eigenvalues --    0.04496   0.04695   0.04865   0.05338   0.06320
 Alpha virt. eigenvalues --    0.07402   0.08678   0.09265   0.09529   0.09926

 Mulliken charges:
               1
     1  Mg   0.828870
     2  C   -0.000809
     3  C   -0.220857
     4  C   -0.172431
     5  C   -0.202857
     6  N   -0.632119
     7  C    0.321817
     8  C   -0.155288
     9  C   -0.145600
    10  C    0.318466
    11  C   -0.311710
    12  C   -0.145192
    13  C   -0.237825
    14  C    0.577257
    15  O   -0.440754
    16  O   -0.480495
    17  N   -0.718710
    18  C    0.348639
    19  C    0.025947
    20  C    0.054078
    21  C    0.272374
    22  C   -0.370411
    23  C   -0.090814
    24  C   -0.256447
    25  N   -0.690260
    26  C    0.239307
    27  C    0.071145
    28  C    0.010706
    29  C    0.366112
    30  C   -0.387711
    31  C   -0.256478
    32  C   -0.298142
    33  N   -0.731120
    34  C    0.268200
    35  C    0.118950
    36  C    0.035721
    37  C    0.363869
    38  C   -0.413079
    39  C    0.276480
    40  O   -0.508109
    41  C   -0.195686
    42  C    0.615927
    43  O   -0.440358
    44  O   -0.455119
    45  C   -0.074805
    46  C    0.013117
    47  C   -0.137127
    48  C    0.105248
    49  C   -0.345568
    50  C   -0.238286
    51  C   -0.145142
    52  C   -0.173929
    53  C   -0.037465
    54  C   -0.329365
    55  C   -0.191621
    56  C   -0.180747
    57  C   -0.165960
    58  C   -0.048130
    59  C   -0.308403
    60  C   -0.165003
    61  C   -0.195553
    62  C   -0.172053
    63  C   -0.050151
    64  C   -0.315087
    65  C   -0.301912
    66  H    0.071637
    67  H    0.065142
    68  H    0.068554
    69  H    0.066445
    70  H    0.101686
    71  H    0.104734
    72  H    0.112063
    73  H    0.137652
    74  H    0.107948
    75  H    0.119148
    76  H    0.123364
    77  H    0.110500
    78  H    0.141074
    79  H    0.123901
    80  H    0.098886
    81  H    0.089512
    82  H    0.111575
    83  H    0.108231
    84  H    0.143739
    85  H    0.112493
    86  H    0.076955
    87  H    0.107909
    88  H    0.106348
    89  H    0.108220
    90  H    0.122787
    91  H    0.092082
    92  H    0.155198
    93  H    0.145678
    94  H    0.083472
    95  H    0.144337
    96  H    0.123597
    97  H    0.113397
    98  H    0.102309
    99  H    0.126379
   100  H    0.111551
   101  H    0.081777
   102  H    0.121701
   103  H    0.118750
   104  H    0.111043
   105  H    0.098377
   106  H    0.100315
   107  H    0.114481
   108  H    0.091887
   109  H    0.070921
   110  H    0.085681
   111  H    0.075074
   112  H    0.110818
   113  H    0.086862
   114  H    0.112162
   115  H    0.092307
   116  H    0.076021
   117  H    0.095345
   118  H    0.088524
   119  H    0.061541
   120  H    0.096761
   121  H    0.070545
   122  H    0.072385
   123  H    0.113976
   124  H    0.099103
   125  H    0.094876
   126  H    0.080867
   127  H    0.099962
   128  H    0.095020
   129  H    0.097001
   130  H    0.083540
   131  H    0.085000
   132  H    0.102382
   133  H    0.100085
   134  H    0.091567
   135  H    0.086798
   136  H    0.088566
   137  H    0.111936
 Sum of Mulliken charges =  -0.00000

 Dipole moment (field-independent basis, Debye):
    X=              1.9327    Y=              5.4215    Z=             -0.1957  Tot=              5.7590
 Quadrupole moment (field-independent basis, Debye-Ang):
   XX=           -341.1617   YY=           -391.7022   ZZ=           -397.3154
   XY=            -23.5737   XZ=             13.9671   YZ=             -0.3605

 Normal termination of Gaussian 16 at Thu Sep 12 18:38:16 2019.
