 Gaussian 16, Revision A.03,
 Gaussian 16:  ES64L-G16RevA.03 25-Dec-2016

 ----------------------------------------------------------------------
 # td=(NStates=1) iop(3/107=0140000000,3/108=0140000000) CAM-B3LYP/6-31
 G(d,p)
 ----------------------------------------------------------------------

 --
 TD
 --
 Symbolic Z-matrix:
 Charge =  0 Multiplicity = 1

                         Standard orientation:
 ---------------------------------------------------------------------
 Center     Atomic      Atomic             Coordinates (Angstroms)
 Number     Number       Type             X           Y           Z
 ---------------------------------------------------------------------
      1         12           0       -6.999320    0.610740    0.057649
      2          6           0       -4.804003   -1.970182    0.632200
      3          6           0       -4.808036    2.818576    1.122273
      4          6           0       -9.277475    3.127236   -0.491595
      5          6           0       -9.490661   -1.735905   -0.788815
      6          7           0       -5.126024    0.478351    0.789299
      7          6           0       -4.352835   -0.714024    0.788793
      8          6           0       -2.970799   -0.352901    1.345638
      9          6           0       -3.054187    1.074778    1.621817
     10          6           0       -4.376307    1.482901    1.038348
     11          6           0       -3.015898    1.227944    3.195130
     12          6           0       -1.984846   -0.652174    0.050862
     13          6           0       -0.513623   -0.330691    0.468707
     14          6           0        0.513854   -0.554680   -0.623552
     15          8           0        0.178918   -0.951637   -1.812535
     16          8           0        1.698002   -0.355009   -0.225118
     17          7           0       -7.049458    2.626168    0.245943
     18          6           0       -6.041401    3.378603    0.805249
     19          6           0       -6.384489    4.803397    0.903627
     20          6           0       -7.688606    4.911375    0.388857
     21          6           0       -8.064194    3.445423    0.060710
     22          6           0       -5.577359    5.820133    1.341549
     23          6           0       -8.494242    6.026389    0.135895
     24          6           0       -8.308162    7.248447    0.830790
     25          7           0       -9.029078    0.661476   -0.574150
     26          6           0       -9.792284    1.852209   -0.816893
     27          6           0      -11.163880    1.508484   -1.198385
     28          6           0      -11.243692    0.132790   -1.297978
     29          6           0       -9.908626   -0.327808   -0.858053
     30          6           0      -12.222115    2.461942   -1.454449
     31          6           0      -12.324993   -0.697084   -1.742869
     32          6           0      -12.240819   -1.051938   -3.257212
     33          7           0       -7.174547   -1.473298   -0.068004
     34          6           0       -8.276694   -2.348047   -0.521371
     35          6           0       -7.853485   -3.667551   -0.352122
     36          6           0       -6.476722   -3.586191   -0.044285
     37          6           0       -6.172657   -2.213805    0.233246
     38          6           0       -8.672878   -4.862173   -0.729971
     39          6           0       -5.334302   -4.425076    0.172269
     40          8           0       -5.154717   -5.643254    0.125165
     41          6           0       -4.097981   -3.341268    0.646414
     42          6           0       -3.474851   -3.789278    1.918178
     43          8           0       -3.681680   -3.135472    2.945566
     44          8           0       -2.772851   -4.923210    1.711117
     45          6           0       -2.198886   -5.336692    2.971795
     46          6           0        2.770610   -0.608509   -1.207989
     47          6           0        4.110340   -0.435467   -0.628667
     48          6           0        5.128788    0.323319   -1.052702
     49          6           0        5.052557    1.290461   -2.250789
     50          6           0        6.392319    0.358993   -0.343279
     51          6           0        7.700150   -0.165270   -1.090837
     52          6           0        8.924896   -0.076817   -0.305918
     53          6           0       10.176101   -0.511106   -0.941308
     54          6           0       10.114624   -1.966716   -1.526891
     55          6           0       11.393504   -0.334544   -0.089408
     56          6           0       12.734263   -0.658433   -0.718410
     57          6           0       13.992216   -0.149112    0.205941
     58          6           0       15.336522   -0.279914   -0.444102
     59          6           0       15.732426   -1.750977   -0.721754
     60          6           0       16.387098    0.415585    0.534911
     61          6           0       17.771440    0.484992   -0.136137
     62          6           0       18.630683    1.310615    0.742166
     63          6           0       20.081734    1.452702    0.347664
     64          6           0       20.248391    2.213853   -1.064012
     65          6           0       20.981457    2.006899    1.446350
     66          1           0       -4.106213    3.565311    1.761254
     67          1           0       -9.654581    3.943496   -0.807454
     68          1           0      -10.189835   -2.246232   -1.328563
     69          1           0       -2.724021   -0.860524    2.129516
     70          1           0       -2.430409    1.608872    1.181002
     71          1           0       -2.069104    0.878605    3.507844
     72          1           0       -3.011296    2.186139    3.693713
     73          1           0       -3.809058    0.429433    3.616029
     74          1           0       -1.967915   -1.784199   -0.216822
     75          1           0       -2.314953   -0.122573   -0.811688
     76          1           0       -0.290647    0.691683    0.719885
     77          1           0       -0.089973   -0.876990    1.364647
     78          1           0       -5.803638    6.910569    0.951920
     79          1           0       -5.761934    6.347267    2.465788
     80          1           0       -4.499806    5.677270    1.101550
     81          1           0       -9.199923    5.979091   -0.457892
     82          1           0       -9.106627    8.097438    0.668248
     83          1           0       -7.587865    7.340040    1.813901
     84          1           0      -11.833906    2.986129   -2.507245
     85          1           0      -13.371751    2.167816   -1.473037
     86          1           0      -12.262675    3.216571   -0.572893
     87          1           0      -12.254027   -1.627015   -1.204421
     88          1           0      -13.342926   -0.184575   -1.656183
     89          1           0      -12.762175   -1.985212   -3.585546
     90          1           0      -12.232852    0.086842   -3.603060
     91          1           0      -11.277781   -1.382190   -3.555677
     92          1           0       -8.776155   -5.126117   -1.803497
     93          1           0       -8.103249   -5.659797   -0.306375
     94          1           0       -9.689427   -4.735022   -0.130207
     95          1           0       -3.453902   -3.587202   -0.258144
     96          1           0       -1.737700   -4.351851    3.577089
     97          1           0       -2.960143   -5.647050    3.668618
     98          1           0       -1.322111   -6.105743    2.766330
     99          1           0        2.543179   -1.581832   -1.576024
    100          1           0        2.603061    0.103989   -2.016469
    101          1           0        4.235139   -1.150299    0.317295
    102          1           0        4.030460    1.075159   -2.933722
    103          1           0        4.935780    2.385446   -1.831314
    104          1           0        5.895693    1.152568   -2.961101
    105          1           0        6.502693    1.585012   -0.242437
    106          1           0        6.424274   -0.265915    0.584837
    107          1           0        7.665310   -1.032363   -1.301056
    108          1           0        7.763877    0.341646   -2.059047
    109          1           0        8.983409    1.028914   -0.001257
    110          1           0        8.781830   -0.674540    0.752788
    111          1           0       10.280969    0.155277   -1.831914
    112          1           0        9.105018   -2.099534   -2.150053
    113          1           0       10.758371   -2.288004   -2.292351
    114          1           0       10.043619   -2.695104   -0.782621
    115          1           0       11.484816    0.672425    0.321103
    116          1           0       11.190123   -0.781879    0.862376
    117          1           0       12.802101   -1.687345   -0.871692
    118          1           0       12.835116   -0.057397   -1.752978
    119          1           0       13.664975    0.756508    0.474333
    120          1           0       14.046572   -0.556582    1.093139
    121          1           0       15.674197    0.178799   -1.386653
    122          1           0       15.658103   -2.352942    0.196077
    123          1           0       15.074392   -2.098142   -1.493033
    124          1           0       16.729359   -1.912098   -1.487217
    125          1           0       16.028963    1.618608    0.467511
    126          1           0       16.285359   -0.072824    1.486877
    127          1           0       18.147265   -0.533083   -0.000817
    128          1           0       17.848252    0.834892   -1.201899
    129          1           0       18.278323    2.388379    1.173586
    130          1           0       18.561075    0.876852    1.744137
    131          1           0       20.355042    0.408391   -0.141061
    132          1           0       19.765685    3.183767   -1.029926
    133          1           0       21.230241    2.397589   -1.215855
    134          1           0       19.752773    1.420387   -1.846696
    135          1           0       20.763633    1.400587    2.546259
    136          1           0       22.007984    2.015450    1.097973
    137          1           0       20.693854    3.017602    1.685556
 ---------------------------------------------------------------------

 SCF Done:  E(RCAM-B3LYP) =  -2933.36974182     A.U. after   15 cycles

 Excitation energies and oscillator strengths:

 Excited State   1:      Singlet-A      1.9485 eV  636.31 nm  f=0.2750  <S**2>=0.000
     240 -> 243        0.18034
     241 -> 242        0.67897
 This state for optimization and/or second-order correction.
 Total Energy, E(TD-HF/TD-DFT) =  -2933.29813633
 Copying the excited state density for this state as the 1-particle RhoCI density.

 The electronic state is 1-A.
 Alpha  occ. eigenvalues --  -46.80179 -19.23098 -19.23046 -19.16202 -19.15707
 Alpha  occ. eigenvalues --  -19.14189 -14.37463 -14.35444 -14.35220 -14.34656
 Alpha  occ. eigenvalues --  -10.34078 -10.33543 -10.30100 -10.28222 -10.27397
 Alpha  occ. eigenvalues --  -10.26039 -10.25914 -10.25538 -10.25025 -10.24958
 Alpha  occ. eigenvalues --  -10.24871 -10.24797 -10.24664 -10.24234 -10.24107
 Alpha  occ. eigenvalues --  -10.24102 -10.23791 -10.23708 -10.23639 -10.23360
 Alpha  occ. eigenvalues --  -10.23323 -10.23157 -10.22954 -10.22910 -10.22869
 Alpha  occ. eigenvalues --  -10.22715 -10.22557 -10.22551 -10.22444 -10.22103
 Alpha  occ. eigenvalues --  -10.22064 -10.22042 -10.22009 -10.21994 -10.21926
 Alpha  occ. eigenvalues --  -10.21863 -10.21848 -10.21820 -10.21649 -10.21575
 Alpha  occ. eigenvalues --  -10.21540 -10.21496 -10.21412 -10.21381 -10.21095
 Alpha  occ. eigenvalues --  -10.20969 -10.20843 -10.20636 -10.20483 -10.20469
 Alpha  occ. eigenvalues --  -10.20460 -10.20278 -10.20105 -10.19482 -10.19201
 Alpha  occ. eigenvalues --   -3.08766  -1.83712  -1.83233  -1.83174  -1.14909
 Alpha  occ. eigenvalues --   -1.12757  -1.04375  -1.03767  -1.00746  -0.99281
 Alpha  occ. eigenvalues --   -0.99127  -0.98135  -0.96246  -0.87531  -0.86072
 Alpha  occ. eigenvalues --   -0.85942  -0.85556  -0.85202  -0.85078  -0.84272
 Alpha  occ. eigenvalues --   -0.83632  -0.83219  -0.82525  -0.82043  -0.81750
 Alpha  occ. eigenvalues --   -0.80408  -0.79856  -0.78485  -0.78273  -0.78167
 Alpha  occ. eigenvalues --   -0.77320  -0.76004  -0.75444  -0.75126  -0.73001
 Alpha  occ. eigenvalues --   -0.72561  -0.71803  -0.71573  -0.71330  -0.70775
 Alpha  occ. eigenvalues --   -0.70628  -0.69841  -0.69715  -0.69202  -0.68288
 Alpha  occ. eigenvalues --   -0.67537  -0.66930  -0.65493  -0.64893  -0.63899
 Alpha  occ. eigenvalues --   -0.62985  -0.62762  -0.62387  -0.61375  -0.61178
 Alpha  occ. eigenvalues --   -0.59575  -0.59387  -0.59240  -0.58720  -0.58337
 Alpha  occ. eigenvalues --   -0.57525  -0.57001  -0.56244  -0.55811  -0.55355
 Alpha  occ. eigenvalues --   -0.54606  -0.54270  -0.53674  -0.53452  -0.52627
 Alpha  occ. eigenvalues --   -0.52518  -0.52186  -0.51756  -0.51418  -0.51099
 Alpha  occ. eigenvalues --   -0.50657  -0.50318  -0.49808  -0.49677  -0.49347
 Alpha  occ. eigenvalues --   -0.49168  -0.48874  -0.48715  -0.48135  -0.47925
 Alpha  occ. eigenvalues --   -0.47862  -0.47511  -0.47193  -0.46959  -0.46721
 Alpha  occ. eigenvalues --   -0.46576  -0.46485  -0.46032  -0.45805  -0.45748
 Alpha  occ. eigenvalues --   -0.45515  -0.45362  -0.45295  -0.44803  -0.44634
 Alpha  occ. eigenvalues --   -0.44519  -0.44324  -0.43963  -0.43817  -0.43581
 Alpha  occ. eigenvalues --   -0.43212  -0.43031  -0.42572  -0.42358  -0.42169
 Alpha  occ. eigenvalues --   -0.41896  -0.41794  -0.41655  -0.41387  -0.41275
 Alpha  occ. eigenvalues --   -0.41195  -0.41167  -0.40858  -0.40609  -0.40489
 Alpha  occ. eigenvalues --   -0.40298  -0.40083  -0.39979  -0.39827  -0.39648
 Alpha  occ. eigenvalues --   -0.39628  -0.39454  -0.39350  -0.39291  -0.39058
 Alpha  occ. eigenvalues --   -0.38866  -0.38602  -0.38277  -0.38091  -0.37949
 Alpha  occ. eigenvalues --   -0.37773  -0.37553  -0.37409  -0.37351  -0.36979
 Alpha  occ. eigenvalues --   -0.36693  -0.36629  -0.36388  -0.36148  -0.36052
 Alpha  occ. eigenvalues --   -0.35892  -0.35665  -0.35464  -0.35056  -0.34926
 Alpha  occ. eigenvalues --   -0.34850  -0.34309  -0.33985  -0.33749  -0.33686
 Alpha  occ. eigenvalues --   -0.33133  -0.33111  -0.32855  -0.32719  -0.32591
 Alpha  occ. eigenvalues --   -0.32409  -0.31537  -0.30529  -0.30163  -0.29802
 Alpha  occ. eigenvalues --   -0.29660  -0.29516  -0.28629  -0.28083  -0.27052
 Alpha  occ. eigenvalues --   -0.26473  -0.25629  -0.25180  -0.24707  -0.22168
 Alpha  occ. eigenvalues --   -0.19365
 Alpha virt. eigenvalues --   -0.06993  -0.03990  -0.00238   0.01615   0.02817
 Alpha virt. eigenvalues --    0.03691   0.04269   0.05025   0.05133   0.05749
 Alpha virt. eigenvalues --    0.06772   0.08035   0.08674   0.09175   0.09579

 Mulliken charges:
               1
     1  Mg   0.808371
     2  C    0.125823
     3  C   -0.240431
     4  C   -0.138773
     5  C   -0.161887
     6  N   -0.634210
     7  C    0.249844
     8  C   -0.137427
     9  C   -0.072954
    10  C    0.351078
    11  C   -0.327328
    12  C   -0.179156
    13  C   -0.269435
    14  C    0.584999
    15  O   -0.545090
    16  O   -0.424551
    17  N   -0.704986
    18  C    0.322796
    19  C    0.141971
    20  C    0.011793
    21  C    0.295490
    22  C   -0.450271
    23  C   -0.038872
    24  C   -0.250867
    25  N   -0.646842
    26  C    0.260260
    27  C    0.049997
    28  C    0.079429
    29  C    0.263504
    30  C   -0.384323
    31  C   -0.270717
    32  C   -0.310224
    33  N   -0.729432
    34  C    0.256822
    35  C    0.019288
    36  C    0.020857
    37  C    0.344691
    38  C   -0.371032
    39  C    0.314501
    40  O   -0.469608
    41  C   -0.359441
    42  C    0.667677
    43  O   -0.496157
    44  O   -0.425711
    45  C   -0.096607
    46  C    0.011012
    47  C   -0.141436
    48  C    0.164910
    49  C   -0.364094
    50  C   -0.222550
    51  C   -0.145688
    52  C   -0.162363
    53  C   -0.039621
    54  C   -0.332222
    55  C   -0.175580
    56  C   -0.182318
    57  C   -0.163673
    58  C   -0.057549
    59  C   -0.313977
    60  C   -0.169402
    61  C   -0.182905
    62  C   -0.135534
    63  C   -0.050061
    64  C   -0.307106
    65  C   -0.304624
    66  H    0.071757
    67  H    0.045292
    68  H    0.077523
    69  H    0.110140
    70  H    0.089740
    71  H    0.118172
    72  H    0.110620
    73  H    0.118142
    74  H    0.115635
    75  H    0.128685
    76  H    0.129334
    77  H    0.126012
    78  H    0.119918
    79  H    0.096524
    80  H    0.117216
    81  H    0.077272
    82  H    0.099151
    83  H    0.095737
    84  H    0.103718
    85  H    0.110932
    86  H    0.114371
    87  H    0.105803
    88  H    0.102105
    89  H    0.109794
    90  H    0.099245
    91  H    0.115670
    92  H    0.133481
    93  H    0.147845
    94  H    0.106876
    95  H    0.155425
    96  H    0.105285
    97  H    0.147394
    98  H    0.117293
    99  H    0.144980
   100  H    0.120246
   101  H    0.076497
   102  H    0.091410
   103  H    0.120901
   104  H    0.131281
   105  H    0.074690
   106  H    0.100167
   107  H    0.108934
   108  H    0.081454
   109  H    0.082171
   110  H    0.052169
   111  H    0.079297
   112  H    0.072710
   113  H    0.118898
   114  H    0.113577
   115  H    0.083455
   116  H    0.087355
   117  H    0.108025
   118  H    0.073383
   119  H    0.100129
   120  H    0.095149
   121  H    0.079649
   122  H    0.098995
   123  H    0.114416
   124  H    0.068930
   125  H    0.061870
   126  H    0.094380
   127  H    0.110482
   128  H    0.094567
   129  H    0.051504
   130  H    0.084814
   131  H    0.064240
   132  H    0.100712
   133  H    0.111034
   134  H    0.078852
   135  H    0.068444
   136  H    0.107530
   137  H    0.112521
 Sum of Mulliken charges =  -0.00000

 Dipole moment (field-independent basis, Debye):
    X=              3.0746    Y=              4.9782    Z=              0.5691  Tot=              5.8787
 Quadrupole moment (field-independent basis, Debye-Ang):
   XX=           -351.1054   YY=           -394.1247   ZZ=           -397.2107
   XY=            -28.5237   XZ=              7.3872   YZ=              0.0088

 Normal termination of Gaussian 16 at Mon Sep  9 12:14:36 2019.
