 Gaussian 09, Revision D.01,
 Gaussian 09:  ES64L-G09RevD.01 24-Apr-2013

 -------------------------------------
 # td=(NStates=1) CAM-B3LYP/6-31G(d,p)
 -------------------------------------

 --
 TD
 --
 Symbolic Z-matrix:
 Charge =  0 Multiplicity = 1

                         Standard orientation:
 ---------------------------------------------------------------------
 Center     Atomic      Atomic             Coordinates (Angstroms)
 Number     Number       Type             X           Y           Z
 ---------------------------------------------------------------------
      1         12           0       -7.137999    0.598749   -0.065174
      2          6           0       -4.833399   -1.811466    0.470525
      3          6           0       -4.873631    2.906092    1.089679
      4          6           0       -9.557946    3.031545   -0.293034
      5          6           0       -9.505659   -1.756928   -0.787350
      6          7           0       -5.125825    0.528472    0.628319
      7          6           0       -4.294775   -0.618053    0.663437
      8          6           0       -2.928337   -0.320178    1.184024
      9          6           0       -2.959155    1.172166    1.533457
     10          6           0       -4.401280    1.593368    1.058381
     11          6           0       -3.048751    1.411161    3.051350
     12          6           0       -1.839683   -0.475294   -0.033558
     13          6           0       -0.366310   -0.481409    0.507366
     14          6           0        0.530284   -0.741331   -0.621818
     15          8           0        0.333562   -1.094425   -1.715279
     16          8           0        1.857997   -0.395090   -0.156105
     17          7           0       -7.142000    2.577796    0.221986
     18          6           0       -6.116004    3.377361    0.645060
     19          6           0       -6.511547    4.736329    0.638671
     20          6           0       -7.825758    4.747203    0.286846
     21          6           0       -8.235664    3.402080    0.135281
     22          6           0       -5.606345    5.943464    1.063233
     23          6           0       -8.667960    5.986401    0.116103
     24          6           0       -8.532306    7.151629    0.716428
     25          7           0       -9.088897    0.558505   -0.572388
     26          6           0       -9.914039    1.756942   -0.695979
     27          6           0      -11.308308    1.364708   -0.968095
     28          6           0      -11.319260   -0.000103   -1.122609
     29          6           0       -9.906592   -0.457213   -0.824809
     30          6           0      -12.380103    2.266742   -1.254354
     31          6           0      -12.438496   -0.817950   -1.661803
     32          6           0      -12.264377   -1.341059   -3.180279
     33          7           0       -7.165408   -1.344354   -0.207800
     34          6           0       -8.242724   -2.276376   -0.497973
     35          6           0       -7.698808   -3.541293   -0.408257
     36          6           0       -6.460580   -3.555674    0.047419
     37          6           0       -6.179475   -2.090890    0.145295
     38          6           0       -8.526883   -4.739595   -0.675454
     39          6           0       -5.214354   -4.288991    0.184155
     40          8           0       -5.064695   -5.481099    0.083200
     41          6           0       -4.161154   -3.191759    0.586860
     42          6           0       -3.535764   -3.567852    1.915196
     43          8           0       -3.819107   -3.001265    2.875954
     44          8           0       -2.711316   -4.692179    1.760579
     45          6           0       -2.384682   -5.185136    3.119471
     46          6           0        2.836142   -0.715602   -1.182352
     47          6           0        4.240905   -0.647969   -0.605088
     48          6           0        5.162613    0.239986   -0.984199
     49          6           0        5.121419    1.015140   -2.248492
     50          6           0        6.423993    0.371359   -0.285860
     51          6           0        7.744897   -0.103035   -1.093930
     52          6           0        9.016799   -0.045958   -0.132725
     53          6           0       10.331930   -0.589252   -0.798283
     54          6           0       10.187695   -2.002065   -1.283674
     55          6           0       11.470853   -0.384257    0.109682
     56          6           0       12.786700   -0.605495   -0.662996
     57          6           0       14.006979   -0.173266    0.195105
     58          6           0       15.341011   -0.227877   -0.364136
     59          6           0       15.746966   -1.626048   -0.818015
     60          6           0       16.393153    0.485454    0.455835
     61          6           0       17.724243    0.591091   -0.115801
     62          6           0       18.764891    1.285528    0.771672
     63          6           0       20.242427    1.371319    0.228643
     64          6           0       20.395907    2.184359   -1.100534
     65          6           0       21.099545    1.929037    1.325578
     66          1           0       -4.135875    3.772218    1.474386
     67          1           0      -10.412320    3.645101   -0.252846
     68          1           0      -10.276413   -2.687667   -0.802981
     69          1           0       -2.487424   -0.900033    2.173444
     70          1           0       -2.210496    1.897520    1.348205
     71          1           0       -2.036797    0.921878    3.348271
     72          1           0       -3.043391    2.478358    3.175311
     73          1           0       -3.775826    0.828093    3.486146
     74          1           0       -1.910734   -1.457532   -0.572883
     75          1           0       -1.847834    0.290862   -0.824872
     76          1           0       -0.223375    0.548759    1.008616
     77          1           0       -0.277575   -1.353800    1.180836
     78          1           0       -5.923308    6.906011    0.676538
     79          1           0       -5.517657    6.087723    1.994493
     80          1           0       -4.326123    5.756828    0.662897
     81          1           0       -9.532073    5.988539   -0.549300
     82          1           0       -9.294764    8.098985    0.644170
     83          1           0       -7.641734    7.378070    1.348563
     84          1           0      -12.241651    2.794577   -2.123902
     85          1           0      -13.308115    1.836979   -1.226444
     86          1           0      -12.476502    3.098867   -0.414775
     87          1           0      -12.564542   -1.710704   -1.092818
     88          1           0      -13.468095   -0.145876   -1.578972
     89          1           0      -13.090346   -1.990893   -3.272406
     90          1           0      -12.380053   -0.480898   -4.015410
     91          1           0      -11.346994   -2.124667   -3.059888
     92          1           0       -8.852848   -4.739663   -1.674277
     93          1           0       -8.069725   -5.697327   -0.347417
     94          1           0       -9.440820   -4.755193    0.061227
     95          1           0       -3.489928   -3.361902   -0.172390
     96          1           0       -1.808108   -4.347770    3.558608
     97          1           0       -3.320103   -5.285807    3.637687
     98          1           0       -1.923759   -6.182942    2.856443
     99          1           0        2.698146   -1.769926   -1.643556
    100          1           0        2.805578    0.062972   -1.950762
    101          1           0        4.299991   -1.157643    0.318431
    102          1           0        4.183019    1.042469   -2.996521
    103          1           0        5.237454    2.202705   -1.778660
    104          1           0        5.957894    0.762946   -2.972852
    105          1           0        6.693529    1.402461   -0.115639
    106          1           0        6.397644   -0.135982    0.592650
    107          1           0        7.660814   -1.031513   -1.610944
    108          1           0        7.901368    0.670824   -1.870022
    109          1           0        8.969801    0.949649    0.316168
    110          1           0        8.758858   -0.733603    0.731947
    111          1           0       10.293644    0.143793   -1.521544
    112          1           0        9.359071   -2.062006   -2.095248
    113          1           0       11.051281   -2.192895   -1.815560
    114          1           0       10.001042   -2.592538   -0.502763
    115          1           0       11.250753    0.650674    0.506415
    116          1           0       11.354688   -1.221616    0.900940
    117          1           0       12.962586   -1.640656   -1.162560
    118          1           0       12.592033    0.061251   -1.632227
    119          1           0       13.816238    0.850749    0.282979
    120          1           0       13.995050   -0.665044    1.120941
    121          1           0       15.271244    0.454349   -1.202894
    122          1           0       15.845412   -2.386456   -0.034631
    123          1           0       14.888355   -2.119444   -1.326852
    124          1           0       16.503320   -1.507117   -1.328312
    125          1           0       16.039923    1.384295    0.912094
    126          1           0       16.440120    0.044912    1.529662
    127          1           0       18.159804   -0.430761   -0.367622
    128          1           0       17.479562    1.221171   -0.939752
    129          1           0       18.531262    2.179158    1.180005
    130          1           0       18.818344    0.610913    1.653410
    131          1           0       20.510804    0.348925   -0.026070
    132          1           0       20.139354    3.363556   -0.909508
    133          1           0       21.352059    2.092372   -1.440071
    134          1           0       19.854918    1.815791   -1.896507
    135          1           0       21.200333    1.269884    1.960312
    136          1           0       22.020622    2.290021    0.985322
    137          1           0       20.723294    2.902672    1.740228
 ---------------------------------------------------------------------

 SCF Done:  E(RCAM-B3LYP) =  -2932.65540970     A.U. after   15 cycles

 Excitation energies and oscillator strengths:

 Excited State   1:      Singlet-A      1.8983 eV  653.12 nm  f=0.2885  <S**2>=0.000
     240 -> 243        0.19364
     241 -> 242        0.67702
 This state for optimization and/or second-order correction.
 Total Energy, E(TD-HF/TD-KS) =  -2932.58564726
 Copying the excited state density for this state as the 1-particle RhoCI density.

 The electronic state is 1-A.
 Alpha  occ. eigenvalues --  -46.83061 -19.25440 -19.24205 -19.22747 -19.22219
 Alpha  occ. eigenvalues --  -19.20505 -14.41648 -14.39905 -14.39307 -14.39164
 Alpha  occ. eigenvalues --  -10.39146 -10.38949 -10.35180 -10.31345 -10.30993
 Alpha  occ. eigenvalues --  -10.30510 -10.30353 -10.29761 -10.29373 -10.29280
 Alpha  occ. eigenvalues --  -10.29278 -10.29210 -10.28746 -10.28666 -10.28349
 Alpha  occ. eigenvalues --  -10.28319 -10.28231 -10.27866 -10.27607 -10.27604
 Alpha  occ. eigenvalues --  -10.27507 -10.27300 -10.27222 -10.27105 -10.27087
 Alpha  occ. eigenvalues --  -10.26997 -10.26981 -10.26764 -10.26578 -10.26528
 Alpha  occ. eigenvalues --  -10.26526 -10.26510 -10.26420 -10.26336 -10.26185
 Alpha  occ. eigenvalues --  -10.25651 -10.25581 -10.25524 -10.25448 -10.25417
 Alpha  occ. eigenvalues --  -10.25304 -10.25278 -10.24543 -10.24506 -10.24500
 Alpha  occ. eigenvalues --  -10.24474 -10.24285 -10.24271 -10.23940 -10.23815
 Alpha  occ. eigenvalues --  -10.23773 -10.23277 -10.22994 -10.22296 -10.21955
 Alpha  occ. eigenvalues --   -3.12458  -1.87135  -1.86720  -1.86651  -1.19061
 Alpha  occ. eigenvalues --   -1.18159  -1.11733  -1.10405  -1.08894  -1.04936
 Alpha  occ. eigenvalues --   -1.04032  -1.02774  -1.01902  -0.92360  -0.91950
 Alpha  occ. eigenvalues --   -0.91230  -0.90387  -0.89859  -0.89581  -0.89212
 Alpha  occ. eigenvalues --   -0.88677  -0.88614  -0.88035  -0.87368  -0.86309
 Alpha  occ. eigenvalues --   -0.84934  -0.84142  -0.83639  -0.83249  -0.82547
 Alpha  occ. eigenvalues --   -0.81115  -0.80836  -0.80338  -0.79385  -0.78234
 Alpha  occ. eigenvalues --   -0.77889  -0.77375  -0.77012  -0.76856  -0.76017
 Alpha  occ. eigenvalues --   -0.75861  -0.75486  -0.75114  -0.73379  -0.72561
 Alpha  occ. eigenvalues --   -0.71122  -0.70753  -0.69161  -0.68584  -0.68163
 Alpha  occ. eigenvalues --   -0.66577  -0.65913  -0.65413  -0.64914  -0.64568
 Alpha  occ. eigenvalues --   -0.63556  -0.63322  -0.63234  -0.62447  -0.61662
 Alpha  occ. eigenvalues --   -0.61376  -0.60510  -0.60419  -0.60070  -0.59224
 Alpha  occ. eigenvalues --   -0.58938  -0.58404  -0.58010  -0.57967  -0.56616
 Alpha  occ. eigenvalues --   -0.56419  -0.55758  -0.55550  -0.55296  -0.54965
 Alpha  occ. eigenvalues --   -0.54910  -0.54516  -0.54283  -0.54193  -0.53615
 Alpha  occ. eigenvalues --   -0.53490  -0.53263  -0.52790  -0.52293  -0.52143
 Alpha  occ. eigenvalues --   -0.51905  -0.51711  -0.51361  -0.51107  -0.50936
 Alpha  occ. eigenvalues --   -0.50457  -0.50242  -0.50038  -0.49874  -0.49801
 Alpha  occ. eigenvalues --   -0.49329  -0.49202  -0.48876  -0.48499  -0.48467
 Alpha  occ. eigenvalues --   -0.48244  -0.48153  -0.47953  -0.47741  -0.47591
 Alpha  occ. eigenvalues --   -0.47207  -0.46872  -0.46707  -0.46560  -0.46386
 Alpha  occ. eigenvalues --   -0.45629  -0.45497  -0.45414  -0.45379  -0.45100
 Alpha  occ. eigenvalues --   -0.44936  -0.44863  -0.44624  -0.44413  -0.44276
 Alpha  occ. eigenvalues --   -0.44063  -0.44014  -0.43583  -0.43362  -0.43107
 Alpha  occ. eigenvalues --   -0.43009  -0.42706  -0.42590  -0.42378  -0.42017
 Alpha  occ. eigenvalues --   -0.41852  -0.41680  -0.41570  -0.41365  -0.41274
 Alpha  occ. eigenvalues --   -0.41016  -0.40905  -0.40823  -0.40457  -0.40438
 Alpha  occ. eigenvalues --   -0.40290  -0.39942  -0.39740  -0.39261  -0.38986
 Alpha  occ. eigenvalues --   -0.38952  -0.38837  -0.38764  -0.38515  -0.38292
 Alpha  occ. eigenvalues --   -0.38227  -0.37361  -0.36945  -0.36709  -0.36578
 Alpha  occ. eigenvalues --   -0.36483  -0.36282  -0.36150  -0.36032  -0.35361
 Alpha  occ. eigenvalues --   -0.35175  -0.34929  -0.34822  -0.34541  -0.34351
 Alpha  occ. eigenvalues --   -0.33870  -0.33751  -0.32118  -0.31473  -0.30315
 Alpha  occ. eigenvalues --   -0.30132  -0.28682  -0.28595  -0.27904  -0.23720
 Alpha  occ. eigenvalues --   -0.20663
 Alpha virt. eigenvalues --   -0.06968  -0.02220   0.01788   0.04958   0.05859
 Alpha virt. eigenvalues --    0.06121   0.06550   0.06797   0.07160   0.07753
 Alpha virt. eigenvalues --    0.08531   0.10292   0.10935   0.11114   0.11741

 Mulliken charges:
               1
     1  Mg   0.813588
     2  C    0.075651
     3  C   -0.220370
     4  C   -0.161083
     5  C   -0.206127
     6  N   -0.637630
     7  C    0.295847
     8  C   -0.158810
     9  C   -0.145039
    10  C    0.358723
    11  C   -0.298609
    12  C   -0.194972
    13  C   -0.270463
    14  C    0.619189
    15  O   -0.421328
    16  O   -0.525674
    17  N   -0.719279
    18  C    0.324605
    19  C    0.023345
    20  C    0.001019
    21  C    0.291455
    22  C   -0.346769
    23  C   -0.060196
    24  C   -0.247809
    25  N   -0.683639
    26  C    0.252465
    27  C    0.029271
    28  C    0.058179
    29  C    0.330245
    30  C   -0.379261
    31  C   -0.252676
    32  C   -0.298675
    33  N   -0.727763
    34  C    0.276818
    35  C    0.006982
    36  C    0.039654
    37  C    0.293366
    38  C   -0.381584
    39  C    0.344834
    40  O   -0.444659
    41  C   -0.316734
    42  C    0.624007
    43  O   -0.422910
    44  O   -0.493938
    45  C   -0.089672
    46  C    0.033729
    47  C   -0.150614
    48  C    0.156107
    49  C   -0.350494
    50  C   -0.219966
    51  C   -0.203557
    52  C   -0.197959
    53  C   -0.070759
    54  C   -0.297200
    55  C   -0.146088
    56  C   -0.194809
    57  C   -0.161924
    58  C   -0.058964
    59  C   -0.295589
    60  C   -0.179511
    61  C   -0.165609
    62  C   -0.175627
    63  C   -0.071009
    64  C   -0.305265
    65  C   -0.290906
    66  H    0.075640
    67  H    0.092020
    68  H    0.090325
    69  H    0.114664
    70  H    0.113011
    71  H    0.080265
    72  H    0.115455
    73  H    0.138190
    74  H    0.118247
    75  H    0.122745
    76  H    0.138455
    77  H    0.147140
    78  H    0.123222
    79  H    0.145607
    80  H    0.054765
    81  H    0.093744
    82  H    0.095325
    83  H    0.090792
    84  H    0.142177
    85  H    0.121099
    86  H    0.093687
    87  H    0.113123
    88  H    0.075387
    89  H    0.120148
    90  H    0.107655
    91  H    0.099114
    92  H    0.130451
    93  H    0.140064
    94  H    0.104885
    95  H    0.159624
    96  H    0.130817
    97  H    0.141221
    98  H    0.134025
    99  H    0.108490
   100  H    0.101772
   101  H    0.085153
   102  H    0.103358
   103  H    0.075773
   104  H    0.125222
   105  H    0.099194
   106  H    0.105643
   107  H    0.104484
   108  H    0.089764
   109  H    0.089190
   110  H    0.073097
   111  H    0.093887
   112  H    0.086111
   113  H    0.113285
   114  H    0.114197
   115  H    0.093025
   116  H    0.077387
   117  H    0.089666
   118  H    0.069361
   119  H    0.094671
   120  H    0.093945
   121  H    0.078714
   122  H    0.095978
   123  H    0.087643
   124  H    0.109090
   125  H    0.091009
   126  H    0.050921
   127  H    0.089704
   128  H    0.098352
   129  H    0.094338
   130  H    0.081244
   131  H    0.081111
   132  H    0.068631
   133  H    0.109277
   134  H    0.107892
   135  H    0.110763
   136  H    0.098956
   137  H    0.089051
 Sum of Mulliken charges =   0.00000

 Dipole moment (field-independent basis, Debye):
    X=              0.0177    Y=              3.4747    Z=              0.7505  Tot=              3.5549
 Quadrupole moment (field-independent basis, Debye-Ang):
   XX=           -327.9133   YY=           -391.8733   ZZ=           -396.1862
   XY=            -16.1566   XZ=              8.3516   YZ=             -4.2143

 Normal termination of Gaussian 09 at Sun Jul  7 04:24:22 2019.
