 Gaussian 09, Revision D.01,
 Gaussian 09:  ES64L-G09RevD.01 24-Apr-2013

 -------------------------------------
 # td=(NStates=1) CAM-B3LYP/6-31G(d,p)
 -------------------------------------

 --
 TD
 --
 Symbolic Z-matrix:
 Charge =  0 Multiplicity = 1

                         Standard orientation:
 ---------------------------------------------------------------------
 Center     Atomic      Atomic             Coordinates (Angstroms)
 Number     Number       Type             X           Y           Z
 ---------------------------------------------------------------------
      1         12           0       -7.112066    0.620237    0.100310
      2          6           0       -4.818427   -1.959299    0.506736
      3          6           0       -4.823845    2.805992    1.223930
      4          6           0       -9.448963    3.014952   -0.424491
      5          6           0       -9.569290   -1.751246   -0.701865
      6          7           0       -5.124809    0.491639    0.772770
      7          6           0       -4.363654   -0.741391    0.748905
      8          6           0       -2.901397   -0.402748    1.144615
      9          6           0       -2.995674    1.148726    1.608493
     10          6           0       -4.430754    1.471613    1.238734
     11          6           0       -2.926317    1.309499    3.147992
     12          6           0       -1.935023   -0.438483    0.073807
     13          6           0       -0.535973   -0.402028    0.445860
     14          6           0        0.565510   -0.522907   -0.682714
     15          8           0        0.215414   -0.885463   -1.767628
     16          8           0        1.801757   -0.398870   -0.389505
     17          7           0       -7.147333    2.570576    0.393430
     18          6           0       -6.078195    3.391409    0.848880
     19          6           0       -6.488309    4.753815    0.801938
     20          6           0       -7.769572    4.804002    0.487594
     21          6           0       -8.172221    3.426654    0.140094
     22          6           0       -5.513996    5.808049    1.042015
     23          6           0       -8.611580    5.919948    0.143476
     24          6           0       -8.527452    7.106764    0.766577
     25          7           0       -9.224085    0.590082   -0.488146
     26          6           0      -10.014288    1.772492   -0.556020
     27          6           0      -11.308424    1.383020   -1.170951
     28          6           0      -11.244162   -0.029973   -1.231061
     29          6           0       -9.995252   -0.393504   -0.786509
     30          6           0      -12.377153    2.264054   -1.298241
     31          6           0      -12.335462   -0.894162   -1.767671
     32          6           0      -12.163222   -1.031638   -3.316292
     33          7           0       -7.195912   -1.403439   -0.057645
     34          6           0       -8.246720   -2.225182   -0.374613
     35          6           0       -7.854192   -3.670236   -0.455846
     36          6           0       -6.542143   -3.587077   -0.077831
     37          6           0       -6.236354   -2.216908    0.066889
     38          6           0       -8.554123   -4.896361   -0.755769
     39          6           0       -5.274321   -4.343981    0.231248
     40          8           0       -5.126001   -5.604291    0.182997
     41          6           0       -4.133017   -3.320674    0.577543
     42          6           0       -3.354120   -3.717119    1.923885
     43          8           0       -3.660805   -3.030519    2.923614
     44          8           0       -2.644511   -4.706519    1.731363
     45          6           0       -2.062328   -5.180591    3.003626
     46          6           0        2.728622   -0.541288   -1.367938
     47          6           0        4.082253   -0.267299   -0.620145
     48          6           0        5.056435    0.508381   -1.050399
     49          6           0        4.952267    1.352145   -2.268799
     50          6           0        6.462770    0.494707   -0.332101
     51          6           0        7.608587   -0.065279   -1.101113
     52          6           0        9.025619   -0.048726   -0.253601
     53          6           0       10.223980   -0.479484   -1.058460
     54          6           0       10.134246   -1.964106   -1.522798
     55          6           0       11.416328   -0.358864    0.022135
     56          6           0       12.750300   -0.616945   -0.634332
     57          6           0       14.042053   -0.264091    0.337635
     58          6           0       15.382004   -0.246974   -0.329285
     59          6           0       15.620413   -1.619174   -0.915734
     60          6           0       16.565623    0.235343    0.563649
     61          6           0       17.849401    0.513929   -0.023707
     62          6           0       18.817722    1.250012    0.858044
     63          6           0       20.316223    1.341024    0.156864
     64          6           0       20.269300    2.141117   -1.055937
     65          6           0       21.160267    1.903249    1.381128
     66          1           0       -3.984585    3.558005    1.651781
     67          1           0      -10.024536    3.918953   -0.656437
     68          1           0      -10.261883   -2.688512   -0.830501
     69          1           0       -2.680377   -1.085092    1.995296
     70          1           0       -2.297498    1.708574    0.872427
     71          1           0       -1.849994    0.988601    3.656776
     72          1           0       -3.057405    2.436808    3.279983
     73          1           0       -3.669754    0.810351    3.550145
     74          1           0       -1.976355   -1.323287   -0.725747
     75          1           0       -2.032572    0.454890   -0.700209
     76          1           0       -0.173743    0.424589    1.188079
     77          1           0       -0.276288   -1.239061    1.128778
     78          1           0       -5.806532    6.758975    0.532349
     79          1           0       -5.423500    5.809447    2.059114
     80          1           0       -4.409257    5.379938    0.892376
     81          1           0       -9.446831    5.872797   -0.625356
     82          1           0       -8.970633    8.241728    0.405733
     83          1           0       -7.830418    7.268091    1.613711
     84          1           0      -12.052377    3.192047   -2.053997
     85          1           0      -13.269099    1.926275   -1.846157
     86          1           0      -12.703411    2.697472   -0.246259
     87          1           0      -12.234931   -1.773578   -1.348438
     88          1           0      -13.328002   -0.261074   -1.651152
     89          1           0      -13.111028   -1.671389   -3.500264
     90          1           0      -12.290199    0.001657   -3.846760
     91          1           0      -11.362405   -1.694353   -3.801078
     92          1           0       -9.195934   -4.884881   -1.797773
     93          1           0       -7.760196   -5.656978   -0.677486
     94          1           0       -9.390152   -5.094833   -0.053072
     95          1           0       -3.486531   -3.290000   -0.277585
     96          1           0       -1.759917   -4.175150    3.482762
     97          1           0       -2.911479   -5.688543    3.552675
     98          1           0       -1.289747   -5.782639    2.905299
     99          1           0        2.798931   -1.611435   -1.786655
    100          1           0        2.377313    0.176108   -2.245042
    101          1           0        4.187561   -0.811267    0.258501
    102          1           0        3.779167    1.389062   -2.706339
    103          1           0        5.208440    2.566292   -1.908719
    104          1           0        5.521098    1.172810   -3.109343
    105          1           0        6.616513    1.528673   -0.088879
    106          1           0        6.330882    0.018854    0.349150
    107          1           0        7.337655   -1.103465   -1.202993
    108          1           0        7.727493    0.420447   -2.155370
    109          1           0        9.281942    1.120966   -0.068853
    110          1           0        8.938345   -0.779566    0.694553
    111          1           0       10.434362    0.159738   -1.820276
    112          1           0        9.215849   -2.157672   -2.115923
    113          1           0       10.972113   -2.206420   -2.084219
    114          1           0       10.151757   -2.511915   -0.632237
    115          1           0       11.418294    0.621242    0.564249
    116          1           0       11.346894   -1.375217    0.726903
    117          1           0       13.015145   -1.579160   -0.762069
    118          1           0       12.979026    0.066452   -1.569667
    119          1           0       13.761511    0.721638    0.868604
    120          1           0       13.817948   -0.906651    1.090699
    121          1           0       15.383605    0.558452   -1.179395
    122          1           0       15.554014   -2.561244   -0.003589
    123          1           0       14.838839   -2.028685   -1.682212
    124          1           0       16.626472   -1.784169   -1.199591
    125          1           0       15.931410    1.144798    1.018953
    126          1           0       16.579902   -0.222355    1.574794
    127          1           0       18.308964   -0.526112   -0.181399
    128          1           0       17.719791    1.095452   -0.932872
    129          1           0       18.569325    2.235335    0.946906
    130          1           0       18.921478    0.710337    1.731487
    131          1           0       20.509775    0.298359   -0.140949
    132          1           0       19.701036    3.164852   -0.918490
    133          1           0       21.253615    2.341935   -1.306331
    134          1           0       20.011000    1.721797   -2.060865
    135          1           0       21.202450    1.061619    2.189236
    136          1           0       22.047563    2.125630    0.937645
    137          1           0       20.899039    2.886174    1.639854
 ---------------------------------------------------------------------

 SCF Done:  E(RCAM-B3LYP) =  -2932.52221481     A.U. after   16 cycles

 Excitation energies and oscillator strengths:

 Excited State   1:      Singlet-A      1.8760 eV  660.88 nm  f=0.3071  <S**2>=0.000
     240 -> 243        0.17305
     241 -> 242        0.67686
 This state for optimization and/or second-order correction.
 Total Energy, E(TD-HF/TD-KS) =  -2932.45327143
 Copying the excited state density for this state as the 1-particle RhoCI density.

 The electronic state is 1-A.
 Alpha  occ. eigenvalues --  -46.84469 -19.30265 -19.27347 -19.20726 -19.20363
 Alpha  occ. eigenvalues --  -19.19703 -14.40989 -14.40038 -14.38960 -14.38168
 Alpha  occ. eigenvalues --  -10.40517 -10.38828 -10.35900 -10.33450 -10.33262
 Alpha  occ. eigenvalues --  -10.29995 -10.29797 -10.29719 -10.29450 -10.29084
 Alpha  occ. eigenvalues --  -10.28705 -10.28636 -10.28548 -10.28307 -10.28234
 Alpha  occ. eigenvalues --  -10.28092 -10.27935 -10.27823 -10.27807 -10.27567
 Alpha  occ. eigenvalues --  -10.27474 -10.27271 -10.27127 -10.27073 -10.27070
 Alpha  occ. eigenvalues --  -10.27012 -10.26938 -10.26797 -10.26779 -10.26620
 Alpha  occ. eigenvalues --  -10.26583 -10.26536 -10.26331 -10.26247 -10.26240
 Alpha  occ. eigenvalues --  -10.26205 -10.26201 -10.26081 -10.26039 -10.25856
 Alpha  occ. eigenvalues --  -10.25659 -10.25544 -10.25491 -10.25278 -10.25080
 Alpha  occ. eigenvalues --  -10.24990 -10.24876 -10.24649 -10.24591 -10.24518
 Alpha  occ. eigenvalues --  -10.24442 -10.24330 -10.23658 -10.23135 -10.23011
 Alpha  occ. eigenvalues --   -3.13475  -1.88182  -1.87710  -1.87657  -1.23755
 Alpha  occ. eigenvalues --   -1.22989  -1.10295  -1.08959  -1.08133  -1.06509
 Alpha  occ. eigenvalues --   -1.03512  -1.03277  -1.02175  -0.91753  -0.91291
 Alpha  occ. eigenvalues --   -0.90666  -0.90477  -0.89700  -0.89471  -0.88976
 Alpha  occ. eigenvalues --   -0.88459  -0.88185  -0.87745  -0.86621  -0.86123
 Alpha  occ. eigenvalues --   -0.85308  -0.84654  -0.84359  -0.83593  -0.82491
 Alpha  occ. eigenvalues --   -0.81859  -0.81340  -0.80497  -0.80265  -0.78063
 Alpha  occ. eigenvalues --   -0.77381  -0.77051  -0.76920  -0.76356  -0.76155
 Alpha  occ. eigenvalues --   -0.74983  -0.74650  -0.74466  -0.73693  -0.72257
 Alpha  occ. eigenvalues --   -0.70505  -0.69953  -0.68920  -0.68461  -0.67665
 Alpha  occ. eigenvalues --   -0.66805  -0.65932  -0.65316  -0.64900  -0.64066
 Alpha  occ. eigenvalues --   -0.63763  -0.63633  -0.63213  -0.63019  -0.62290
 Alpha  occ. eigenvalues --   -0.62049  -0.60844  -0.60324  -0.59807  -0.59394
 Alpha  occ. eigenvalues --   -0.59171  -0.58792  -0.58264  -0.58042  -0.57903
 Alpha  occ. eigenvalues --   -0.57249  -0.56240  -0.55669  -0.55559  -0.55414
 Alpha  occ. eigenvalues --   -0.54810  -0.54713  -0.54329  -0.54097  -0.53607
 Alpha  occ. eigenvalues --   -0.53034  -0.52195  -0.51961  -0.51830  -0.51682
 Alpha  occ. eigenvalues --   -0.51353  -0.51055  -0.50867  -0.50678  -0.50336
 Alpha  occ. eigenvalues --   -0.50007  -0.49937  -0.49587  -0.49415  -0.49166
 Alpha  occ. eigenvalues --   -0.49029  -0.48816  -0.48770  -0.48559  -0.48268
 Alpha  occ. eigenvalues --   -0.48003  -0.47761  -0.47639  -0.47490  -0.47270
 Alpha  occ. eigenvalues --   -0.46924  -0.46471  -0.46385  -0.46215  -0.46008
 Alpha  occ. eigenvalues --   -0.45878  -0.45400  -0.45195  -0.45153  -0.44960
 Alpha  occ. eigenvalues --   -0.44775  -0.44758  -0.44635  -0.44440  -0.43892
 Alpha  occ. eigenvalues --   -0.43803  -0.43700  -0.43391  -0.43299  -0.42821
 Alpha  occ. eigenvalues --   -0.42765  -0.42580  -0.42343  -0.42306  -0.42187
 Alpha  occ. eigenvalues --   -0.42026  -0.41915  -0.41871  -0.41572  -0.41429
 Alpha  occ. eigenvalues --   -0.41272  -0.41184  -0.40937  -0.40720  -0.40667
 Alpha  occ. eigenvalues --   -0.40140  -0.39557  -0.39524  -0.39303  -0.39208
 Alpha  occ. eigenvalues --   -0.39001  -0.38555  -0.37966  -0.37782  -0.37516
 Alpha  occ. eigenvalues --   -0.37306  -0.37194  -0.37030  -0.36996  -0.36419
 Alpha  occ. eigenvalues --   -0.36264  -0.36106  -0.35427  -0.35235  -0.35080
 Alpha  occ. eigenvalues --   -0.34353  -0.33912  -0.33302  -0.33261  -0.33187
 Alpha  occ. eigenvalues --   -0.32664  -0.31684  -0.31056  -0.30818  -0.30286
 Alpha  occ. eigenvalues --   -0.30200  -0.29940  -0.27542  -0.26448  -0.23618
 Alpha  occ. eigenvalues --   -0.19683
 Alpha virt. eigenvalues --   -0.06198  -0.02417   0.01941   0.04427   0.05860
 Alpha virt. eigenvalues --    0.06345   0.06938   0.07048   0.07597   0.07703
 Alpha virt. eigenvalues --    0.08983   0.10620   0.11258   0.11423   0.11617

 Mulliken charges:
               1
     1  Mg   0.830792
     2  C    0.085649
     3  C   -0.222557
     4  C   -0.175373
     5  C   -0.176339
     6  N   -0.640805
     7  C    0.235925
     8  C   -0.156034
     9  C   -0.157793
    10  C    0.363794
    11  C   -0.282766
    12  C   -0.171543
    13  C   -0.254768
    14  C    0.567656
    15  O   -0.470673
    16  O   -0.390974
    17  N   -0.718348
    18  C    0.294902
    19  C    0.075445
    20  C   -0.004120
    21  C    0.279322
    22  C   -0.378080
    23  C   -0.080372
    24  C   -0.257954
    25  N   -0.669332
    26  C    0.248798
    27  C    0.054658
    28  C    0.011229
    29  C    0.361791
    30  C   -0.389903
    31  C   -0.206576
    32  C   -0.301523
    33  N   -0.668922
    34  C    0.207906
    35  C    0.047906
    36  C    0.021163
    37  C    0.278475
    38  C   -0.401017
    39  C    0.369452
    40  O   -0.497609
    41  C   -0.292245
    42  C    0.615617
    43  O   -0.509015
    44  O   -0.373164
    45  C   -0.103963
    46  C    0.000176
    47  C   -0.142894
    48  C    0.106775
    49  C   -0.341107
    50  C   -0.129670
    51  C   -0.198145
    52  C   -0.150751
    53  C   -0.058033
    54  C   -0.314906
    55  C   -0.172690
    56  C   -0.188221
    57  C   -0.196188
    58  C   -0.026858
    59  C   -0.294002
    60  C   -0.176425
    61  C   -0.166654
    62  C   -0.159880
    63  C   -0.077820
    64  C   -0.311337
    65  C   -0.306764
    66  H    0.064069
    67  H    0.075953
    68  H    0.092881
    69  H    0.127783
    70  H    0.112548
    71  H    0.080621
    72  H    0.100539
    73  H    0.144309
    74  H    0.112477
    75  H    0.099115
    76  H    0.106991
    77  H    0.121024
    78  H    0.124236
    79  H    0.142176
    80  H    0.100398
    81  H    0.109219
    82  H    0.084968
    83  H    0.104357
    84  H    0.086098
    85  H    0.111528
    86  H    0.121221
    87  H    0.103195
    88  H    0.098079
    89  H    0.087224
    90  H    0.103854
    91  H    0.110110
    92  H    0.104413
    93  H    0.159150
    94  H    0.131533
    95  H    0.165574
    96  H    0.146503
    97  H    0.152704
    98  H    0.142628
    99  H    0.120550
   100  H    0.115162
   101  H    0.093138
   102  H    0.077036
   103  H    0.071046
   104  H    0.136041
   105  H    0.094071
   106  H    0.070416
   107  H    0.099857
   108  H    0.080245
   109  H    0.072900
   110  H    0.080225
   111  H    0.097677
   112  H    0.101400
   113  H    0.114618
   114  H    0.103329
   115  H    0.097410
   116  H    0.063148
   117  H    0.118424
   118  H    0.070427
   119  H    0.063054
   120  H    0.103773
   121  H    0.077082
   122  H    0.040363
   123  H    0.100429
   124  H    0.109276
   125  H    0.058705
   126  H    0.086942
   127  H    0.082217
   128  H    0.094957
   129  H    0.096487
   130  H    0.089374
   131  H    0.085283
   132  H    0.083531
   133  H    0.106705
   134  H    0.106999
   135  H    0.103915
   136  H    0.101556
   137  H    0.111434
 Sum of Mulliken charges =   0.00000

 Dipole moment (field-independent basis, Debye):
    X=              4.0454    Y=              1.6365    Z=              0.9054  Tot=              4.4568
 Quadrupole moment (field-independent basis, Debye-Ang):
   XX=           -341.8033   YY=           -388.6038   ZZ=           -397.3344
   XY=             -8.3246   XZ=              6.3259   YZ=            -10.5265

 Normal termination of Gaussian 09 at Fri Jul  5 05:13:40 2019.
