 Gaussian 16, Revision A.03,
 Gaussian 16:  ES64L-G16RevA.03 25-Dec-2016

 ----------------------------------------------------------------------
 # td=(NStates=1) iop(3/107=0140000000,3/108=0140000000) CAM-B3LYP/6-31
 G(d,p)
 ----------------------------------------------------------------------

 --
 TD
 --
 Symbolic Z-matrix:
 Charge =  0 Multiplicity = 1

                         Standard orientation:
 ---------------------------------------------------------------------
 Center     Atomic      Atomic             Coordinates (Angstroms)
 Number     Number       Type             X           Y           Z
 ---------------------------------------------------------------------
      1         12           0       -7.128996    0.634070    0.248185
      2          6           0       -4.883625   -1.909794    0.493948
      3          6           0       -4.757702    2.872422    1.091848
      4          6           0       -9.470120    3.098962   -0.392538
      5          6           0       -9.538033   -1.716572   -0.791112
      6          7           0       -5.038415    0.508740    0.686961
      7          6           0       -4.374670   -0.621968    0.779730
      8          6           0       -2.899573   -0.360088    1.158294
      9          6           0       -3.018593    1.100571    1.705551
     10          6           0       -4.329434    1.583173    1.128067
     11          6           0       -2.914327    1.180936    3.359344
     12          6           0       -1.910462   -0.713292    0.071815
     13          6           0       -0.457843   -0.378612    0.468899
     14          6           0        0.526109   -0.653374   -0.724295
     15          8           0        0.156492   -0.923605   -1.835817
     16          8           0        1.819096   -0.563159   -0.286955
     17          7           0       -7.049117    2.572478    0.180594
     18          6           0       -6.022497    3.356299    0.679269
     19          6           0       -6.298526    4.793219    0.680666
     20          6           0       -7.651465    4.915021    0.264498
     21          6           0       -8.109028    3.470369   -0.043247
     22          6           0       -5.405616    5.816045    1.076941
     23          6           0       -8.545863    6.041727    0.220523
     24          6           0       -8.347291    7.239440    0.877547
     25          7           0       -9.118851    0.669123   -0.547641
     26          6           0       -9.917797    1.853870   -0.562030
     27          6           0      -11.228331    1.551125   -1.061393
     28          6           0      -11.233401    0.150961   -1.256102
     29          6           0       -9.995807   -0.329294   -0.879357
     30          6           0      -12.212523    2.574068   -1.315805
     31          6           0      -12.378452   -0.756024   -1.732244
     32          6           0      -12.025426   -1.198832   -3.192227
     33          7           0       -7.225258   -1.352766   -0.088199
     34          6           0       -8.259120   -2.186741   -0.528150
     35          6           0       -7.874050   -3.580566   -0.496871
     36          6           0       -6.525966   -3.480318   -0.137270
     37          6           0       -6.182414   -2.217324    0.161625
     38          6           0       -8.686456   -4.716541   -0.800370
     39          6           0       -5.356350   -4.340320    0.262694
     40          8           0       -5.271974   -5.537019    0.321447
     41          6           0       -4.153879   -3.263249    0.562266
     42          6           0       -3.610826   -3.632047    1.939167
     43          8           0       -3.869260   -3.153421    3.014228
     44          8           0       -2.852805   -4.713186    1.737644
     45          6           0       -2.348868   -5.310521    2.958378
     46          6           0        2.793354   -0.863601   -1.249537
     47          6           0        4.119982   -0.664678   -0.732545
     48          6           0        5.077931    0.165028   -1.000367
     49          6           0        5.002776    1.111700   -2.263448
     50          6           0        6.359096    0.175543   -0.268186
     51          6           0        7.665992   -0.362256   -1.140597
     52          6           0        8.883449   -0.230043   -0.275566
     53          6           0       10.216758   -0.541092   -0.996447
     54          6           0       10.226915   -2.032337   -1.452535
     55          6           0       11.404100   -0.101060   -0.057350
     56          6           0       12.761223   -0.466711   -0.712813
     57          6           0       13.931686    0.041900    0.241447
     58          6           0       15.436165   -0.049920   -0.435112
     59          6           0       15.677742   -1.545958   -0.822364
     60          6           0       16.368090    0.581484    0.507589
     61          6           0       17.805810    0.572631   -0.035234
     62          6           0       18.778922    1.239276    0.834117
     63          6           0       20.197887    1.325044    0.284507
     64          6           0       20.438482    2.143679   -0.994606
     65          6           0       21.050470    1.828641    1.408220
     66          1           0       -3.970618    3.666692    1.332439
     67          1           0       -9.936361    4.046626   -0.538736
     68          1           0      -10.281933   -2.453525   -1.214507
     69          1           0       -2.705603   -0.981159    2.065626
     70          1           0       -2.201463    1.698996    1.345196
     71          1           0       -1.920914    0.463968    3.718843
     72          1           0       -2.817470    2.032763    3.806643
     73          1           0       -3.707646    0.431086    3.615297
     74          1           0       -2.164345   -1.908364   -0.017594
     75          1           0       -2.359838    0.109166   -0.726287
     76          1           0       -0.474342    0.483992    0.521582
     77          1           0       -0.234064   -1.041605    1.437827
     78          1           0       -5.504879    6.850237    0.452805
     79          1           0       -5.311919    6.040789    2.141241
     80          1           0       -4.233750    5.581478    1.033831
     81          1           0       -9.303423    5.966867   -0.393468
     82          1           0       -8.978778    8.125099    0.750419
     83          1           0       -7.542280    7.461919    1.390573
     84          1           0      -11.545242    3.267636   -2.123547
     85          1           0      -13.089405    2.234262   -1.807284
     86          1           0      -12.489125    3.187316   -0.434238
     87          1           0      -12.417819   -1.775899   -1.246620
     88          1           0      -13.377242   -0.241739   -1.734801
     89          1           0      -12.880741   -1.872674   -3.810145
     90          1           0      -11.727169   -0.378524   -3.663338
     91          1           0      -11.139608   -1.947462   -3.452073
     92          1           0       -8.849575   -4.858298   -1.810156
     93          1           0       -8.439110   -5.724457   -0.372113
     94          1           0       -9.703417   -4.701935   -0.207374
     95          1           0       -3.335432   -3.321013   -0.076307
     96          1           0       -1.743094   -4.341306    3.440843
     97          1           0       -3.122018   -5.525277    3.613576
     98          1           0       -1.629843   -6.075084    2.682277
     99          1           0        2.705894   -1.945597   -1.803511
    100          1           0        2.532679   -0.311476   -2.207081
    101          1           0        4.554581   -1.420780    0.082107
    102          1           0        4.081363    1.243133   -2.787116
    103          1           0        5.406183    2.080524   -2.082285
    104          1           0        5.600678    0.719293   -3.181802
    105          1           0        6.529829    1.181936   -0.026259
    106          1           0        6.408629   -0.342375    0.716535
    107          1           0        7.460109   -1.408892   -1.324679
    108          1           0        7.906152    0.347893   -2.067608
    109          1           0        8.813021    0.686669    0.260760
    110          1           0        8.960926   -1.004550    0.530015
    111          1           0       10.204750    0.128683   -1.927302
    112          1           0        9.076341   -2.247867   -1.648739
    113          1           0       11.048027   -2.572195   -2.089363
    114          1           0       10.310176   -2.666420   -0.553226
    115          1           0       11.388957    0.932811    0.351110
    116          1           0       11.192167   -0.908584    0.694702
    117          1           0       12.902797   -1.555186   -0.974954
    118          1           0       12.878524    0.028287   -1.745284
    119          1           0       13.730628    1.028924    0.599377
    120          1           0       13.970646   -0.622734    1.300740
    121          1           0       15.335573    0.563588   -1.344839
    122          1           0       15.681457   -2.248715   -0.068592
    123          1           0       14.846322   -1.949756   -1.549247
    124          1           0       16.766840   -1.549713   -1.419926
    125          1           0       16.020575    1.590048    0.849116
    126          1           0       16.240319   -0.042082    1.367308
    127          1           0       18.093611   -0.427829   -0.282305
    128          1           0       17.451756    1.117350   -1.011381
    129          1           0       18.484847    2.176530    1.025473
    130          1           0       18.910771    0.836713    1.740538
    131          1           0       20.405736    0.191876    0.064958
    132          1           0       20.061414    3.093403   -0.868470
    133          1           0       21.495417    2.116892   -1.119142
    134          1           0       19.878892    1.789172   -1.739340
    135          1           0       20.958990    1.360729    2.407437
    136          1           0       22.150438    1.858022    1.180933
    137          1           0       20.617871    3.022978    1.522900
 ---------------------------------------------------------------------

 SCF Done:  E(RCAM-B3LYP) =  -2933.44531735     A.U. after   16 cycles

 Excitation energies and oscillator strengths:

 Excited State   1:      Singlet-A      2.0315 eV  610.32 nm  f=0.2039  <S**2>=0.000
     240 -> 243       -0.27828
     241 -> 242        0.64262
 This state for optimization and/or second-order correction.
 Total Energy, E(TD-HF/TD-DFT) =  -2933.37066271
 Copying the excited state density for this state as the 1-particle RhoCI density.

 The electronic state is 1-A.
 Alpha  occ. eigenvalues --  -46.79417 -19.22780 -19.21903 -19.17608 -19.17109
 Alpha  occ. eigenvalues --  -19.16601 -14.37316 -14.35928 -14.34350 -14.34299
 Alpha  occ. eigenvalues --  -10.35036 -10.33909 -10.31234 -10.28212 -10.27371
 Alpha  occ. eigenvalues --  -10.26236 -10.25692 -10.25606 -10.25512 -10.24802
 Alpha  occ. eigenvalues --  -10.24674 -10.24141 -10.23976 -10.23637 -10.23455
 Alpha  occ. eigenvalues --  -10.23428 -10.23348 -10.23332 -10.23304 -10.23215
 Alpha  occ. eigenvalues --  -10.23079 -10.23019 -10.22775 -10.22730 -10.22722
 Alpha  occ. eigenvalues --  -10.22681 -10.22641 -10.22640 -10.22635 -10.22409
 Alpha  occ. eigenvalues --  -10.22248 -10.22245 -10.22231 -10.22046 -10.21972
 Alpha  occ. eigenvalues --  -10.21947 -10.21939 -10.21907 -10.21898 -10.21868
 Alpha  occ. eigenvalues --  -10.21758 -10.21648 -10.21576 -10.21539 -10.21533
 Alpha  occ. eigenvalues --  -10.21525 -10.21312 -10.21291 -10.21053 -10.20919
 Alpha  occ. eigenvalues --  -10.20613 -10.20345 -10.19750 -10.17944 -10.17720
 Alpha  occ. eigenvalues --   -3.08102  -1.83021  -1.82579  -1.82518  -1.13730
 Alpha  occ. eigenvalues --   -1.13473  -1.07349  -1.05894  -1.04556  -1.00023
 Alpha  occ. eigenvalues --   -0.98211  -0.96936  -0.96037  -0.87240  -0.86170
 Alpha  occ. eigenvalues --   -0.85874  -0.85140  -0.84440  -0.84067  -0.83790
 Alpha  occ. eigenvalues --   -0.83256  -0.83064  -0.82652  -0.82185  -0.80660
 Alpha  occ. eigenvalues --   -0.79969  -0.79391  -0.79102  -0.77957  -0.77725
 Alpha  occ. eigenvalues --   -0.76490  -0.76171  -0.75718  -0.74495  -0.73625
 Alpha  occ. eigenvalues --   -0.72865  -0.72115  -0.71958  -0.71591  -0.71304
 Alpha  occ. eigenvalues --   -0.70507  -0.70290  -0.69444  -0.68718  -0.67821
 Alpha  occ. eigenvalues --   -0.67460  -0.65914  -0.65106  -0.64589  -0.64175
 Alpha  occ. eigenvalues --   -0.62882  -0.62419  -0.61054  -0.60633  -0.59822
 Alpha  occ. eigenvalues --   -0.59665  -0.59094  -0.58908  -0.58403  -0.57709
 Alpha  occ. eigenvalues --   -0.57625  -0.56756  -0.56625  -0.56006  -0.55320
 Alpha  occ. eigenvalues --   -0.54561  -0.53943  -0.53637  -0.53583  -0.53282
 Alpha  occ. eigenvalues --   -0.52673  -0.51901  -0.51521  -0.51469  -0.51340
 Alpha  occ. eigenvalues --   -0.51054  -0.50634  -0.50415  -0.50016  -0.49520
 Alpha  occ. eigenvalues --   -0.49017  -0.48942  -0.48699  -0.48237  -0.48140
 Alpha  occ. eigenvalues --   -0.47926  -0.47635  -0.47349  -0.47309  -0.46853
 Alpha  occ. eigenvalues --   -0.46639  -0.46383  -0.46246  -0.46113  -0.45989
 Alpha  occ. eigenvalues --   -0.45874  -0.45635  -0.45400  -0.44866  -0.44691
 Alpha  occ. eigenvalues --   -0.44465  -0.44375  -0.44229  -0.43813  -0.43692
 Alpha  occ. eigenvalues --   -0.43328  -0.43047  -0.42814  -0.42602  -0.42290
 Alpha  occ. eigenvalues --   -0.42273  -0.41932  -0.41582  -0.41340  -0.41247
 Alpha  occ. eigenvalues --   -0.41105  -0.40771  -0.40581  -0.40480  -0.40404
 Alpha  occ. eigenvalues --   -0.40181  -0.40069  -0.39968  -0.39824  -0.39662
 Alpha  occ. eigenvalues --   -0.39620  -0.39453  -0.39250  -0.39104  -0.38871
 Alpha  occ. eigenvalues --   -0.38613  -0.38534  -0.38462  -0.38188  -0.38093
 Alpha  occ. eigenvalues --   -0.37951  -0.37510  -0.37391  -0.37291  -0.37104
 Alpha  occ. eigenvalues --   -0.36836  -0.36582  -0.36323  -0.36192  -0.35952
 Alpha  occ. eigenvalues --   -0.35843  -0.35458  -0.35370  -0.35111  -0.34784
 Alpha  occ. eigenvalues --   -0.34402  -0.34319  -0.33956  -0.33873  -0.33636
 Alpha  occ. eigenvalues --   -0.33097  -0.32965  -0.32558  -0.32444  -0.32398
 Alpha  occ. eigenvalues --   -0.32235  -0.32118  -0.32050  -0.30787  -0.30564
 Alpha  occ. eigenvalues --   -0.30317  -0.29589  -0.29513  -0.28537  -0.27380
 Alpha  occ. eigenvalues --   -0.27054  -0.26718  -0.24791  -0.24437  -0.21278
 Alpha  occ. eigenvalues --   -0.19971
 Alpha virt. eigenvalues --   -0.06951  -0.04423   0.00027   0.01818   0.03772
 Alpha virt. eigenvalues --    0.03992   0.04219   0.04502   0.05128   0.06258
 Alpha virt. eigenvalues --    0.07068   0.08720   0.09138   0.09424   0.09631

 Mulliken charges:
               1
     1  Mg   0.825575
     2  C    0.081621
     3  C   -0.196212
     4  C   -0.143413
     5  C   -0.184063
     6  N   -0.639149
     7  C    0.320213
     8  C   -0.176393
     9  C   -0.165149
    10  C    0.351682
    11  C   -0.293363
    12  C   -0.149663
    13  C   -0.185029
    14  C    0.587002
    15  O   -0.442412
    16  O   -0.447910
    17  N   -0.720274
    18  C    0.302153
    19  C    0.107162
    20  C    0.000811
    21  C    0.229639
    22  C   -0.421837
    23  C   -0.072037
    24  C   -0.237954
    25  N   -0.669671
    26  C    0.295515
    27  C    0.045503
    28  C    0.015066
    29  C    0.314807
    30  C   -0.369647
    31  C   -0.241045
    32  C   -0.304117
    33  N   -0.735329
    34  C    0.286858
    35  C    0.072903
    36  C   -0.013770
    37  C    0.306520
    38  C   -0.413719
    39  C    0.381593
    40  O   -0.434909
    41  C   -0.342017
    42  C    0.607571
    43  O   -0.478374
    44  O   -0.433777
    45  C   -0.077232
    46  C    0.002561
    47  C   -0.125865
    48  C    0.162335
    49  C   -0.380861
    50  C   -0.258874
    51  C   -0.169521
    52  C   -0.176431
    53  C   -0.059638
    54  C   -0.322985
    55  C   -0.160830
    56  C   -0.174981
    57  C   -0.174237
    58  C   -0.060471
    59  C   -0.299578
    60  C   -0.164521
    61  C   -0.174553
    62  C   -0.138380
    63  C   -0.065998
    64  C   -0.297223
    65  C   -0.290850
    66  H    0.073249
    67  H    0.075141
    68  H    0.079896
    69  H    0.110327
    70  H    0.094533
    71  H    0.067166
    72  H    0.122535
    73  H    0.135643
    74  H    0.090750
    75  H    0.095831
    76  H    0.119283
    77  H    0.120010
    78  H    0.111043
    79  H    0.134591
    80  H    0.093726
    81  H    0.085481
    82  H    0.098312
    83  H    0.100506
    84  H    0.096834
    85  H    0.118182
    86  H    0.129544
    87  H    0.110984
    88  H    0.105881
    89  H    0.065602
    90  H    0.127659
    91  H    0.093148
    92  H    0.146186
    93  H    0.141478
    94  H    0.110330
    95  H    0.159516
    96  H    0.093307
    97  H    0.151158
    98  H    0.132310
    99  H    0.099108
   100  H    0.114991
   101  H    0.064889
   102  H    0.119908
   103  H    0.113337
   104  H    0.107817
   105  H    0.109943
   106  H    0.102578
   107  H    0.113523
   108  H    0.090331
   109  H    0.096743
   110  H    0.080194
   111  H    0.068335
   112  H    0.090799
   113  H    0.108028
   114  H    0.098572
   115  H    0.094803
   116  H    0.090642
   117  H    0.091697
   118  H    0.082514
   119  H    0.090242
   120  H    0.050707
   121  H    0.082888
   122  H    0.119195
   123  H    0.090165
   124  H    0.072914
   125  H    0.084948
   126  H    0.086680
   127  H    0.094743
   128  H    0.072551
   129  H    0.087360
   130  H    0.097196
   131  H    0.058100
   132  H    0.102420
   133  H    0.105996
   134  H    0.111344
   135  H    0.102126
   136  H    0.092889
   137  H    0.055816
 Sum of Mulliken charges =  -0.00000

 Dipole moment (field-independent basis, Debye):
    X=              1.5732    Y=              3.2710    Z=              1.2598  Tot=              3.8421
 Quadrupole moment (field-independent basis, Debye-Ang):
   XX=           -363.5280   YY=           -383.3944   ZZ=           -401.2098
   XY=            -17.6584   XZ=              9.1169   YZ=             -0.0869

 Normal termination of Gaussian 16 at Wed Sep 11 01:17:48 2019.
