 Gaussian 16, Revision A.03,
 Gaussian 16:  ES64L-G16RevA.03 25-Dec-2016

 ----------------------------------------------------------------------
 # td=(NStates=1) iop(3/107=0140000000,3/108=0140000000) CAM-B3LYP/6-31
 G(d,p)
 ----------------------------------------------------------------------

 --
 TD
 --
 Symbolic Z-matrix:
 Charge =  0 Multiplicity = 1

                         Standard orientation:
 ---------------------------------------------------------------------
 Center     Atomic      Atomic             Coordinates (Angstroms)
 Number     Number       Type             X           Y           Z
 ---------------------------------------------------------------------
      1         12           0       -7.118001    0.627913    0.041100
      2          6           0       -4.825948   -1.948613    0.546164
      3          6           0       -4.906041    2.804004    1.211393
      4          6           0       -9.402737    3.086706   -0.448962
      5          6           0       -9.462319   -1.681510   -0.880580
      6          7           0       -5.114868    0.508508    0.592251
      7          6           0       -4.324766   -0.661940    0.708503
      8          6           0       -2.866946   -0.324706    1.157312
      9          6           0       -3.007348    1.236544    1.606178
     10          6           0       -4.333780    1.484586    1.142562
     11          6           0       -3.009783    1.340592    3.109935
     12          6           0       -1.858528   -0.587598    0.009651
     13          6           0       -0.381687   -0.589488    0.495899
     14          6           0        0.539303   -0.715940   -0.643022
     15          8           0        0.207704   -1.074910   -1.733676
     16          8           0        1.809919   -0.493243   -0.206895
     17          7           0       -7.003271    2.685052    0.239268
     18          6           0       -6.078379    3.353777    0.804174
     19          6           0       -6.424957    4.870058    0.796286
     20          6           0       -7.683152    4.891112    0.393497
     21          6           0       -8.123015    3.575047   -0.000682
     22          6           0       -5.570250    6.012181    1.111913
     23          6           0       -8.579157    6.027337    0.094415
     24          6           0       -8.626645    7.205980    0.845023
     25          7           0       -9.067211    0.620067   -0.593767
     26          6           0       -9.807566    1.830942   -0.810910
     27          6           0      -11.230873    1.497096   -1.160810
     28          6           0      -11.183313    0.127315   -1.298363
     29          6           0       -9.815086   -0.375943   -0.984779
     30          6           0      -12.395443    2.363844   -1.267189
     31          6           0      -12.304285   -0.821805   -1.679229
     32          6           0      -12.095199   -1.483485   -3.084882
     33          7           0       -7.182898   -1.372215   -0.199213
     34          6           0       -8.200341   -2.263215   -0.480477
     35          6           0       -7.821583   -3.586532   -0.433868
     36          6           0       -6.527926   -3.524833    0.080441
     37          6           0       -6.177958   -2.196715    0.143163
     38          6           0       -8.609377   -4.781726   -0.794771
     39          6           0       -5.292506   -4.423493    0.292881
     40          8           0       -5.215517   -5.624457    0.405325
     41          6           0       -4.177701   -3.265557    0.631598
     42          6           0       -3.582116   -3.597197    1.979091
     43          8           0       -3.817210   -3.080038    3.074076
     44          8           0       -2.749201   -4.632161    1.860883
     45          6           0       -2.161709   -5.105258    3.169845
     46          6           0        2.855575   -0.714487   -1.215587
     47          6           0        4.109268   -0.607323   -0.647937
     48          6           0        5.029716    0.186761   -1.155814
     49          6           0        5.047219    1.015010   -2.391639
     50          6           0        6.329452    0.345730   -0.381958
     51          6           0        7.587251   -0.353608   -1.019075
     52          6           0        8.863442   -0.181705   -0.144629
     53          6           0       10.230959   -0.522312   -1.018672
     54          6           0       10.177775   -1.983498   -1.529852
     55          6           0       11.402147   -0.223547   -0.097586
     56          6           0       12.762431   -0.403982   -0.758746
     57          6           0       13.922273   -0.010504    0.188988
     58          6           0       15.333177   -0.142201   -0.418233
     59          6           0       15.676160   -1.670518   -0.692412
     60          6           0       16.273604    0.459245    0.487553
     61          6           0       17.746978    0.572002    0.015567
     62          6           0       18.825117    1.312213    0.821091
     63          6           0       20.334308    1.426071    0.246929
     64          6           0       20.387071    2.236385   -1.029471
     65          6           0       21.213265    1.889108    1.416874
     66          1           0       -4.074504    3.510993    1.604048
     67          1           0      -10.159914    3.942056   -0.331992
     68          1           0      -10.287866   -2.361143   -1.034337
     69          1           0       -2.635954   -0.933613    2.072938
     70          1           0       -2.120435    1.735205    0.989500
     71          1           0       -1.803818    1.416698    3.258815
     72          1           0       -3.597811    2.349167    3.474831
     73          1           0       -3.513011    0.374699    3.541443
     74          1           0       -2.090604   -1.386348   -0.500823
     75          1           0       -2.076289    0.131376   -0.787519
     76          1           0       -0.330488    0.417187    0.868522
     77          1           0       -0.496323   -1.217861    1.400284
     78          1           0       -5.882957    6.843401    0.603915
     79          1           0       -5.292747    6.263102    2.194028
     80          1           0       -4.484448    5.674552    0.794362
     81          1           0       -9.427073    5.869803   -0.747004
     82          1           0       -9.386223    8.027715    0.664060
     83          1           0       -7.737248    7.430676    1.493709
     84          1           0      -12.353535    3.022538   -2.043775
     85          1           0      -13.387247    1.914973   -1.303576
     86          1           0      -12.438906    3.017124   -0.364996
     87          1           0      -12.215073   -1.707704   -1.057456
     88          1           0      -13.388233   -0.454353   -1.674522
     89          1           0      -12.819628   -2.205640   -3.289374
     90          1           0      -12.165104   -0.757298   -3.940552
     91          1           0      -11.293174   -1.922933   -3.172858
     92          1           0       -9.237197   -4.626923   -1.629768
     93          1           0       -7.904132   -5.615466   -1.180695
     94          1           0       -9.465838   -4.837936    0.017872
     95          1           0       -3.401087   -3.273236   -0.239805
     96          1           0       -1.486561   -4.167351    3.341199
     97          1           0       -2.724214   -5.447475    3.934629
     98          1           0       -1.491778   -6.024306    2.850279
     99          1           0        2.539498   -1.700197   -1.753299
    100          1           0        2.551381   -0.061873   -2.175244
    101          1           0        4.270749   -1.072649    0.299300
    102          1           0        3.955436    1.072996   -2.771587
    103          1           0        5.488070    2.119963   -2.267523
    104          1           0        5.596674    0.584640   -3.393732
    105          1           0        6.765726    1.334457   -0.261663
    106          1           0        6.442070   -0.185249    0.464036
    107          1           0        7.462834   -1.540212   -1.534045
    108          1           0        7.866874    0.111537   -1.956383
    109          1           0        8.957431    0.869064    0.133518
    110          1           0        8.789055   -0.796710    0.922163
    111          1           0       10.020059    0.098490   -2.036463
    112          1           0        9.356915   -2.248433   -2.288329
    113          1           0       11.078734   -2.320724   -2.136569
    114          1           0        9.956928   -2.464317   -0.720299
    115          1           0       11.302637    0.710763    0.450783
    116          1           0       11.506215   -0.978948    0.721069
    117          1           0       12.549928   -1.316220   -1.237904
    118          1           0       12.685505    0.446058   -1.663381
    119          1           0       13.680078    1.016708    0.585921
    120          1           0       13.763318   -0.724824    1.096315
    121          1           0       15.204629    0.331181   -1.285202
    122          1           0       15.867720   -2.191742    0.424722
    123          1           0       14.922885   -2.344248   -1.418207
    124          1           0       16.607020   -1.809570   -1.185516
    125          1           0       15.925665    1.588748    0.806633
    126          1           0       16.264348   -0.118602    1.280599
    127          1           0       17.918866   -0.434284   -0.039979
    128          1           0       17.647040    0.848478   -0.988941
    129          1           0       18.581550    2.382569    1.160715
    130          1           0       18.873042    0.789636    1.898676
    131          1           0       20.573533    0.324921   -0.107173
    132          1           0       19.819205    3.182933   -0.821096
    133          1           0       21.515935    2.267271   -1.405445
    134          1           0       19.793622    1.481948   -1.770732
    135          1           0       20.948168    1.339141    2.350561
    136          1           0       22.371578    1.680190    1.244493
    137          1           0       21.068253    2.936626    1.392398
 ---------------------------------------------------------------------

 SCF Done:  E(RCAM-B3LYP) =  -2933.43089093     A.U. after   16 cycles

 Excitation energies and oscillator strengths:

 Excited State   1:      Singlet-A      2.0210 eV  613.47 nm  f=0.2734  <S**2>=0.000
     240 -> 243        0.21182
     241 -> 242        0.67353
 This state for optimization and/or second-order correction.
 Total Energy, E(TD-HF/TD-DFT) =  -2933.35661941
 Copying the excited state density for this state as the 1-particle RhoCI density.

 The electronic state is 1-A.
 Alpha  occ. eigenvalues --  -46.79743 -19.21999 -19.21691 -19.17534 -19.17095
 Alpha  occ. eigenvalues --  -19.15706 -14.37949 -14.35152 -14.35129 -14.34210
 Alpha  occ. eigenvalues --  -10.34712 -10.33876 -10.31384 -10.27963 -10.27823
 Alpha  occ. eigenvalues --  -10.26474 -10.25893 -10.25698 -10.25480 -10.25081
 Alpha  occ. eigenvalues --  -10.24670 -10.24632 -10.24522 -10.24407 -10.24302
 Alpha  occ. eigenvalues --  -10.23780 -10.23752 -10.23732 -10.23704 -10.23585
 Alpha  occ. eigenvalues --  -10.23307 -10.23182 -10.23084 -10.23010 -10.22905
 Alpha  occ. eigenvalues --  -10.22869 -10.22846 -10.22730 -10.22567 -10.22554
 Alpha  occ. eigenvalues --  -10.22480 -10.22434 -10.22356 -10.22319 -10.22316
 Alpha  occ. eigenvalues --  -10.22105 -10.22077 -10.22052 -10.22035 -10.21975
 Alpha  occ. eigenvalues --  -10.21923 -10.21303 -10.21278 -10.21175 -10.21019
 Alpha  occ. eigenvalues --  -10.20891 -10.20888 -10.20860 -10.20816 -10.20814
 Alpha  occ. eigenvalues --  -10.20130 -10.20099 -10.19995 -10.19494 -10.18374
 Alpha  occ. eigenvalues --   -3.08376  -1.83317  -1.82862  -1.82771  -1.13149
 Alpha  occ. eigenvalues --   -1.11908  -1.06671  -1.05490  -1.02157  -0.99450
 Alpha  occ. eigenvalues --   -0.98982  -0.97888  -0.97339  -0.87310  -0.87028
 Alpha  occ. eigenvalues --   -0.86356  -0.85189  -0.84975  -0.84330  -0.83574
 Alpha  occ. eigenvalues --   -0.83192  -0.82808  -0.82652  -0.81979  -0.81314
 Alpha  occ. eigenvalues --   -0.80589  -0.78965  -0.78548  -0.78213  -0.77601
 Alpha  occ. eigenvalues --   -0.76644  -0.75823  -0.75651  -0.75120  -0.73306
 Alpha  occ. eigenvalues --   -0.73224  -0.73045  -0.71310  -0.71107  -0.70558
 Alpha  occ. eigenvalues --   -0.70537  -0.70055  -0.69510  -0.68595  -0.67777
 Alpha  occ. eigenvalues --   -0.67006  -0.65973  -0.65372  -0.64589  -0.63294
 Alpha  occ. eigenvalues --   -0.62418  -0.62025  -0.60510  -0.60343  -0.60148
 Alpha  occ. eigenvalues --   -0.59734  -0.59460  -0.59257  -0.58204  -0.57532
 Alpha  occ. eigenvalues --   -0.57425  -0.56464  -0.56181  -0.55665  -0.54987
 Alpha  occ. eigenvalues --   -0.54230  -0.54173  -0.53743  -0.53172  -0.52695
 Alpha  occ. eigenvalues --   -0.52469  -0.51312  -0.51222  -0.51134  -0.51022
 Alpha  occ. eigenvalues --   -0.50776  -0.50528  -0.49805  -0.49588  -0.49194
 Alpha  occ. eigenvalues --   -0.48918  -0.48783  -0.48726  -0.48075  -0.47920
 Alpha  occ. eigenvalues --   -0.47393  -0.47073  -0.46965  -0.46850  -0.46733
 Alpha  occ. eigenvalues --   -0.46470  -0.46213  -0.46086  -0.45809  -0.45740
 Alpha  occ. eigenvalues --   -0.45374  -0.45288  -0.45137  -0.45016  -0.44675
 Alpha  occ. eigenvalues --   -0.44539  -0.44110  -0.43774  -0.43575  -0.43500
 Alpha  occ. eigenvalues --   -0.43168  -0.43035  -0.42767  -0.42304  -0.42158
 Alpha  occ. eigenvalues --   -0.42036  -0.42020  -0.41654  -0.41501  -0.41364
 Alpha  occ. eigenvalues --   -0.41134  -0.41051  -0.40863  -0.40720  -0.40553
 Alpha  occ. eigenvalues --   -0.40317  -0.40199  -0.40100  -0.39937  -0.39768
 Alpha  occ. eigenvalues --   -0.39391  -0.39251  -0.39160  -0.39033  -0.38790
 Alpha  occ. eigenvalues --   -0.38621  -0.38467  -0.38442  -0.38220  -0.38124
 Alpha  occ. eigenvalues --   -0.37962  -0.37815  -0.37682  -0.37429  -0.37205
 Alpha  occ. eigenvalues --   -0.36794  -0.36766  -0.36698  -0.36412  -0.36254
 Alpha  occ. eigenvalues --   -0.36124  -0.35723  -0.35372  -0.35336  -0.34463
 Alpha  occ. eigenvalues --   -0.34179  -0.34010  -0.33730  -0.33701  -0.33635
 Alpha  occ. eigenvalues --   -0.33506  -0.33279  -0.32970  -0.32799  -0.32286
 Alpha  occ. eigenvalues --   -0.32132  -0.32048  -0.31914  -0.31325  -0.30800
 Alpha  occ. eigenvalues --   -0.30461  -0.29794  -0.28850  -0.28046  -0.27376
 Alpha  occ. eigenvalues --   -0.26752  -0.26268  -0.25722  -0.25276  -0.21240
 Alpha  occ. eigenvalues --   -0.19589
 Alpha virt. eigenvalues --   -0.06925  -0.02665  -0.00023   0.01397   0.02703
 Alpha virt. eigenvalues --    0.03145   0.03977   0.04412   0.05039   0.05684
 Alpha virt. eigenvalues --    0.06549   0.08596   0.09388   0.09693   0.09835

 Mulliken charges:
               1
     1  Mg   0.805514
     2  C    0.118348
     3  C   -0.239460
     4  C   -0.190941
     5  C   -0.202784
     6  N   -0.614284
     7  C    0.256551
     8  C   -0.181685
     9  C   -0.145622
    10  C    0.368740
    11  C   -0.288538
    12  C   -0.178238
    13  C   -0.278620
    14  C    0.634431
    15  O   -0.455977
    16  O   -0.481710
    17  N   -0.686653
    18  C    0.370182
    19  C    0.055646
    20  C    0.045723
    21  C    0.241637
    22  C   -0.390745
    23  C   -0.103336
    24  C   -0.246789
    25  N   -0.676920
    26  C    0.249627
    27  C    0.060961
    28  C    0.021356
    29  C    0.372277
    30  C   -0.391053
    31  C   -0.261772
    32  C   -0.307477
    33  N   -0.721824
    34  C    0.270744
    35  C    0.048131
    36  C   -0.036332
    37  C    0.297035
    38  C   -0.380046
    39  C    0.383979
    40  O   -0.433577
    41  C   -0.371925
    42  C    0.631012
    43  O   -0.500343
    44  O   -0.446748
    45  C   -0.079234
    46  C   -0.009426
    47  C   -0.103342
    48  C    0.167809
    49  C   -0.365479
    50  C   -0.229975
    51  C   -0.185592
    52  C   -0.179400
    53  C   -0.062490
    54  C   -0.307049
    55  C   -0.174783
    56  C   -0.162806
    57  C   -0.166660
    58  C   -0.033247
    59  C   -0.313943
    60  C   -0.163810
    61  C   -0.184549
    62  C   -0.165549
    63  C   -0.056034
    64  C   -0.283378
    65  C   -0.297058
    66  H    0.054755
    67  H    0.084674
    68  H    0.066347
    69  H    0.114562
    70  H    0.110797
    71  H    0.090995
    72  H    0.104330
    73  H    0.140793
    74  H    0.125162
    75  H    0.105032
    76  H    0.129888
    77  H    0.143313
    78  H    0.132054
    79  H    0.120971
    80  H    0.103076
    81  H    0.090462
    82  H    0.107640
    83  H    0.102540
    84  H    0.135625
    85  H    0.121345
    86  H    0.116651
    87  H    0.110632
    88  H    0.096310
    89  H    0.101547
    90  H    0.095380
    91  H    0.118731
    92  H    0.124678
    93  H    0.136450
    94  H    0.120705
    95  H    0.154667
    96  H    0.121458
    97  H    0.157989
    98  H    0.112311
    99  H    0.118211
   100  H    0.109522
   101  H    0.105353
   102  H    0.101138
   103  H    0.110754
   104  H    0.114110
   105  H    0.102406
   106  H    0.111662
   107  H    0.053218
   108  H    0.096271
   109  H    0.099522
   110  H    0.065281
   111  H    0.070208
   112  H    0.091140
   113  H    0.099396
   114  H    0.124923
   115  H    0.089519
   116  H    0.088014
   117  H    0.101219
   118  H    0.044337
   119  H    0.093180
   120  H    0.072467
   121  H    0.097696
   122  H    0.072826
   123  H    0.086252
   124  H    0.119424
   125  H    0.056181
   126  H    0.099880
   127  H    0.103285
   128  H    0.093850
   129  H    0.074871
   130  H    0.065496
   131  H    0.065228
   132  H    0.102115
   133  H    0.096190
   134  H    0.091576
   135  H    0.106933
   136  H    0.081802
   137  H    0.110172
 Sum of Mulliken charges =  -0.00000

 Dipole moment (field-independent basis, Debye):
    X=              2.1419    Y=              4.3397    Z=             -0.2162  Tot=              4.8443
 Quadrupole moment (field-independent basis, Debye-Ang):
   XX=           -347.0903   YY=           -393.5050   ZZ=           -398.8231
   XY=            -26.8995   XZ=             10.1920   YZ=              1.1519

 Normal termination of Gaussian 16 at Sat Sep 14 20:57:23 2019.
