 Gaussian 09, Revision D.01,
 Gaussian 09:  ES64L-G09RevD.01 24-Apr-2013

 -------------------------------------
 # td=(NStates=1) CAM-B3LYP/6-31G(d,p)
 -------------------------------------

 --
 TD
 --
 Symbolic Z-matrix:
 Charge =  0 Multiplicity = 1

                         Standard orientation:
 ---------------------------------------------------------------------
 Center     Atomic      Atomic             Coordinates (Angstroms)
 Number     Number       Type             X           Y           Z
 ---------------------------------------------------------------------
      1         12           0       -7.162129    0.614306    0.105970
      2          6           0       -4.866143   -1.978551    0.468678
      3          6           0       -4.843036    2.821814    1.249077
      4          6           0       -9.477054    3.089320   -0.367070
      5          6           0       -9.483831   -1.778394   -1.067472
      6          7           0       -5.212524    0.422347    0.770570
      7          6           0       -4.399978   -0.750091    0.766390
      8          6           0       -3.001501   -0.487936    1.211327
      9          6           0       -3.070261    1.036721    1.860675
     10          6           0       -4.443516    1.484828    1.319939
     11          6           0       -3.024042    1.077243    3.389868
     12          6           0       -2.031119   -0.478474    0.063352
     13          6           0       -0.509348   -0.468300    0.581961
     14          6           0        0.507602   -0.622056   -0.616264
     15          8           0        0.207670   -1.031150   -1.645624
     16          8           0        1.715890   -0.231064   -0.236983
     17          7           0       -7.074804    2.632500    0.407570
     18          6           0       -6.073737    3.392761    0.810904
     19          6           0       -6.517876    4.755128    0.885982
     20          6           0       -7.795267    4.748550    0.366987
     21          6           0       -8.203384    3.408331    0.072470
     22          6           0       -5.560436    5.874638    1.174532
     23          6           0       -8.586390    6.013584    0.059123
     24          6           0       -8.623708    7.167407    0.822308
     25          7           0       -9.106823    0.652456   -0.651883
     26          6           0       -9.896794    1.773783   -0.728041
     27          6           0      -11.223404    1.365681   -1.203423
     28          6           0      -11.133340   -0.007966   -1.442776
     29          6           0       -9.839026   -0.461154   -1.071102
     30          6           0      -12.356457    2.330312   -1.505700
     31          6           0      -12.303654   -0.931594   -1.806542
     32          6           0      -12.297411   -1.030376   -3.385288
     33          7           0       -7.254155   -1.428093   -0.075417
     34          6           0       -8.266114   -2.286472   -0.592825
     35          6           0       -7.766887   -3.729166   -0.602007
     36          6           0       -6.412702   -3.585124   -0.065977
     37          6           0       -6.245629   -2.236999    0.152589
     38          6           0       -8.576707   -4.897899   -0.851085
     39          6           0       -5.242322   -4.345663    0.233825
     40          8           0       -4.990587   -5.554055    0.134496
     41          6           0       -4.186282   -3.254268    0.587366
     42          6           0       -3.545796   -3.603208    1.941880
     43          8           0       -3.806567   -3.090683    3.035831
     44          8           0       -2.650618   -4.570802    1.899234
     45          6           0       -2.048721   -5.098460    3.024923
     46          6           0        2.760349   -0.465712   -1.203748
     47          6           0        4.173006   -0.389815   -0.564003
     48          6           0        5.139003    0.460915   -1.027059
     49          6           0        5.191460    1.244389   -2.236968
     50          6           0        6.366141    0.564612   -0.175641
     51          6           0        7.680468   -0.038291   -0.918923
     52          6           0        8.933813    0.176275   -0.090888
     53          6           0       10.193896   -0.451871   -0.840400
     54          6           0       10.045759   -1.891918   -1.237594
     55          6           0       11.398000   -0.151981    0.030233
     56          6           0       12.759558   -0.460892   -0.755426
     57          6           0       13.923233   -0.068691    0.136178
     58          6           0       15.422244   -0.188516   -0.485117
     59          6           0       15.609153   -1.697700   -0.892691
     60          6           0       16.510416    0.360185    0.456305
     61          6           0       17.821545    0.431884   -0.162362
     62          6           0       18.864647    1.192940    0.558065
     63          6           0       20.397684    1.206582    0.254096
     64          6           0       20.467793    1.901709   -1.118057
     65          6           0       21.290669    1.851568    1.166755
     66          1           0       -4.105766    3.476756    1.868303
     67          1           0      -10.073108    3.835539   -0.487153
     68          1           0      -10.301194   -2.487051   -1.279754
     69          1           0       -2.750947   -1.270148    2.029948
     70          1           0       -2.403960    1.719991    1.396294
     71          1           0       -2.161228    0.569892    3.722775
     72          1           0       -2.998403    2.227791    3.753985
     73          1           0       -3.858758    0.439702    3.833558
     74          1           0       -2.149353   -1.365426   -0.461960
     75          1           0       -2.188071    0.342431   -0.698794
     76          1           0       -0.104213    0.340972    1.320076
     77          1           0       -0.237416   -1.395159    1.172199
     78          1           0       -6.106077    6.733259    0.708328
     79          1           0       -5.350435    6.120938    2.205399
     80          1           0       -4.598922    5.766634    0.620801
     81          1           0       -9.347635    5.927859   -0.725142
     82          1           0       -9.238077    7.822618    0.560639
     83          1           0       -8.004810    7.332292    1.644535
     84          1           0      -12.285040    2.979136   -2.332443
     85          1           0      -13.164875    1.709340   -1.832411
     86          1           0      -12.626290    2.904358   -0.578953
     87          1           0      -11.996430   -1.884065   -1.114729
     88          1           0      -13.161002   -0.403216   -1.211456
     89          1           0      -13.129768   -1.667635   -3.675326
     90          1           0      -12.462124    0.034446   -3.684471
     91          1           0      -11.442488   -1.674714   -3.957757
     92          1           0       -8.838217   -4.935012   -1.913934
     93          1           0       -7.772293   -5.590367   -0.747965
     94          1           0       -9.462898   -4.778437   -0.125437
     95          1           0       -3.235634   -3.434199   -0.265608
     96          1           0       -1.599116   -4.156045    3.620652
     97          1           0       -2.820752   -5.518442    3.603696
     98          1           0       -1.435382   -6.182099    2.851553
     99          1           0        2.559382   -1.368685   -1.735162
    100          1           0        2.660574    0.191881   -2.099153
    101          1           0        4.125006   -0.832060    0.391355
    102          1           0        4.252752    1.089472   -2.868791
    103          1           0        5.409048    2.204124   -1.934399
    104          1           0        5.926594    0.812906   -3.007125
    105          1           0        6.675795    1.645143   -0.100149
    106          1           0        6.413860    0.066689    0.660417
    107          1           0        7.399203   -1.030116   -1.417326
    108          1           0        8.011268    0.683891   -1.818141
    109          1           0        8.983424    1.317470    0.087303
    110          1           0        8.844152   -0.431219    0.834028
    111          1           0       10.249160   -0.013920   -1.751678
    112          1           0        9.029227   -2.188413   -1.747112
    113          1           0       10.984962   -2.414597   -1.641400
    114          1           0        9.840400   -2.413246   -0.294104
    115          1           0       11.396473    0.883434    0.178392
    116          1           0       11.418988   -0.757015    0.889096
    117          1           0       12.900238   -1.491998   -0.645126
    118          1           0       12.791661   -0.070073   -1.842600
    119          1           0       13.795075    0.973022    0.587933
    120          1           0       13.868216   -0.658133    1.029088
    121          1           0       15.272947    0.543592   -1.397252
    122          1           0       15.727004   -2.417478    0.099023
    123          1           0       14.693651   -1.950350   -1.582736
    124          1           0       16.499497   -1.911200   -1.454031
    125          1           0       16.220748    1.401557    0.803779
    126          1           0       16.438067   -0.360992    1.218459
    127          1           0       18.336778   -0.499813   -0.489835
    128          1           0       17.688208    0.949118   -1.067760
    129          1           0       18.472837    2.263291    0.572409
    130          1           0       18.744121    0.887031    1.611800
    131          1           0       20.878727    0.127192    0.256136
    132          1           0       19.932302    2.966996   -0.975014
    133          1           0       21.467498    1.892457   -1.551634
    134          1           0       19.870158    1.292548   -1.864727
    135          1           0       21.098538    1.420547    2.218750
    136          1           0       22.303183    1.688323    0.893893
    137          1           0       21.280953    3.100862    1.422783
 ---------------------------------------------------------------------

 SCF Done:  E(RCAM-B3LYP) =  -2932.70528141     A.U. after   18 cycles

 Excitation energies and oscillator strengths:

 Excited State   1:      Singlet-A      2.0555 eV  603.17 nm  f=0.2509  <S**2>=0.000
     240 -> 243        0.23245
     241 -> 242        0.65359
 This state for optimization and/or second-order correction.
 Total Energy, E(TD-HF/TD-KS) =  -2932.62974199
 Copying the excited state density for this state as the 1-particle RhoCI density.

 The electronic state is 1-A.
 Alpha  occ. eigenvalues --  -46.83641 -19.25981 -19.25974 -19.20645 -19.19823
 Alpha  occ. eigenvalues --  -19.19821 -14.40915 -14.39515 -14.39314 -14.39104
 Alpha  occ. eigenvalues --  -10.39392 -10.38149 -10.34736 -10.32818 -10.31087
 Alpha  occ. eigenvalues --  -10.31002 -10.29893 -10.29720 -10.29635 -10.29609
 Alpha  occ. eigenvalues --  -10.29591 -10.29340 -10.29283 -10.28813 -10.28446
 Alpha  occ. eigenvalues --  -10.28312 -10.28163 -10.28027 -10.27957 -10.27617
 Alpha  occ. eigenvalues --  -10.27589 -10.27577 -10.27522 -10.27303 -10.27217
 Alpha  occ. eigenvalues --  -10.26988 -10.26813 -10.26780 -10.26668 -10.26638
 Alpha  occ. eigenvalues --  -10.26524 -10.26484 -10.26425 -10.26293 -10.26105
 Alpha  occ. eigenvalues --  -10.26068 -10.26067 -10.26003 -10.25886 -10.25757
 Alpha  occ. eigenvalues --  -10.25734 -10.25645 -10.25407 -10.25400 -10.25332
 Alpha  occ. eigenvalues --  -10.25175 -10.25103 -10.25054 -10.24978 -10.24941
 Alpha  occ. eigenvalues --  -10.24897 -10.24740 -10.24724 -10.24371 -10.23778
 Alpha  occ. eigenvalues --   -3.12676  -1.87394  -1.86919  -1.86844  -1.19955
 Alpha  occ. eigenvalues --   -1.19376  -1.11475  -1.09417  -1.07784  -1.04129
 Alpha  occ. eigenvalues --   -1.03661  -1.01838  -1.00261  -0.93147  -0.91544
 Alpha  occ. eigenvalues --   -0.90980  -0.90142  -0.89561  -0.88660  -0.88295
 Alpha  occ. eigenvalues --   -0.88169  -0.88094  -0.87326  -0.86924  -0.85689
 Alpha  occ. eigenvalues --   -0.85270  -0.84091  -0.83496  -0.83007  -0.82645
 Alpha  occ. eigenvalues --   -0.81962  -0.81463  -0.80696  -0.80235  -0.78277
 Alpha  occ. eigenvalues --   -0.77684  -0.77161  -0.76351  -0.75746  -0.75576
 Alpha  occ. eigenvalues --   -0.74917  -0.74662  -0.74260  -0.72991  -0.72064
 Alpha  occ. eigenvalues --   -0.71294  -0.69852  -0.69391  -0.68905  -0.68363
 Alpha  occ. eigenvalues --   -0.67614  -0.66108  -0.65534  -0.64436  -0.64326
 Alpha  occ. eigenvalues --   -0.63971  -0.63715  -0.63661  -0.62285  -0.61932
 Alpha  occ. eigenvalues --   -0.61114  -0.60495  -0.60249  -0.59738  -0.58832
 Alpha  occ. eigenvalues --   -0.58387  -0.57939  -0.57718  -0.56618  -0.56567
 Alpha  occ. eigenvalues --   -0.55815  -0.55601  -0.55255  -0.54906  -0.54582
 Alpha  occ. eigenvalues --   -0.54413  -0.54161  -0.53848  -0.53610  -0.53447
 Alpha  occ. eigenvalues --   -0.53063  -0.52844  -0.52253  -0.51961  -0.51954
 Alpha  occ. eigenvalues --   -0.51226  -0.51105  -0.50779  -0.50580  -0.50448
 Alpha  occ. eigenvalues --   -0.50367  -0.50177  -0.49885  -0.49757  -0.49462
 Alpha  occ. eigenvalues --   -0.49222  -0.49021  -0.48950  -0.48913  -0.48615
 Alpha  occ. eigenvalues --   -0.48508  -0.48123  -0.47576  -0.47489  -0.47064
 Alpha  occ. eigenvalues --   -0.46989  -0.46875  -0.46539  -0.46287  -0.45915
 Alpha  occ. eigenvalues --   -0.45823  -0.45528  -0.45415  -0.45364  -0.44942
 Alpha  occ. eigenvalues --   -0.44810  -0.44591  -0.44372  -0.44145  -0.44028
 Alpha  occ. eigenvalues --   -0.43746  -0.43563  -0.43434  -0.43280  -0.43148
 Alpha  occ. eigenvalues --   -0.43039  -0.43007  -0.42920  -0.42641  -0.42529
 Alpha  occ. eigenvalues --   -0.42239  -0.42155  -0.42032  -0.41581  -0.41161
 Alpha  occ. eigenvalues --   -0.40651  -0.40393  -0.40307  -0.40038  -0.39992
 Alpha  occ. eigenvalues --   -0.39688  -0.39467  -0.39283  -0.38973  -0.38937
 Alpha  occ. eigenvalues --   -0.38781  -0.38485  -0.37903  -0.37750  -0.37435
 Alpha  occ. eigenvalues --   -0.37271  -0.37065  -0.36720  -0.36624  -0.36204
 Alpha  occ. eigenvalues --   -0.35995  -0.35925  -0.35692  -0.35481  -0.35469
 Alpha  occ. eigenvalues --   -0.35124  -0.35098  -0.34870  -0.33695  -0.33278
 Alpha  occ. eigenvalues --   -0.32932  -0.32797  -0.31916  -0.30665  -0.30002
 Alpha  occ. eigenvalues --   -0.29032  -0.28839  -0.27890  -0.27464  -0.23152
 Alpha  occ. eigenvalues --   -0.21623
 Alpha virt. eigenvalues --   -0.06843  -0.03101   0.01655   0.03674   0.05631
 Alpha virt. eigenvalues --    0.05739   0.06436   0.06986   0.07237   0.07713
 Alpha virt. eigenvalues --    0.09493   0.10616   0.11074   0.11504   0.11954

 Mulliken charges:
               1
     1  Mg   0.804235
     2  C    0.097300
     3  C   -0.224203
     4  C   -0.109446
     5  C   -0.169964
     6  N   -0.648482
     7  C    0.298392
     8  C   -0.183918
     9  C   -0.134202
    10  C    0.329310
    11  C   -0.300671
    12  C   -0.157593
    13  C   -0.284799
    14  C    0.590900
    15  O   -0.431146
    16  O   -0.466224
    17  N   -0.729259
    18  C    0.340965
    19  C    0.008173
    20  C   -0.014838
    21  C    0.330867
    22  C   -0.377787
    23  C   -0.115669
    24  C   -0.200502
    25  N   -0.710460
    26  C    0.295128
    27  C   -0.006101
    28  C   -0.008094
    29  C    0.331154
    30  C   -0.370120
    31  C   -0.236726
    32  C   -0.299835
    33  N   -0.706064
    34  C    0.223313
    35  C    0.008125
    36  C    0.012403
    37  C    0.345745
    38  C   -0.374270
    39  C    0.359618
    40  O   -0.484130
    41  C   -0.334687
    42  C    0.601676
    43  O   -0.500590
    44  O   -0.405481
    45  C   -0.077828
    46  C   -0.009550
    47  C   -0.150327
    48  C    0.136623
    49  C   -0.355970
    50  C   -0.205428
    51  C   -0.196084
    52  C   -0.175004
    53  C   -0.055451
    54  C   -0.325849
    55  C   -0.164346
    56  C   -0.195765
    57  C   -0.188250
    58  C   -0.066301
    59  C   -0.305987
    60  C   -0.158916
    61  C   -0.162204
    62  C   -0.176283
    63  C   -0.046809
    64  C   -0.292926
    65  C   -0.278161
    66  H    0.073704
    67  H    0.066204
    68  H    0.097420
    69  H    0.124643
    70  H    0.116455
    71  H    0.120014
    72  H    0.089737
    73  H    0.129993
    74  H    0.129195
    75  H    0.116951
    76  H    0.118286
    77  H    0.126021
    78  H    0.113314
    79  H    0.123894
    80  H    0.121903
    81  H    0.093382
    82  H    0.096581
    83  H    0.110216
    84  H    0.129265
    85  H    0.107327
    86  H    0.115201
    87  H    0.083498
    88  H    0.114248
    89  H    0.110550
    90  H    0.121305
    91  H    0.107777
    92  H    0.132021
    93  H    0.160361
    94  H    0.137366
    95  H    0.139484
    96  H    0.114156
    97  H    0.137592
    98  H    0.111020
    99  H    0.129150
   100  H    0.103825
   101  H    0.098020
   102  H    0.104049
   103  H    0.130328
   104  H    0.126452
   105  H    0.086752
   106  H    0.108246
   107  H    0.097549
   108  H    0.067976
   109  H    0.092901
   110  H    0.085839
   111  H    0.094794
   112  H    0.093786
   113  H    0.108091
   114  H    0.091885
   115  H    0.101113
   116  H    0.098296
   117  H    0.115661
   118  H    0.084754
   119  H    0.066366
   120  H    0.087941
   121  H    0.068232
   122  H    0.076985
   123  H    0.100503
   124  H    0.112546
   125  H    0.088339
   126  H    0.096430
   127  H    0.086617
   128  H    0.099556
   129  H    0.074950
   130  H    0.075372
   131  H    0.075386
   132  H    0.091656
   133  H    0.095953
   134  H    0.093742
   135  H    0.088120
   136  H    0.113792
   137  H    0.057735
 Sum of Mulliken charges =   0.00000

 Dipole moment (field-independent basis, Debye):
    X=              0.7153    Y=              4.0640    Z=             -0.4809  Tot=              4.1544
 Quadrupole moment (field-independent basis, Debye-Ang):
   XX=           -329.3188   YY=           -393.0839   ZZ=           -396.8076
   XY=            -28.6351   XZ=             14.6395   YZ=             -1.3703

 Normal termination of Gaussian 09 at Thu Jul  4 14:11:53 2019.
