 Gaussian 16, Revision A.03,
 Gaussian 16:  ES64L-G16RevA.03 25-Dec-2016

 ----------------------------------------------------------------------
 # td=(NStates=1) iop(3/107=0140000000,3/108=0140000000) CAM-B3LYP/6-31
 G(d,p)
 ----------------------------------------------------------------------

 --
 TD
 --
 Symbolic Z-matrix:
 Charge =  0 Multiplicity = 1

                         Standard orientation:
 ---------------------------------------------------------------------
 Center     Atomic      Atomic             Coordinates (Angstroms)
 Number     Number       Type             X           Y           Z
 ---------------------------------------------------------------------
      1         12           0       -7.160320    0.638419   -0.034021
      2          6           0       -4.841944   -1.981491    0.502612
      3          6           0       -4.863123    2.862575    1.251542
      4          6           0       -9.454206    3.116065   -0.418562
      5          6           0       -9.471404   -1.786878   -1.062173
      6          7           0       -5.185115    0.480527    0.744727
      7          6           0       -4.399359   -0.706828    0.909139
      8          6           0       -2.965475   -0.433525    1.329329
      9          6           0       -3.059567    1.125916    1.788654
     10          6           0       -4.470964    1.520793    1.249265
     11          6           0       -3.067938    1.249566    3.352507
     12          6           0       -1.975771   -0.560940    0.178999
     13          6           0       -0.541513   -0.436425    0.651379
     14          6           0        0.503354   -0.633837   -0.391595
     15          8           0        0.195183   -0.852389   -1.553971
     16          8           0        1.765231   -0.419124   -0.043715
     17          7           0       -7.139701    2.603973    0.255313
     18          6           0       -6.184678    3.344962    0.820673
     19          6           0       -6.442566    4.778466    0.779440
     20          6           0       -7.766562    4.850092    0.300698
     21          6           0       -8.252036    3.418066    0.023561
     22          6           0       -5.526116    5.955486    1.205430
     23          6           0       -8.553594    6.026650    0.079268
     24          6           0       -8.537441    7.207192    0.798536
     25          7           0       -9.079895    0.587617   -0.523863
     26          6           0       -9.903335    1.813685   -0.686369
     27          6           0      -11.251203    1.397003   -1.156891
     28          6           0      -11.225607    0.064661   -1.299806
     29          6           0       -9.913472   -0.398634   -0.949811
     30          6           0      -12.307964    2.480661   -1.381445
     31          6           0      -12.272274   -0.770730   -1.884016
     32          6           0      -12.033831   -1.158162   -3.386989
     33          7           0       -7.220266   -1.417436   -0.174487
     34          6           0       -8.226994   -2.227839   -0.605643
     35          6           0       -7.761143   -3.607576   -0.596515
     36          6           0       -6.508258   -3.550444   -0.135531
     37          6           0       -6.168658   -2.203280    0.114696
     38          6           0       -8.581823   -4.910481   -0.778021
     39          6           0       -5.359722   -4.445232    0.181266
     40          8           0       -5.283194   -5.650283    0.281543
     41          6           0       -4.209034   -3.380045    0.544722
     42          6           0       -3.608762   -3.670150    1.888469
     43          8           0       -3.855104   -3.185494    2.972037
     44          8           0       -2.785098   -4.725859    1.722810
     45          6           0       -2.003126   -5.152504    2.884036
     46          6           0        2.816455   -0.600471   -1.099542
     47          6           0        4.150666   -0.422236   -0.426009
     48          6           0        5.072772    0.346929   -0.970940
     49          6           0        5.010663    1.199638   -2.198298
     50          6           0        6.454741    0.328814   -0.203139
     51          6           0        7.712227   -0.149538   -1.082174
     52          6           0        8.972244   -0.145301   -0.254924
     53          6           0       10.238778   -0.517657   -0.960934
     54          6           0       10.138826   -1.884163   -1.503493
     55          6           0       11.498725   -0.219549   -0.094267
     56          6           0       12.862430   -0.439810   -0.679882
     57          6           0       13.947250   -0.083912    0.269198
     58          6           0       15.396587   -0.122922   -0.533044
     59          6           0       15.805965   -1.527918   -0.871905
     60          6           0       16.438024    0.370484    0.554047
     61          6           0       17.795125    0.549838   -0.156733
     62          6           0       18.897583    1.260218    0.693184
     63          6           0       20.320270    1.286187    0.163338
     64          6           0       20.305875    2.081496   -1.116228
     65          6           0       21.330567    1.879438    1.154451
     66          1           0       -4.120399    3.596984    1.515425
     67          1           0      -10.166444    3.834628   -0.638499
     68          1           0      -10.194048   -2.670951   -1.170092
     69          1           0       -2.826255   -1.100945    2.209671
     70          1           0       -2.235663    1.581850    1.484401
     71          1           0       -2.117601    0.975364    3.795424
     72          1           0       -3.353072    2.224623    3.623485
     73          1           0       -3.619605    0.598282    3.830459
     74          1           0       -2.256503   -1.492417   -0.335421
     75          1           0       -2.318311    0.275696   -0.556698
     76          1           0       -0.198343    0.349948    1.442683
     77          1           0       -0.395424   -1.332012    1.334858
     78          1           0       -5.815865    6.879210    0.526723
     79          1           0       -5.589074    6.136100    2.254193
     80          1           0       -4.421559    5.828342    0.754609
     81          1           0       -9.412455    6.071186   -0.623570
     82          1           0       -9.163837    8.069007    0.393636
     83          1           0       -7.900668    7.422505    1.553636
     84          1           0      -11.864593    2.980207   -2.402599
     85          1           0      -13.245855    1.926037   -1.700823
     86          1           0      -12.339790    3.112174   -0.575107
     87          1           0      -12.584798   -1.750444   -1.349645
     88          1           0      -13.201369    0.060805   -1.875348
     89          1           0      -12.846496   -1.683661   -3.790316
     90          1           0      -11.890602   -0.285669   -3.852051
     91          1           0      -11.201843   -1.962517   -3.500365
     92          1           0       -9.003962   -4.890232   -1.802074
     93          1           0       -7.884020   -5.725824   -0.689338
     94          1           0       -9.389016   -4.982470    0.022812
     95          1           0       -3.417743   -3.488156   -0.295785
     96          1           0       -1.319878   -4.230561    3.226373
     97          1           0       -2.616539   -5.527430    3.824364
     98          1           0       -1.274100   -5.903718    2.857503
     99          1           0        2.730467   -1.670978   -1.351795
    100          1           0        2.631592    0.020323   -1.835288
    101          1           0        4.316878   -1.338000    0.358990
    102          1           0        3.973887    1.082376   -2.444134
    103          1           0        5.210451    2.278032   -2.153741
    104          1           0        5.646511    0.909068   -3.031582
    105          1           0        6.937200    1.341524    0.344158
    106          1           0        6.319829   -0.514523    0.716433
    107          1           0        7.406293   -1.089128   -1.273795
    108          1           0        7.897180    0.539329   -2.069472
    109          1           0        9.024626    0.829145    0.258863
    110          1           0        8.882797   -0.806016    0.572671
    111          1           0       10.304201    0.084111   -1.868140
    112          1           0        9.340605   -1.949442   -2.221010
    113          1           0       10.971133   -2.080623   -2.254699
    114          1           0        9.706524   -2.650841   -0.891796
    115          1           0       11.242224    0.770855    0.338765
    116          1           0       11.385932   -0.592013    0.816275
    117          1           0       13.037506   -1.567303   -0.788123
    118          1           0       12.641546    0.083244   -1.524530
    119          1           0       13.621293    0.907832    0.842140
    120          1           0       13.829863   -0.849149    1.089807
    121          1           0       15.212556    0.485832   -1.344570
    122          1           0       16.038790   -2.110854    0.080734
    123          1           0       14.957913   -2.039953   -1.458764
    124          1           0       16.719438   -1.431253   -1.528576
    125          1           0       16.143296    1.462140    0.914167
    126          1           0       16.510425   -0.146902    1.375848
    127          1           0       18.120391   -0.519852   -0.179324
    128          1           0       17.705677    0.919343   -1.230782
    129          1           0       18.642139    2.365042    0.851453
    130          1           0       19.211794    0.704828    1.812281
    131          1           0       20.553185    0.097777    0.023815
    132          1           0       19.912741    3.051649   -0.833816
    133          1           0       21.286517    2.024096   -1.619230
    134          1           0       19.491002    1.662391   -1.773782
    135          1           0       21.250216    1.152765    2.063442
    136          1           0       22.460749    1.650346    0.792826
    137          1           0       21.154940    2.941804    1.497189
 ---------------------------------------------------------------------

 SCF Done:  E(RCAM-B3LYP) =  -2933.52768732     A.U. after   16 cycles

 Excitation energies and oscillator strengths:

 Excited State   1:      Singlet-A      2.0208 eV  613.54 nm  f=0.2377  <S**2>=0.000
     240 -> 243       -0.24121
     241 -> 242        0.66072
 This state for optimization and/or second-order correction.
 Total Energy, E(TD-HF/TD-DFT) =  -2933.45342418
 Copying the excited state density for this state as the 1-particle RhoCI density.

 The electronic state is 1-A.
 Alpha  occ. eigenvalues --  -46.78946 -19.22442 -19.21367 -19.17423 -19.16775
 Alpha  occ. eigenvalues --  -19.14938 -14.37690 -14.35541 -14.35267 -14.34704
 Alpha  occ. eigenvalues --  -10.34614 -10.33619 -10.31515 -10.28291 -10.27002
 Alpha  occ. eigenvalues --  -10.26667 -10.26191 -10.25748 -10.25072 -10.24737
 Alpha  occ. eigenvalues --  -10.24719 -10.24540 -10.24526 -10.24517 -10.24457
 Alpha  occ. eigenvalues --  -10.24316 -10.23907 -10.23782 -10.23532 -10.23509
 Alpha  occ. eigenvalues --  -10.23492 -10.23209 -10.23131 -10.23026 -10.22971
 Alpha  occ. eigenvalues --  -10.22923 -10.22805 -10.22734 -10.22696 -10.22529
 Alpha  occ. eigenvalues --  -10.22367 -10.22189 -10.22188 -10.22097 -10.22085
 Alpha  occ. eigenvalues --  -10.22012 -10.21953 -10.21746 -10.21721 -10.21671
 Alpha  occ. eigenvalues --  -10.21640 -10.21621 -10.21569 -10.21332 -10.20819
 Alpha  occ. eigenvalues --  -10.20801 -10.20429 -10.20322 -10.20062 -10.19978
 Alpha  occ. eigenvalues --  -10.19798 -10.19676 -10.19434 -10.19003 -10.18813
 Alpha  occ. eigenvalues --   -3.07744  -1.82669  -1.82232  -1.82151  -1.12816
 Alpha  occ. eigenvalues --   -1.12345  -1.07080  -1.04105  -1.02547  -0.99373
 Alpha  occ. eigenvalues --   -0.98141  -0.96588  -0.95595  -0.87250  -0.86694
 Alpha  occ. eigenvalues --   -0.86000  -0.84814  -0.84637  -0.83958  -0.83494
 Alpha  occ. eigenvalues --   -0.83440  -0.83075  -0.82309  -0.81118  -0.80979
 Alpha  occ. eigenvalues --   -0.80244  -0.79251  -0.78480  -0.78027  -0.77494
 Alpha  occ. eigenvalues --   -0.76838  -0.75949  -0.75654  -0.75049  -0.73582
 Alpha  occ. eigenvalues --   -0.73113  -0.72128  -0.71914  -0.71398  -0.71066
 Alpha  occ. eigenvalues --   -0.70371  -0.70181  -0.69208  -0.68503  -0.67705
 Alpha  occ. eigenvalues --   -0.67288  -0.66135  -0.64741  -0.64193  -0.63940
 Alpha  occ. eigenvalues --   -0.63096  -0.61690  -0.61090  -0.60721  -0.60434
 Alpha  occ. eigenvalues --   -0.60359  -0.59966  -0.59217  -0.58950  -0.57775
 Alpha  occ. eigenvalues --   -0.56595  -0.56064  -0.55859  -0.55462  -0.55174
 Alpha  occ. eigenvalues --   -0.54456  -0.54032  -0.53316  -0.52923  -0.52694
 Alpha  occ. eigenvalues --   -0.51764  -0.51411  -0.50963  -0.50896  -0.50634
 Alpha  occ. eigenvalues --   -0.50411  -0.49831  -0.49784  -0.49290  -0.49157
 Alpha  occ. eigenvalues --   -0.48853  -0.48544  -0.48108  -0.47795  -0.47398
 Alpha  occ. eigenvalues --   -0.47202  -0.47152  -0.47097  -0.46860  -0.46631
 Alpha  occ. eigenvalues --   -0.46596  -0.46586  -0.46413  -0.46245  -0.45852
 Alpha  occ. eigenvalues --   -0.45524  -0.45401  -0.45168  -0.45102  -0.44959
 Alpha  occ. eigenvalues --   -0.44769  -0.44503  -0.44356  -0.44010  -0.43862
 Alpha  occ. eigenvalues --   -0.43457  -0.43156  -0.42923  -0.42869  -0.42569
 Alpha  occ. eigenvalues --   -0.42414  -0.42231  -0.42074  -0.41989  -0.41780
 Alpha  occ. eigenvalues --   -0.41589  -0.41520  -0.41277  -0.41027  -0.40747
 Alpha  occ. eigenvalues --   -0.40687  -0.40511  -0.40261  -0.39989  -0.39947
 Alpha  occ. eigenvalues --   -0.39863  -0.39343  -0.39008  -0.38787  -0.38688
 Alpha  occ. eigenvalues --   -0.38413  -0.38359  -0.38102  -0.37993  -0.37905
 Alpha  occ. eigenvalues --   -0.37631  -0.37565  -0.37378  -0.36988  -0.36816
 Alpha  occ. eigenvalues --   -0.36677  -0.36476  -0.36251  -0.35956  -0.35904
 Alpha  occ. eigenvalues --   -0.35351  -0.35086  -0.34901  -0.34633  -0.34391
 Alpha  occ. eigenvalues --   -0.33977  -0.33960  -0.33738  -0.33712  -0.33647
 Alpha  occ. eigenvalues --   -0.33420  -0.32689  -0.32667  -0.32600  -0.32379
 Alpha  occ. eigenvalues --   -0.32349  -0.31903  -0.31613  -0.30737  -0.30109
 Alpha  occ. eigenvalues --   -0.29921  -0.29549  -0.29128  -0.28412  -0.27949
 Alpha  occ. eigenvalues --   -0.27621  -0.27016  -0.25967  -0.24791  -0.21571
 Alpha  occ. eigenvalues --   -0.19604
 Alpha virt. eigenvalues --   -0.06641  -0.03922  -0.00288   0.02118   0.02624
 Alpha virt. eigenvalues --    0.03730   0.04364   0.04810   0.05523   0.06111
 Alpha virt. eigenvalues --    0.07215   0.08880   0.09203   0.09566   0.09764

 Mulliken charges:
               1
     1  Mg   0.821400
     2  C    0.068297
     3  C   -0.201490
     4  C   -0.151779
     5  C   -0.168573
     6  N   -0.621806
     7  C    0.262333
     8  C   -0.169153
     9  C   -0.132236
    10  C    0.358382
    11  C   -0.322042
    12  C   -0.148457
    13  C   -0.274837
    14  C    0.610417
    15  O   -0.490854
    16  O   -0.487549
    17  N   -0.716555
    18  C    0.301406
    19  C    0.036086
    20  C    0.009622
    21  C    0.332813
    22  C   -0.375954
    23  C   -0.119924
    24  C   -0.227976
    25  N   -0.688811
    26  C    0.224134
    27  C    0.030723
    28  C    0.063383
    29  C    0.298158
    30  C   -0.353489
    31  C   -0.265263
    32  C   -0.294132
    33  N   -0.715648
    34  C    0.278851
    35  C   -0.019717
    36  C    0.025673
    37  C    0.304188
    38  C   -0.374696
    39  C    0.389869
    40  O   -0.440238
    41  C   -0.343528
    42  C    0.639569
    43  O   -0.471643
    44  O   -0.439994
    45  C   -0.084550
    46  C    0.017980
    47  C   -0.119200
    48  C    0.132347
    49  C   -0.364607
    50  C   -0.222408
    51  C   -0.157418
    52  C   -0.182183
    53  C   -0.044266
    54  C   -0.319359
    55  C   -0.188107
    56  C   -0.156511
    57  C   -0.186523
    58  C   -0.049016
    59  C   -0.308568
    60  C   -0.149623
    61  C   -0.186234
    62  C   -0.144517
    63  C   -0.043942
    64  C   -0.292693
    65  C   -0.290575
    66  H    0.078679
    67  H    0.080193
    68  H    0.092318
    69  H    0.122344
    70  H    0.100055
    71  H    0.095323
    72  H    0.109895
    73  H    0.135390
    74  H    0.118960
    75  H    0.110865
    76  H    0.132887
    77  H    0.130636
    78  H    0.117315
    79  H    0.140970
    80  H    0.102408
    81  H    0.088291
    82  H    0.092004
    83  H    0.100127
    84  H    0.109850
    85  H    0.110511
    86  H    0.140904
    87  H    0.097033
    88  H    0.059797
    89  H    0.110588
    90  H    0.118709
    91  H    0.095603
    92  H    0.118853
    93  H    0.148877
    94  H    0.127649
    95  H    0.158350
    96  H    0.095852
    97  H    0.120879
    98  H    0.139184
    99  H    0.128587
   100  H    0.131079
   101  H    0.095973
   102  H    0.107309
   103  H    0.128576
   104  H    0.135150
   105  H    0.075152
   106  H    0.064890
   107  H    0.112350
   108  H    0.068811
   109  H    0.079654
   110  H    0.095576
   111  H    0.073205
   112  H    0.100772
   113  H    0.093989
   114  H    0.099922
   115  H    0.071299
   116  H    0.086219
   117  H    0.095054
   118  H    0.096515
   119  H    0.069428
   120  H    0.085265
   121  H    0.099187
   122  H    0.102582
   123  H    0.093479
   124  H    0.107891
   125  H    0.064402
   126  H    0.106316
   127  H    0.096494
   128  H    0.093809
   129  H    0.073566
   130  H    0.043075
   131  H    0.056956
   132  H    0.100283
   133  H    0.100033
   134  H    0.088795
   135  H    0.086071
   136  H    0.086802
   137  H    0.105196
 Sum of Mulliken charges =  -0.00000

 Dipole moment (field-independent basis, Debye):
    X=              2.3203    Y=              3.1691    Z=             -0.7084  Tot=              3.9911
 Quadrupole moment (field-independent basis, Debye-Ang):
   XX=           -367.9841   YY=           -390.8790   ZZ=           -396.4869
   XY=            -24.5971   XZ=             10.8381   YZ=             -2.6782

 Normal termination of Gaussian 16 at Mon Sep 23 23:05:19 2019.
