 Gaussian 09, Revision D.01,
 Gaussian 09:  ES64L-G09RevD.01 24-Apr-2013

 -------------------------------------
 # td=(NStates=1) CAM-B3LYP/6-31G(d,p)
 -------------------------------------

 --
 TD
 --
 Symbolic Z-matrix:
 Charge =  0 Multiplicity = 1

                         Standard orientation:
 ---------------------------------------------------------------------
 Center     Atomic      Atomic             Coordinates (Angstroms)
 Number     Number       Type             X           Y           Z
 ---------------------------------------------------------------------
      1         12           0       -7.110119    0.624168   -0.010506
      2          6           0       -4.886814   -1.945560    0.626056
      3          6           0       -4.829351    2.867330    1.061548
      4          6           0       -9.372291    3.067434   -0.511503
      5          6           0       -9.555774   -1.791423   -0.869020
      6          7           0       -5.104732    0.440404    0.746645
      7          6           0       -4.356073   -0.652909    0.923349
      8          6           0       -2.930011   -0.477437    1.339777
      9          6           0       -3.058858    1.099964    1.716426
     10          6           0       -4.409722    1.591942    1.191915
     11          6           0       -2.811529    1.324633    3.246412
     12          6           0       -1.968722   -0.658693    0.273996
     13          6           0       -0.528942   -0.355152    0.702833
     14          6           0        0.456334   -0.593601   -0.437893
     15          8           0        0.144548   -0.942841   -1.540970
     16          8           0        1.755718   -0.320039   -0.123685
     17          7           0       -7.178941    2.634541    0.293144
     18          6           0       -6.104410    3.332992    0.756061
     19          6           0       -6.454195    4.785446    0.745727
     20          6           0       -7.758139    4.839817    0.305736
     21          6           0       -8.190099    3.510156   -0.017001
     22          6           0       -5.482449    5.895087    1.221185
     23          6           0       -8.609406    6.048467    0.077703
     24          6           0       -8.497317    7.175417    0.765109
     25          7           0       -9.142328    0.607563   -0.482052
     26          6           0       -9.798405    1.830309   -0.663890
     27          6           0      -11.168980    1.425458   -1.225174
     28          6           0      -11.152243    0.081051   -1.379858
     29          6           0       -9.919686   -0.418800   -0.965228
     30          6           0      -12.294501    2.365585   -1.438999
     31          6           0      -12.311224   -0.827192   -1.816054
     32          6           0      -12.202513   -1.132403   -3.380692
     33          7           0       -7.233011   -1.343530   -0.108318
     34          6           0       -8.301120   -2.249641   -0.441373
     35          6           0       -7.806757   -3.639781   -0.481181
     36          6           0       -6.530644   -3.500536   -0.049648
     37          6           0       -6.142815   -2.152194    0.123694
     38          6           0       -8.640535   -4.745966   -0.936006
     39          6           0       -5.332058   -4.304623    0.184852
     40          8           0       -5.129226   -5.556603    0.051055
     41          6           0       -4.194054   -3.380719    0.693178
     42          6           0       -3.594638   -3.688709    1.968463
     43          8           0       -3.693847   -3.126044    3.063200
     44          8           0       -2.796214   -4.841624    1.913780
     45          6           0       -2.104433   -5.121157    3.057172
     46          6           0        2.740202   -0.597299   -1.125629
     47          6           0        4.147838   -0.416704   -0.576189
     48          6           0        5.148235    0.238560   -1.016230
     49          6           0        5.066471    1.119043   -2.356336
     50          6           0        6.476636    0.240503   -0.380846
     51          6           0        7.643448   -0.197443   -1.088429
     52          6           0        8.908707   -0.051294   -0.262332
     53          6           0       10.273791   -0.521111   -1.004557
     54          6           0       10.138353   -2.025506   -1.417710
     55          6           0       11.462407   -0.336480   -0.108423
     56          6           0       12.777697   -0.662093   -0.743727
     57          6           0       13.930198   -0.004959    0.083090
     58          6           0       15.324524   -0.184481   -0.533852
     59          6           0       15.814476   -1.492090   -1.003529
     60          6           0       16.504322    0.168696    0.473843
     61          6           0       17.778618    0.541081   -0.053467
     62          6           0       18.804926    1.255481    0.730470
     63          6           0       20.185220    1.411047    0.282801
     64          6           0       20.327652    2.081760   -1.090109
     65          6           0       20.955955    2.054503    1.383413
     66          1           0       -4.107843    3.568308    1.333589
     67          1           0      -10.155217    3.891449   -0.430561
     68          1           0      -10.166254   -2.682787   -1.349700
     69          1           0       -2.615121   -0.884142    2.247835
     70          1           0       -2.082041    1.497071    1.162751
     71          1           0       -1.839242    1.129271    3.588497
     72          1           0       -3.164263    2.268634    3.494821
     73          1           0       -3.336832    0.581556    3.630042
     74          1           0       -1.912171   -1.509241   -0.189504
     75          1           0       -2.246828   -0.021550   -0.735277
     76          1           0       -0.327225    0.636904    1.175099
     77          1           0       -0.257627   -1.129008    1.625827
     78          1           0       -5.600294    6.941016    0.849217
     79          1           0       -5.693667    6.137945    2.327096
     80          1           0       -4.514405    5.460329    1.211306
     81          1           0       -9.353503    6.142084   -0.585685
     82          1           0       -9.379928    7.984973    0.488137
     83          1           0       -7.815341    7.137195    1.545892
     84          1           0      -11.941275    3.238341   -1.963383
     85          1           0      -13.097134    1.620632   -1.788809
     86          1           0      -12.853338    2.589249   -0.344529
     87          1           0      -12.471940   -1.624791   -1.287889
     88          1           0      -13.226597   -0.376376   -1.716131
     89          1           0      -12.912475   -1.878814   -3.591014
     90          1           0      -12.081452   -0.282600   -3.883375
     91          1           0      -11.221949   -1.806165   -3.452541
     92          1           0       -8.809188   -4.710342   -2.063215
     93          1           0       -8.025174   -5.679211   -0.537736
     94          1           0       -9.602444   -4.867145   -0.644483
     95          1           0       -3.377771   -3.385202   -0.114828
     96          1           0       -1.476828   -4.305054    3.528985
     97          1           0       -2.919284   -5.286280    3.713710
     98          1           0       -1.585438   -6.141712    2.705125
     99          1           0        2.751525   -1.823463   -1.399465
    100          1           0        2.347825    0.004782   -1.914787
    101          1           0        4.465493   -0.778849    0.349580
    102          1           0        4.086772    1.092254   -2.807625
    103          1           0        5.091747    2.272845   -1.963705
    104          1           0        5.845594    0.968214   -3.090294
    105          1           0        6.813276    1.230574    0.145578
    106          1           0        6.466479   -0.303525    0.561953
    107          1           0        7.487974   -1.171758   -1.464359
    108          1           0        7.615409    0.562111   -1.894681
    109          1           0        8.947277    1.070417   -0.053073
    110          1           0        8.863986   -0.668148    0.789894
    111          1           0       10.354154    0.022792   -1.977110
    112          1           0        9.386971   -2.241728   -2.024853
    113          1           0       11.072637   -2.419995   -1.783687
    114          1           0        9.993024   -2.425930   -0.457005
    115          1           0       11.585197    0.720084    0.373769
    116          1           0       11.280283   -0.915890    0.778558
    117          1           0       12.659674   -1.669955   -0.801771
    118          1           0       12.742459   -0.383363   -1.978778
    119          1           0       13.697024    0.979057    0.284647
    120          1           0       13.916634   -0.452294    1.110962
    121          1           0       15.369209    0.800534   -1.144640
    122          1           0       15.944281   -2.359033   -0.172904
    123          1           0       15.108460   -1.997830   -1.852986
    124          1           0       16.876839   -1.720216   -1.466349
    125          1           0       16.115050    1.034378    1.090777
    126          1           0       16.869390   -0.547694    1.280126
    127          1           0       18.430796   -0.335077   -0.531678
    128          1           0       17.523032    1.048832   -1.057934
    129          1           0       18.596350    2.385525    1.161478
    130          1           0       18.991156    0.676204    1.735183
    131          1           0       20.632248    0.338028    0.265934
    132          1           0       19.542827    3.075404   -0.988310
    133          1           0       21.381088    2.442287   -1.426151
    134          1           0       19.904102    1.300396   -1.872533
    135          1           0       21.136650    1.327562    2.113929
    136          1           0       22.085311    2.592252    1.001368
    137          1           0       20.474777    3.095159    1.845230
 ---------------------------------------------------------------------

 SCF Done:  E(RCAM-B3LYP) =  -2932.57503610     A.U. after   18 cycles

 Excitation energies and oscillator strengths:

 Excited State   1:      Singlet-A      2.0065 eV  617.90 nm  f=0.2715  <S**2>=0.000
     240 -> 243       -0.24525
     241 -> 242        0.65830
 This state for optimization and/or second-order correction.
 Total Energy, E(TD-HF/TD-KS) =  -2932.50129682
 Copying the excited state density for this state as the 1-particle RhoCI density.

 The electronic state is 1-A.
 Alpha  occ. eigenvalues --  -46.84051 -19.26153 -19.25017 -19.21732 -19.21643
 Alpha  occ. eigenvalues --  -19.20759 -14.42603 -14.39714 -14.39462 -14.39140
 Alpha  occ. eigenvalues --  -10.39916 -10.39851 -10.36128 -10.33743 -10.31816
 Alpha  occ. eigenvalues --  -10.31029 -10.30629 -10.30100 -10.30020 -10.30001
 Alpha  occ. eigenvalues --  -10.29934 -10.29259 -10.29188 -10.29124 -10.28594
 Alpha  occ. eigenvalues --  -10.28501 -10.28482 -10.28396 -10.27697 -10.27547
 Alpha  occ. eigenvalues --  -10.27474 -10.27452 -10.27397 -10.27395 -10.27360
 Alpha  occ. eigenvalues --  -10.27134 -10.27100 -10.27046 -10.27023 -10.26837
 Alpha  occ. eigenvalues --  -10.26821 -10.26760 -10.26684 -10.26673 -10.26599
 Alpha  occ. eigenvalues --  -10.26411 -10.26346 -10.26282 -10.26258 -10.26084
 Alpha  occ. eigenvalues --  -10.26005 -10.25909 -10.25868 -10.25748 -10.25740
 Alpha  occ. eigenvalues --  -10.25397 -10.25228 -10.25173 -10.25171 -10.25059
 Alpha  occ. eigenvalues --  -10.24977 -10.24702 -10.24691 -10.23868 -10.23076
 Alpha  occ. eigenvalues --   -3.13155  -1.87853  -1.87384  -1.87344  -1.18828
 Alpha  occ. eigenvalues --   -1.17878  -1.10153  -1.08763  -1.08377  -1.04406
 Alpha  occ. eigenvalues --   -1.03396  -1.02773  -1.01607  -0.92850  -0.92560
 Alpha  occ. eigenvalues --   -0.91797  -0.91580  -0.90555  -0.90015  -0.89068
 Alpha  occ. eigenvalues --   -0.88851  -0.88598  -0.88188  -0.87650  -0.87096
 Alpha  occ. eigenvalues --   -0.85758  -0.84865  -0.84232  -0.83849  -0.83135
 Alpha  occ. eigenvalues --   -0.82200  -0.81534  -0.81185  -0.80556  -0.78848
 Alpha  occ. eigenvalues --   -0.78449  -0.77164  -0.76341  -0.76127  -0.75932
 Alpha  occ. eigenvalues --   -0.75042  -0.74617  -0.74543  -0.73909  -0.73151
 Alpha  occ. eigenvalues --   -0.72221  -0.71296  -0.71061  -0.69481  -0.68588
 Alpha  occ. eigenvalues --   -0.66427  -0.66172  -0.65792  -0.65215  -0.64899
 Alpha  occ. eigenvalues --   -0.63957  -0.63437  -0.62980  -0.62542  -0.61956
 Alpha  occ. eigenvalues --   -0.61613  -0.60698  -0.60491  -0.60372  -0.60052
 Alpha  occ. eigenvalues --   -0.59754  -0.58954  -0.57985  -0.57757  -0.57201
 Alpha  occ. eigenvalues --   -0.56852  -0.56181  -0.56077  -0.55975  -0.55540
 Alpha  occ. eigenvalues --   -0.55263  -0.54994  -0.54452  -0.53847  -0.53438
 Alpha  occ. eigenvalues --   -0.53142  -0.53095  -0.52834  -0.52535  -0.52092
 Alpha  occ. eigenvalues --   -0.51721  -0.51413  -0.51202  -0.51028  -0.50863
 Alpha  occ. eigenvalues --   -0.50556  -0.50430  -0.50243  -0.50099  -0.49737
 Alpha  occ. eigenvalues --   -0.49204  -0.49183  -0.48923  -0.48819  -0.48475
 Alpha  occ. eigenvalues --   -0.48335  -0.48160  -0.48016  -0.47850  -0.47474
 Alpha  occ. eigenvalues --   -0.47273  -0.47164  -0.46900  -0.46827  -0.46596
 Alpha  occ. eigenvalues --   -0.46358  -0.45707  -0.45626  -0.45544  -0.45173
 Alpha  occ. eigenvalues --   -0.44847  -0.44647  -0.44239  -0.44022  -0.43953
 Alpha  occ. eigenvalues --   -0.43797  -0.43617  -0.43497  -0.43403  -0.43361
 Alpha  occ. eigenvalues --   -0.43094  -0.42713  -0.42699  -0.42590  -0.42403
 Alpha  occ. eigenvalues --   -0.42191  -0.41680  -0.41631  -0.41481  -0.41353
 Alpha  occ. eigenvalues --   -0.40679  -0.40653  -0.40583  -0.40502  -0.40336
 Alpha  occ. eigenvalues --   -0.40192  -0.39918  -0.39815  -0.39610  -0.39251
 Alpha  occ. eigenvalues --   -0.38694  -0.38575  -0.38356  -0.38048  -0.37548
 Alpha  occ. eigenvalues --   -0.37161  -0.37119  -0.36829  -0.36674  -0.36533
 Alpha  occ. eigenvalues --   -0.36380  -0.36041  -0.35788  -0.35587  -0.35564
 Alpha  occ. eigenvalues --   -0.34805  -0.34592  -0.34454  -0.34096  -0.34031
 Alpha  occ. eigenvalues --   -0.33374  -0.32964  -0.32689  -0.31870  -0.31001
 Alpha  occ. eigenvalues --   -0.30540  -0.30295  -0.28057  -0.27593  -0.23715
 Alpha  occ. eigenvalues --   -0.21192
 Alpha virt. eigenvalues --   -0.06838  -0.03333   0.00685   0.03828   0.04514
 Alpha virt. eigenvalues --    0.05197   0.05543   0.06713   0.07220   0.07451
 Alpha virt. eigenvalues --    0.08289   0.10513   0.10934   0.11383   0.11540

 Mulliken charges:
               1
     1  Mg   0.818664
     2  C    0.034716
     3  C   -0.180000
     4  C   -0.178987
     5  C   -0.180999
     6  N   -0.643377
     7  C    0.312325
     8  C   -0.132858
     9  C   -0.191491
    10  C    0.337996
    11  C   -0.313222
    12  C   -0.152198
    13  C   -0.278583
    14  C    0.617003
    15  O   -0.459863
    16  O   -0.490397
    17  N   -0.722578
    18  C    0.312525
    19  C    0.009216
    20  C   -0.010285
    21  C    0.299950
    22  C   -0.372311
    23  C   -0.054468
    24  C   -0.240821
    25  N   -0.698003
    26  C    0.321485
    27  C   -0.007445
    28  C    0.032525
    29  C    0.300342
    30  C   -0.363791
    31  C   -0.230664
    32  C   -0.305503
    33  N   -0.741962
    34  C    0.241878
    35  C    0.072689
    36  C    0.013599
    37  C    0.320553
    38  C   -0.391690
    39  C    0.352381
    40  O   -0.483041
    41  C   -0.305366
    42  C    0.638498
    43  O   -0.483004
    44  O   -0.449007
    45  C   -0.070505
    46  C    0.041547
    47  C   -0.139890
    48  C    0.158603
    49  C   -0.368728
    50  C   -0.247362
    51  C   -0.157438
    52  C   -0.170010
    53  C   -0.077155
    54  C   -0.316997
    55  C   -0.171538
    56  C   -0.158301
    57  C   -0.190236
    58  C   -0.038315
    59  C   -0.303336
    60  C   -0.189629
    61  C   -0.155765
    62  C   -0.126816
    63  C   -0.050673
    64  C   -0.274468
    65  C   -0.276966
    66  H    0.081791
    67  H    0.100106
    68  H    0.093963
    69  H    0.134449
    70  H    0.085964
    71  H    0.110127
    72  H    0.114455
    73  H    0.137306
    74  H    0.128469
    75  H    0.102193
    76  H    0.142626
    77  H    0.114295
    78  H    0.132335
    79  H    0.114281
    80  H    0.117796
    81  H    0.085714
    82  H    0.090239
    83  H    0.095715
    84  H    0.130331
    85  H    0.112438
    86  H    0.097724
    87  H    0.108550
    88  H    0.101952
    89  H    0.112112
    90  H    0.127543
    91  H    0.078939
    92  H    0.130365
    93  H    0.140501
    94  H    0.142755
    95  H    0.177551
    96  H    0.109169
    97  H    0.128763
    98  H    0.108845
    99  H    0.100154
   100  H    0.132613
   101  H    0.087852
   102  H    0.111610
   103  H    0.091832
   104  H    0.123901
   105  H    0.082420
   106  H    0.087709
   107  H    0.102949
   108  H    0.096621
   109  H    0.089799
   110  H    0.065375
   111  H    0.082542
   112  H    0.113023
   113  H    0.103293
   114  H    0.102717
   115  H    0.067978
   116  H    0.095583
   117  H    0.118732
   118  H    0.055212
   119  H    0.112161
   120  H    0.095271
   121  H    0.094904
   122  H    0.093682
   123  H    0.070603
   124  H    0.111978
   125  H    0.078097
   126  H    0.083794
   127  H    0.069110
   128  H    0.079798
   129  H    0.060322
   130  H    0.069257
   131  H    0.075541
   132  H    0.067233
   133  H    0.100551
   134  H    0.094245
   135  H    0.118933
   136  H    0.055359
   137  H    0.077428
 Sum of Mulliken charges =   0.00000

 Dipole moment (field-independent basis, Debye):
    X=              0.6656    Y=              3.2987    Z=             -0.0197  Tot=              3.3652
 Quadrupole moment (field-independent basis, Debye-Ang):
   XX=           -351.1096   YY=           -404.1843   ZZ=           -401.1782
   XY=            -21.7862   XZ=             18.8821   YZ=              3.0216

 Normal termination of Gaussian 09 at Sun Jul  7 04:12:30 2019.
