 Gaussian 16, Revision A.03,
 Gaussian 16:  ES64L-G16RevA.03 25-Dec-2016

 ----------------------------------------------------------------------
 # td=(NStates=1) iop(3/107=0140000000,3/108=0140000000) CAM-B3LYP/6-31
 G(d,p)
 ----------------------------------------------------------------------

 --
 TD
 --
 Symbolic Z-matrix:
 Charge =  0 Multiplicity = 1

                         Standard orientation:
 ---------------------------------------------------------------------
 Center     Atomic      Atomic             Coordinates (Angstroms)
 Number     Number       Type             X           Y           Z
 ---------------------------------------------------------------------
      1         12           0       -7.118277    0.602984    0.130336
      2          6           0       -4.891878   -1.902351    0.462937
      3          6           0       -4.774917    2.866191    1.191376
      4          6           0       -9.384596    3.107219   -0.445312
      5          6           0       -9.540137   -1.836756   -0.834582
      6          7           0       -5.132109    0.487137    0.623576
      7          6           0       -4.270461   -0.730692    0.691531
      8          6           0       -2.933600   -0.423790    1.201295
      9          6           0       -2.954909    1.088393    1.452681
     10          6           0       -4.353302    1.509198    1.098108
     11          6           0       -2.804245    1.480736    2.980598
     12          6           0       -1.835832   -0.808029    0.095017
     13          6           0       -0.505079   -0.497716    0.572641
     14          6           0        0.493266   -0.706546   -0.593958
     15          8           0        0.284567   -1.096429   -1.732601
     16          8           0        1.738810   -0.290612   -0.186460
     17          7           0       -7.183527    2.616262    0.457987
     18          6           0       -6.004508    3.327915    0.759316
     19          6           0       -6.354790    4.795061    0.616582
     20          6           0       -7.726973    4.818345    0.245623
     21          6           0       -8.083980    3.482328    0.102246
     22          6           0       -5.499031    5.860537    1.062801
     23          6           0       -8.583148    6.039766    0.022039
     24          6           0       -8.385375    7.177500    0.607447
     25          7           0       -9.158512    0.679841   -0.494978
     26          6           0       -9.882919    1.774358   -0.503018
     27          6           0      -11.301466    1.476380   -0.999253
     28          6           0      -11.313705    0.174069   -1.129753
     29          6           0      -10.014082   -0.355095   -0.883591
     30          6           0      -12.349832    2.542751   -1.296108
     31          6           0      -12.415964   -0.763216   -1.692458
     32          6           0      -12.276933   -1.126232   -3.167032
     33          7           0       -7.212198   -1.433334   -0.161812
     34          6           0       -8.281274   -2.317253   -0.608110
     35          6           0       -7.747039   -3.640518   -0.602164
     36          6           0       -6.498632   -3.630006   -0.204153
     37          6           0       -6.181097   -2.195705    0.058960
     38          6           0       -8.593902   -4.842625   -1.058046
     39          6           0       -5.248772   -4.295465    0.089120
     40          8           0       -5.085861   -5.489046    0.120560
     41          6           0       -4.157273   -3.357579    0.500888
     42          6           0       -3.658634   -3.669507    1.867357
     43          8           0       -3.815664   -3.006896    2.912826
     44          8           0       -2.922589   -4.694988    1.914418
     45          6           0       -2.271474   -5.077421    3.219183
     46          6           0        2.842320   -0.700356   -1.113811
     47          6           0        4.080648   -0.378252   -0.330328
     48          6           0        5.084650    0.346298   -0.702577
     49          6           0        5.040815    1.232287   -1.875944
     50          6           0        6.473488    0.328086    0.033786
     51          6           0        7.647699   -0.240323   -0.819345
     52          6           0        8.920832   -0.225811    0.058565
     53          6           0       10.120531   -0.641192   -0.742002
     54          6           0       10.076633   -2.111132   -1.302495
     55          6           0       11.465572   -0.325479   -0.018479
     56          6           0       12.817082   -0.573522   -0.704462
     57          6           0       14.012014   -0.280556    0.168079
     58          6           0       15.405391   -0.184594   -0.551689
     59          6           0       15.814903   -1.596170   -1.015810
     60          6           0       16.365308    0.370593    0.361405
     61          6           0       17.708749    0.722229   -0.251388
     62          6           0       18.752663    1.437181    0.727411
     63          6           0       20.201007    1.413631    0.194635
     64          6           0       20.254578    2.182721   -1.161920
     65          6           0       21.236088    1.945579    1.163608
     66          1           0       -3.971635    3.573228    1.495840
     67          1           0      -10.010299    4.009736   -0.623705
     68          1           0      -10.378089   -2.447695   -1.105731
     69          1           0       -2.687814   -1.001401    2.181983
     70          1           0       -2.238396    1.550576    0.851603
     71          1           0       -1.929494    1.012849    3.358232
     72          1           0       -2.732355    2.649022    3.100588
     73          1           0       -3.615529    0.947260    3.507590
     74          1           0       -1.836952   -1.853801   -0.185012
     75          1           0       -2.211797   -0.250959   -0.883885
     76          1           0       -0.471543    0.609338    0.646228
     77          1           0       -0.032925   -1.051094    1.403104
     78          1           0       -5.564940    6.831848    0.400717
     79          1           0       -5.563243    6.086559    2.109895
     80          1           0       -4.446173    5.379629    0.980026
     81          1           0       -9.257562    6.016517   -0.746922
     82          1           0       -8.931449    8.007962    0.361160
     83          1           0       -7.430277    7.542126    1.283368
     84          1           0      -12.041265    3.076499   -2.129493
     85          1           0      -13.291223    2.121107   -1.635533
     86          1           0      -12.481776    3.247314   -0.476133
     87          1           0      -12.302203   -1.753533   -1.117986
     88          1           0      -13.313273   -0.170323   -1.588092
     89          1           0      -13.000173   -2.075734   -3.443465
     90          1           0      -12.620026   -0.451016   -4.034023
     91          1           0      -11.175275   -1.507700   -3.250543
     92          1           0       -9.085657   -4.702031   -2.023844
     93          1           0       -7.898453   -5.781559   -1.124976
     94          1           0       -9.296402   -5.063141   -0.342950
     95          1           0       -3.530355   -3.379549   -0.125764
     96          1           0       -1.730782   -4.237877    3.632996
     97          1           0       -3.266813   -5.357953    3.916321
     98          1           0       -1.434001   -5.876680    3.001716
     99          1           0        2.629292   -1.695185   -1.458983
    100          1           0        2.903296   -0.081114   -1.931885
    101          1           0        4.130134   -1.277372    0.480316
    102          1           0        4.054258    1.266567   -2.355567
    103          1           0        5.181459    2.147285   -1.489641
    104          1           0        5.828953    0.838526   -2.638978
    105          1           0        6.668631    1.390522    0.233770
    106          1           0        6.382399   -0.306140    0.925541
    107          1           0        7.328674   -1.353496   -0.999230
    108          1           0        7.819317    0.448936   -1.689459
    109          1           0        9.183649    0.747880    0.445124
    110          1           0        8.710274   -0.751409    0.916817
    111          1           0       10.252622   -0.068629   -1.636935
    112          1           0        9.290513   -2.369513   -2.107368
    113          1           0       10.971456   -2.254802   -1.855398
    114          1           0        9.827606   -2.789973   -0.616257
    115          1           0       11.478592    0.672574    0.440296
    116          1           0       11.433182   -1.089256    0.755560
    117          1           0       12.781682   -1.673559   -1.094859
    118          1           0       12.987556   -0.013268   -1.646146
    119          1           0       13.924304    0.602029    0.621894
    120          1           0       14.115458   -1.170316    0.898334
    121          1           0       15.406686    0.436809   -1.410644
    122          1           0       15.724087   -2.236152   -0.203339
    123          1           0       15.029741   -2.035616   -1.599629
    124          1           0       16.858781   -1.629091   -1.498433
    125          1           0       15.712460    1.285840    0.880497
    126          1           0       16.705037   -0.399641    1.049845
    127          1           0       18.126941   -0.202932   -0.626093
    128          1           0       17.654389    1.467301   -1.093776
    129          1           0       18.479380    2.451299    0.980381
    130          1           0       18.559963    0.860258    1.656984
    131          1           0       20.631111    0.340221    0.089940
    132          1           0       20.007262    3.314887   -1.140491
    133          1           0       21.287031    2.024478   -1.721676
    134          1           0       19.655264    1.776279   -1.864748
    135          1           0       20.950896    1.524852    2.025607
    136          1           0       22.261031    1.659792    0.824784
    137          1           0       21.067555    2.987469    1.308461
 ---------------------------------------------------------------------

 SCF Done:  E(RCAM-B3LYP) =  -2933.55139407     A.U. after   16 cycles

 Excitation energies and oscillator strengths:

 Excited State   1:      Singlet-A      1.9366 eV  640.21 nm  f=0.2684  <S**2>=0.000
     240 -> 243        0.19306
     241 -> 242        0.67593
 This state for optimization and/or second-order correction.
 Total Energy, E(TD-HF/TD-DFT) =  -2933.48022452
 Copying the excited state density for this state as the 1-particle RhoCI density.

 The electronic state is 1-A.
 Alpha  occ. eigenvalues --  -46.79911 -19.22514 -19.21029 -19.16905 -19.15235
 Alpha  occ. eigenvalues --  -19.14658 -14.37566 -14.35211 -14.34883 -14.34588
 Alpha  occ. eigenvalues --  -10.34249 -10.33838 -10.30090 -10.29637 -10.26381
 Alpha  occ. eigenvalues --  -10.26163 -10.25958 -10.25305 -10.24738 -10.24660
 Alpha  occ. eigenvalues --  -10.24142 -10.24089 -10.23893 -10.23756 -10.23724
 Alpha  occ. eigenvalues --  -10.23611 -10.23328 -10.23263 -10.23018 -10.22901
 Alpha  occ. eigenvalues --  -10.22756 -10.22695 -10.22422 -10.22388 -10.22376
 Alpha  occ. eigenvalues --  -10.22347 -10.22267 -10.22265 -10.22187 -10.21975
 Alpha  occ. eigenvalues --  -10.21899 -10.21820 -10.21702 -10.21600 -10.21592
 Alpha  occ. eigenvalues --  -10.21466 -10.21415 -10.21371 -10.21309 -10.21237
 Alpha  occ. eigenvalues --  -10.21179 -10.20984 -10.20893 -10.20882 -10.20867
 Alpha  occ. eigenvalues --  -10.20820 -10.20556 -10.20489 -10.20447 -10.20368
 Alpha  occ. eigenvalues --  -10.20364 -10.20329 -10.19624 -10.19540 -10.18500
 Alpha  occ. eigenvalues --   -3.08433  -1.83384  -1.82892  -1.82846  -1.14890
 Alpha  occ. eigenvalues --   -1.11300  -1.06563  -1.03082  -1.01361  -0.98847
 Alpha  occ. eigenvalues --   -0.98429  -0.97610  -0.96400  -0.87404  -0.86785
 Alpha  occ. eigenvalues --   -0.86423  -0.85727  -0.84861  -0.83646  -0.83580
 Alpha  occ. eigenvalues --   -0.83328  -0.83103  -0.82365  -0.81505  -0.80939
 Alpha  occ. eigenvalues --   -0.80627  -0.79799  -0.78673  -0.78461  -0.77514
 Alpha  occ. eigenvalues --   -0.76830  -0.76155  -0.75770  -0.75521  -0.73631
 Alpha  occ. eigenvalues --   -0.73270  -0.72676  -0.72218  -0.72177  -0.71611
 Alpha  occ. eigenvalues --   -0.71131  -0.70426  -0.70138  -0.69145  -0.67723
 Alpha  occ. eigenvalues --   -0.67085  -0.65866  -0.64957  -0.63785  -0.63584
 Alpha  occ. eigenvalues --   -0.62210  -0.61884  -0.60740  -0.60636  -0.60402
 Alpha  occ. eigenvalues --   -0.59879  -0.59600  -0.58573  -0.58259  -0.58056
 Alpha  occ. eigenvalues --   -0.57968  -0.56566  -0.56020  -0.55688  -0.55440
 Alpha  occ. eigenvalues --   -0.54526  -0.54222  -0.53771  -0.53552  -0.53160
 Alpha  occ. eigenvalues --   -0.52188  -0.51988  -0.51671  -0.51284  -0.50833
 Alpha  occ. eigenvalues --   -0.50558  -0.50431  -0.49840  -0.49568  -0.49424
 Alpha  occ. eigenvalues --   -0.49281  -0.48898  -0.48777  -0.48434  -0.48320
 Alpha  occ. eigenvalues --   -0.47857  -0.47775  -0.47484  -0.47232  -0.47137
 Alpha  occ. eigenvalues --   -0.46720  -0.46561  -0.46355  -0.46064  -0.45777
 Alpha  occ. eigenvalues --   -0.45522  -0.45455  -0.45349  -0.45233  -0.44888
 Alpha  occ. eigenvalues --   -0.44644  -0.44558  -0.44165  -0.43941  -0.43673
 Alpha  occ. eigenvalues --   -0.43459  -0.43152  -0.42906  -0.42819  -0.42602
 Alpha  occ. eigenvalues --   -0.42528  -0.42244  -0.42162  -0.41588  -0.41421
 Alpha  occ. eigenvalues --   -0.41115  -0.40983  -0.40901  -0.40777  -0.40670
 Alpha  occ. eigenvalues --   -0.40464  -0.40320  -0.40182  -0.40008  -0.39951
 Alpha  occ. eigenvalues --   -0.39750  -0.39573  -0.39319  -0.39250  -0.39138
 Alpha  occ. eigenvalues --   -0.38885  -0.38645  -0.38322  -0.38188  -0.38074
 Alpha  occ. eigenvalues --   -0.37893  -0.37406  -0.37383  -0.37187  -0.36973
 Alpha  occ. eigenvalues --   -0.36933  -0.36513  -0.36292  -0.36195  -0.36068
 Alpha  occ. eigenvalues --   -0.35858  -0.35574  -0.35476  -0.34912  -0.34593
 Alpha  occ. eigenvalues --   -0.34362  -0.34001  -0.33874  -0.33662  -0.33615
 Alpha  occ. eigenvalues --   -0.33516  -0.33239  -0.32890  -0.32680  -0.32173
 Alpha  occ. eigenvalues --   -0.32121  -0.31816  -0.31742  -0.31002  -0.30563
 Alpha  occ. eigenvalues --   -0.30088  -0.29349  -0.28877  -0.28666  -0.27949
 Alpha  occ. eigenvalues --   -0.27636  -0.26406  -0.25990  -0.24665  -0.21992
 Alpha  occ. eigenvalues --   -0.18627
 Alpha virt. eigenvalues --   -0.06322  -0.03581   0.00280   0.03018   0.04299
 Alpha virt. eigenvalues --    0.04462   0.04718   0.05264   0.05610   0.05801
 Alpha virt. eigenvalues --    0.06631   0.09423   0.09862   0.10013   0.10367

 Mulliken charges:
               1
     1  Mg   0.804887
     2  C    0.047209
     3  C   -0.197602
     4  C   -0.162576
     5  C   -0.191481
     6  N   -0.648240
     7  C    0.269789
     8  C   -0.161146
     9  C   -0.145332
    10  C    0.354731
    11  C   -0.312101
    12  C   -0.186282
    13  C   -0.249898
    14  C    0.585397
    15  O   -0.474925
    16  O   -0.488983
    17  N   -0.710707
    18  C    0.301594
    19  C    0.011902
    20  C    0.015674
    21  C    0.322132
    22  C   -0.385193
    23  C   -0.058566
    24  C   -0.234387
    25  N   -0.630091
    26  C    0.276164
    27  C    0.018173
    28  C    0.029391
    29  C    0.226062
    30  C   -0.382003
    31  C   -0.222866
    32  C   -0.289133
    33  N   -0.733538
    34  C    0.291365
    35  C   -0.049494
    36  C    0.134370
    37  C    0.306807
    38  C   -0.376205
    39  C    0.305557
    40  O   -0.454246
    41  C   -0.231583
    42  C    0.606012
    43  O   -0.520149
    44  O   -0.404025
    45  C   -0.083564
    46  C    0.006057
    47  C   -0.119349
    48  C    0.115780
    49  C   -0.362175
    50  C   -0.220258
    51  C   -0.173673
    52  C   -0.164122
    53  C   -0.061538
    54  C   -0.328572
    55  C   -0.180172
    56  C   -0.187976
    57  C   -0.154921
    58  C   -0.055000
    59  C   -0.324337
    60  C   -0.142635
    61  C   -0.194536
    62  C   -0.177152
    63  C   -0.054456
    64  C   -0.308367
    65  C   -0.296522
    66  H    0.077837
    67  H    0.075960
    68  H    0.078992
    69  H    0.132026
    70  H    0.112680
    71  H    0.111128
    72  H    0.103281
    73  H    0.135248
    74  H    0.120524
    75  H    0.115764
    76  H    0.141470
    77  H    0.142673
    78  H    0.109273
    79  H    0.137319
    80  H    0.089635
    81  H    0.098297
    82  H    0.097143
    83  H    0.084583
    84  H    0.134899
    85  H    0.109766
    86  H    0.126063
    87  H    0.103398
    88  H    0.100880
    89  H    0.072630
    90  H    0.106645
    91  H    0.099871
    92  H    0.124334
    93  H    0.127309
    94  H    0.139098
    95  H    0.135117
    96  H    0.145759
    97  H    0.138203
    98  H    0.127438
    99  H    0.134291
   100  H    0.111019
   101  H    0.057278
   102  H    0.113278
   103  H    0.132052
   104  H    0.116951
   105  H    0.097858
   106  H    0.100858
   107  H    0.096034
   108  H    0.097269
   109  H    0.090437
   110  H    0.098283
   111  H    0.087947
   112  H    0.085504
   113  H    0.108800
   114  H    0.112882
   115  H    0.085576
   116  H    0.092704
   117  H    0.079837
   118  H    0.084755
   119  H    0.090841
   120  H    0.081315
   121  H    0.086203
   122  H    0.105543
   123  H    0.101511
   124  H    0.093302
   125  H    0.053113
   126  H    0.089343
   127  H    0.099117
   128  H    0.086688
   129  H    0.095040
   130  H    0.080853
   131  H    0.071865
   132  H    0.090536
   133  H    0.074556
   134  H    0.118849
   135  H    0.108274
   136  H    0.098594
   137  H    0.096630
 Sum of Mulliken charges =  -0.00000

 Dipole moment (field-independent basis, Debye):
    X=              3.8364    Y=              2.8986    Z=              0.3435  Tot=              4.8206
 Quadrupole moment (field-independent basis, Debye-Ang):
   XX=           -373.8215   YY=           -390.4661   ZZ=           -397.5089
   XY=            -22.5327   XZ=             12.7483   YZ=             -7.9458

 Normal termination of Gaussian 16 at Thu Sep  5 11:31:57 2019.
