 Gaussian 16, Revision A.03,
 Gaussian 16:  ES64L-G16RevA.03 25-Dec-2016

 -------------------------------------
 # td=(NStates=1) CAM-B3LYP/6-31G(d,p)
 -------------------------------------

 --
 TD
 --
 Symbolic Z-matrix:
 Charge =  0 Multiplicity = 1

                         Standard orientation:
 ---------------------------------------------------------------------
 Center     Atomic      Atomic             Coordinates (Angstroms)
 Number     Number       Type             X           Y           Z
 ---------------------------------------------------------------------
      1         12           0       -7.106222    0.590200    0.065981
      2          6           0       -4.901276   -1.987622    0.643302
      3          6           0       -4.764647    2.762282    1.157146
      4          6           0       -9.429165    3.072266   -0.264171
      5          6           0       -9.477688   -1.679449   -0.834840
      6          7           0       -5.093248    0.386023    0.710316
      7          6           0       -4.248406   -0.755153    0.836687
      8          6           0       -2.870378   -0.445935    1.237832
      9          6           0       -3.000019    1.105254    1.626724
     10          6           0       -4.311283    1.464275    1.182830
     11          6           0       -2.762627    1.323446    3.167780
     12          6           0       -1.916445   -0.621170    0.120739
     13          6           0       -0.442923   -0.342691    0.580206
     14          6           0        0.450957   -0.616177   -0.595457
     15          8           0        0.181880   -0.994371   -1.719578
     16          8           0        1.740666   -0.394608   -0.290126
     17          7           0       -7.092419    2.661141    0.448386
     18          6           0       -6.040171    3.341655    0.864265
     19          6           0       -6.420497    4.746158    0.818038
     20          6           0       -7.676189    4.775251    0.400915
     21          6           0       -8.080088    3.399026    0.123619
     22          6           0       -5.456827    5.798120    1.248730
     23          6           0       -8.475207    6.003003    0.019689
     24          6           0       -8.394310    7.091857    0.767339
     25          7           0       -9.108563    0.675272   -0.598100
     26          6           0       -9.835337    1.842169   -0.626121
     27          6           0      -11.207845    1.507781   -1.160012
     28          6           0      -11.213432    0.160358   -1.238200
     29          6           0       -9.960199   -0.362941   -0.914863
     30          6           0      -12.293594    2.439005   -1.378462
     31          6           0      -12.369705   -0.678207   -1.794056
     32          6           0      -12.296523   -0.943059   -3.348118
     33          7           0       -7.247404   -1.368279   -0.161534
     34          6           0       -8.229752   -2.203621   -0.510365
     35          6           0       -7.843950   -3.668056   -0.456515
     36          6           0       -6.500304   -3.584011   -0.083615
     37          6           0       -6.196133   -2.202778    0.084924
     38          6           0       -8.693302   -4.777852   -0.636518
     39          6           0       -5.264736   -4.342386    0.259704
     40          8           0       -5.113837   -5.611182    0.235712
     41          6           0       -4.142565   -3.335234    0.556805
     42          6           0       -3.638708   -3.712980    1.852251
     43          8           0       -3.938985   -3.143993    2.997267
     44          8           0       -2.634944   -4.640419    1.748178
     45          6           0       -2.130114   -5.154606    2.987551
     46          6           0        2.798214   -0.708807   -1.206483
     47          6           0        4.117240   -0.482293   -0.590629
     48          6           0        5.149679    0.343105   -1.063989
     49          6           0        5.115350    1.165054   -2.341593
     50          6           0        6.421728    0.494896   -0.324202
     51          6           0        7.606602   -0.131334   -1.172115
     52          6           0        8.906890   -0.097415   -0.266949
     53          6           0       10.190161   -0.541767   -0.979624
     54          6           0       10.102132   -1.983063   -1.511719
     55          6           0       11.467986   -0.332426   -0.072567
     56          6           0       12.716373   -0.625608   -0.849117
     57          6           0       13.894811   -0.210047    0.192239
     58          6           0       15.335834   -0.327539   -0.385939
     59          6           0       15.759973   -1.728800   -0.667709
     60          6           0       16.328596    0.486476    0.523958
     61          6           0       17.714333    0.603732   -0.103894
     62          6           0       18.694060    1.420780    0.908768
     63          6           0       20.189549    1.353837    0.271277
     64          6           0       20.293356    2.207417   -1.055564
     65          6           0       21.071398    2.032869    1.308945
     66          1           0       -4.262123    3.496813    1.604132
     67          1           0      -10.033992    3.804869   -0.459731
     68          1           0      -10.116480   -2.528842   -1.105904
     69          1           0       -2.298582   -1.067524    2.066443
     70          1           0       -2.241314    1.678226    0.919800
     71          1           0       -1.758946    0.896840    3.411228
     72          1           0       -3.094170    2.301021    3.586552
     73          1           0       -3.493859    0.657027    3.616825
     74          1           0       -2.128349   -1.674909   -0.142228
     75          1           0       -2.306608   -0.202878   -0.897119
     76          1           0       -0.269657    0.856940    0.742246
     77          1           0       -0.177799   -0.929914    1.568808
     78          1           0       -5.793050    6.739824    0.695568
     79          1           0       -5.493690    6.233286    2.364288
     80          1           0       -4.450788    5.528140    0.867581
     81          1           0       -8.902601    5.832880   -0.991562
     82          1           0       -8.873002    7.916005    0.347756
     83          1           0       -7.807711    7.036760    1.745714
     84          1           0      -12.171193    3.087396   -2.235474
     85          1           0      -13.375821    2.176881   -1.415673
     86          1           0      -12.593496    3.019270   -0.527951
     87          1           0      -12.163067   -1.710695   -1.337559
     88          1           0      -13.280612   -0.063173   -1.616017
     89          1           0      -13.143201   -1.627652   -3.709833
     90          1           0      -12.595652   -0.118123   -3.894279
     91          1           0      -11.299308   -1.333088   -3.761642
     92          1           0       -8.976829   -4.942239   -1.817155
     93          1           0       -8.142414   -5.791239   -0.508591
     94          1           0       -9.644615   -4.859408   -0.204572
     95          1           0       -3.254025   -3.326631   -0.170463
     96          1           0       -1.676867   -4.224180    3.561532
     97          1           0       -2.909877   -5.611522    3.575153
     98          1           0       -1.267685   -5.896683    2.532769
     99          1           0        2.642756   -1.820117   -1.392134
    100          1           0        2.635501   -0.225376   -2.198928
    101          1           0        4.286413   -0.988444    0.306903
    102          1           0        3.991763    0.936180   -2.544123
    103          1           0        5.470444    2.144749   -2.168515
    104          1           0        5.676676    0.685301   -3.105452
    105          1           0        6.469333    1.634332   -0.074816
    106          1           0        6.364809   -0.140316    0.493477
    107          1           0        7.241233   -1.130564   -1.379435
    108          1           0        7.647263    0.355447   -2.185574
    109          1           0        9.058366    1.006853    0.151131
    110          1           0        8.802605   -0.612522    0.726152
    111          1           0       10.438820    0.241327   -1.836600
    112          1           0        9.205560   -1.975425   -2.150965
    113          1           0       10.900834   -2.589100   -1.989096
    114          1           0        9.866034   -2.605696   -0.730497
    115          1           0       11.680661    0.604243    0.469593
    116          1           0       11.330481   -1.083092    0.740590
    117          1           0       12.959433   -1.617596   -1.147218
    118          1           0       12.800811    0.054853   -1.721005
    119          1           0       13.834889    0.825740    0.416120
    120          1           0       13.831796   -0.780343    1.163200
    121          1           0       15.203217    0.001834   -1.511859
    122          1           0       15.886142   -2.421447    0.302724
    123          1           0       15.000351   -2.300399   -1.298377
    124          1           0       16.571175   -1.884179   -1.177017
    125          1           0       15.832319    1.481106    0.680956
    126          1           0       16.386555   -0.157758    1.531000
    127          1           0       17.973761   -0.527159   -0.257244
    128          1           0       17.631511    1.016293   -1.142160
    129          1           0       18.412610    2.428859    0.985130
    130          1           0       18.547823    0.992671    1.785754
    131          1           0       20.301617    0.261766    0.061887
    132          1           0       19.897597    3.252609   -0.798833
    133          1           0       21.384120    2.210137   -1.353798
    134          1           0       19.738749    1.498523   -1.746086
    135          1           0       21.383491    1.495446    2.239401
    136          1           0       21.994193    2.011350    0.571513
    137          1           0       20.858264    2.939224    1.663539
 ---------------------------------------------------------------------

 SCF Done:  E(RCAM-B3LYP) =  -2932.70379441     A.U. after   16 cycles

 Excitation energies and oscillator strengths:

 Excited State   1:      Singlet-A      1.9074 eV  650.02 nm  f=0.2744  <S**2>=0.000
     240 -> 243       -0.22319
     241 -> 242        0.66579
 This state for optimization and/or second-order correction.
 Total Energy, E(TD-HF/TD-DFT) =  -2932.63369892
 Copying the excited state density for this state as the 1-particle RhoCI density.

 The electronic state is 1-A.
 Alpha  occ. eigenvalues --  -46.84959 -19.26698 -19.25165 -19.20790 -19.20567
 Alpha  occ. eigenvalues --  -19.20446 -14.42196 -14.39813 -14.38924 -14.38798
 Alpha  occ. eigenvalues --  -10.39698 -10.39278 -10.36375 -10.32906 -10.32169
 Alpha  occ. eigenvalues --  -10.31045 -10.31016 -10.30355 -10.29408 -10.29394
 Alpha  occ. eigenvalues --  -10.29393 -10.29188 -10.28869 -10.28619 -10.28480
 Alpha  occ. eigenvalues --  -10.28441 -10.28411 -10.28399 -10.27921 -10.27735
 Alpha  occ. eigenvalues --  -10.27454 -10.27177 -10.27138 -10.27078 -10.27069
 Alpha  occ. eigenvalues --  -10.27015 -10.26958 -10.26899 -10.26860 -10.26616
 Alpha  occ. eigenvalues --  -10.26595 -10.26474 -10.26080 -10.26071 -10.26057
 Alpha  occ. eigenvalues --  -10.26001 -10.25915 -10.25846 -10.25834 -10.25792
 Alpha  occ. eigenvalues --  -10.25732 -10.25631 -10.25485 -10.25461 -10.25252
 Alpha  occ. eigenvalues --  -10.25240 -10.25149 -10.24883 -10.24823 -10.24692
 Alpha  occ. eigenvalues --  -10.24655 -10.24214 -10.23981 -10.23957 -10.23908
 Alpha  occ. eigenvalues --   -3.13894  -1.88608  -1.88126  -1.88073  -1.18133
 Alpha  occ. eigenvalues --   -1.16656  -1.08391  -1.08271  -1.06417  -1.05054
 Alpha  occ. eigenvalues --   -1.04722  -1.02580  -1.02233  -0.93205  -0.91313
 Alpha  occ. eigenvalues --   -0.90662  -0.89812  -0.89207  -0.88995  -0.88667
 Alpha  occ. eigenvalues --   -0.88345  -0.88152  -0.87504  -0.87467  -0.86092
 Alpha  occ. eigenvalues --   -0.85319  -0.84275  -0.83877  -0.82863  -0.82549
 Alpha  occ. eigenvalues --   -0.81517  -0.81312  -0.80765  -0.80027  -0.78772
 Alpha  occ. eigenvalues --   -0.78044  -0.77168  -0.76304  -0.76200  -0.75555
 Alpha  occ. eigenvalues --   -0.75408  -0.74926  -0.74297  -0.73472  -0.72554
 Alpha  occ. eigenvalues --   -0.72188  -0.70754  -0.69444  -0.69183  -0.68547
 Alpha  occ. eigenvalues --   -0.66631  -0.66544  -0.65061  -0.64694  -0.64407
 Alpha  occ. eigenvalues --   -0.63902  -0.63290  -0.62974  -0.62779  -0.62281
 Alpha  occ. eigenvalues --   -0.61156  -0.61047  -0.60903  -0.59920  -0.59567
 Alpha  occ. eigenvalues --   -0.58699  -0.58399  -0.58261  -0.57512  -0.57005
 Alpha  occ. eigenvalues --   -0.56315  -0.55525  -0.55127  -0.54782  -0.54506
 Alpha  occ. eigenvalues --   -0.54319  -0.53988  -0.53578  -0.53537  -0.53198
 Alpha  occ. eigenvalues --   -0.52821  -0.52497  -0.52344  -0.51913  -0.51642
 Alpha  occ. eigenvalues --   -0.51586  -0.51282  -0.51100  -0.50884  -0.50488
 Alpha  occ. eigenvalues --   -0.50206  -0.50107  -0.50086  -0.49626  -0.49393
 Alpha  occ. eigenvalues --   -0.49240  -0.49127  -0.48640  -0.48245  -0.48160
 Alpha  occ. eigenvalues --   -0.48054  -0.47676  -0.47479  -0.47409  -0.47269
 Alpha  occ. eigenvalues --   -0.47068  -0.46660  -0.46467  -0.46218  -0.45982
 Alpha  occ. eigenvalues --   -0.45831  -0.45457  -0.45267  -0.45068  -0.44850
 Alpha  occ. eigenvalues --   -0.44662  -0.44474  -0.44374  -0.44247  -0.43807
 Alpha  occ. eigenvalues --   -0.43771  -0.43507  -0.43481  -0.43084  -0.43024
 Alpha  occ. eigenvalues --   -0.42848  -0.42819  -0.42388  -0.42252  -0.42165
 Alpha  occ. eigenvalues --   -0.41969  -0.41902  -0.41686  -0.41598  -0.41132
 Alpha  occ. eigenvalues --   -0.40948  -0.40771  -0.40677  -0.40540  -0.40321
 Alpha  occ. eigenvalues --   -0.40113  -0.40080  -0.40013  -0.39743  -0.39209
 Alpha  occ. eigenvalues --   -0.39091  -0.38824  -0.38150  -0.37715  -0.37686
 Alpha  occ. eigenvalues --   -0.37549  -0.37089  -0.36950  -0.36757  -0.36703
 Alpha  occ. eigenvalues --   -0.36669  -0.36313  -0.36272  -0.35337  -0.35225
 Alpha  occ. eigenvalues --   -0.35043  -0.34827  -0.34187  -0.33501  -0.33102
 Alpha  occ. eigenvalues --   -0.32830  -0.32114  -0.31148  -0.31048  -0.30588
 Alpha  occ. eigenvalues --   -0.29623  -0.28945  -0.28500  -0.28223  -0.22987
 Alpha  occ. eigenvalues --   -0.20572
 Alpha virt. eigenvalues --   -0.06672  -0.02746   0.00207   0.03886   0.04727
 Alpha virt. eigenvalues --    0.05119   0.05563   0.06000   0.06434   0.07234
 Alpha virt. eigenvalues --    0.07639   0.10353   0.10641   0.11489   0.11642

 Mulliken charges:
               1
     1  Mg   0.827745
     2  C    0.035245
     3  C   -0.167768
     4  C   -0.108620
     5  C   -0.207284
     6  N   -0.626228
     7  C    0.296018
     8  C   -0.152381
     9  C   -0.149772
    10  C    0.353799
    11  C   -0.314789
    12  C   -0.176554
    13  C   -0.265857
    14  C    0.616686
    15  O   -0.480671
    16  O   -0.482172
    17  N   -0.686500
    18  C    0.269687
    19  C    0.044397
    20  C   -0.056587
    21  C    0.295532
    22  C   -0.385409
    23  C   -0.057062
    24  C   -0.250741
    25  N   -0.704236
    26  C    0.296520
    27  C    0.049710
    28  C    0.011766
    29  C    0.328751
    30  C   -0.415509
    31  C   -0.213810
    32  C   -0.311146
    33  N   -0.709931
    34  C    0.264900
    35  C    0.085165
    36  C    0.037024
    37  C    0.269670
    38  C   -0.430336
    39  C    0.373197
    40  O   -0.490253
    41  C   -0.322628
    42  C    0.641637
    43  O   -0.516785
    44  O   -0.453935
    45  C   -0.068698
    46  C    0.013300
    47  C   -0.124048
    48  C    0.077171
    49  C   -0.339084
    50  C   -0.212753
    51  C   -0.193126
    52  C   -0.170299
    53  C   -0.057398
    54  C   -0.323364
    55  C   -0.169202
    56  C   -0.179207
    57  C   -0.186712
    58  C   -0.061729
    59  C   -0.297818
    60  C   -0.168406
    61  C   -0.193157
    62  C   -0.164001
    63  C   -0.082646
    64  C   -0.296482
    65  C   -0.292047
    66  H    0.064680
    67  H    0.063760
    68  H    0.076533
    69  H    0.114647
    70  H    0.102306
    71  H    0.108536
    72  H    0.116710
    73  H    0.136699
    74  H    0.109212
    75  H    0.126442
    76  H    0.136357
    77  H    0.140062
    78  H    0.113972
    79  H    0.107957
    80  H    0.117103
    81  H    0.107439
    82  H    0.101678
    83  H    0.113302
    84  H    0.126876
    85  H    0.112056
    86  H    0.127207
    87  H    0.098862
    88  H    0.103535
    89  H    0.089553
    90  H    0.116062
    91  H    0.105463
    92  H    0.104103
    93  H    0.148293
    94  H    0.145908
    95  H    0.182129
    96  H    0.116491
    97  H    0.149358
    98  H    0.112459
    99  H    0.112615
   100  H    0.124578
   101  H    0.087579
   102  H    0.093551
   103  H    0.122602
   104  H    0.131762
   105  H    0.094761
   106  H    0.104581
   107  H    0.111524
   108  H    0.097412
   109  H    0.081144
   110  H    0.093095
   111  H    0.065362
   112  H    0.102899
   113  H    0.107853
   114  H    0.111746
   115  H    0.093389
   116  H    0.081124
   117  H    0.106117
   118  H    0.091685
   119  H    0.091930
   120  H    0.084518
   121  H    0.063627
   122  H    0.064154
   123  H    0.083696
   124  H    0.116410
   125  H    0.086323
   126  H    0.075730
   127  H    0.079850
   128  H    0.095168
   129  H    0.092832
   130  H    0.102789
   131  H    0.093063
   132  H    0.105413
   133  H    0.100849
   134  H    0.104731
   135  H    0.091812
   136  H    0.070796
   137  H    0.114407
 Sum of Mulliken charges =  -0.00000

 Dipole moment (field-independent basis, Debye):
    X=              1.9684    Y=              4.0675    Z=             -0.0595  Tot=              4.5191
 Quadrupole moment (field-independent basis, Debye-Ang):
   XX=           -349.3982   YY=           -395.4793   ZZ=           -398.6848
   XY=            -24.4210   XZ=             16.6416   YZ=             -0.2166

 Normal termination of Gaussian 16 at Sat Jun 29 14:05:49 2019.
