 Gaussian 09, Revision D.01,
 Gaussian 09:  ES64L-G09RevD.01 24-Apr-2013

 -------------------------------------
 # td=(NStates=1) CAM-B3LYP/6-31G(d,p)
 -------------------------------------

 --
 TD
 --
 Symbolic Z-matrix:
 Charge =  0 Multiplicity = 1

                         Standard orientation:
 ---------------------------------------------------------------------
 Center     Atomic      Atomic             Coordinates (Angstroms)
 Number     Number       Type             X           Y           Z
 ---------------------------------------------------------------------
      1         12           0       -7.070256    0.617535    0.074209
      2          6           0       -4.803144   -1.964134    0.486854
      3          6           0       -4.899945    2.885145    1.115250
      4          6           0       -9.453148    3.034682   -0.353374
      5          6           0       -9.524848   -1.819459   -0.839494
      6          7           0       -5.045749    0.444217    0.669779
      7          6           0       -4.316689   -0.680793    0.768075
      8          6           0       -2.863793   -0.368333    1.225815
      9          6           0       -3.005649    1.136775    1.552476
     10          6           0       -4.494387    1.542057    1.149108
     11          6           0       -2.780820    1.278888    3.167905
     12          6           0       -1.892082   -0.557961    0.130091
     13          6           0       -0.391174   -0.430376    0.634095
     14          6           0        0.560480   -0.521008   -0.534905
     15          8           0        0.268250   -0.772010   -1.734856
     16          8           0        1.852756   -0.397470   -0.117388
     17          7           0       -7.112532    2.541502    0.315967
     18          6           0       -6.019989    3.383668    0.756479
     19          6           0       -6.529929    4.702826    0.844358
     20          6           0       -7.841858    4.832805    0.345986
     21          6           0       -8.143164    3.420936    0.095765
     22          6           0       -5.640601    5.906910    1.124983
     23          6           0       -8.665896    5.927148    0.176952
     24          6           0       -8.599772    7.100929    0.837636
     25          7           0       -9.044677    0.533462   -0.568039
     26          6           0       -9.822104    1.683045   -0.711422
     27          6           0      -11.190935    1.375454   -1.148765
     28          6           0      -11.259232    0.043543   -1.222508
     29          6           0       -9.913770   -0.483852   -0.914080
     30          6           0      -12.286395    2.354034   -1.477356
     31          6           0      -12.448759   -0.667950   -1.789000
     32          6           0      -12.282617   -1.110700   -3.229590
     33          7           0       -7.141303   -1.332648   -0.259179
     34          6           0       -8.181267   -2.169329   -0.624042
     35          6           0       -7.791095   -3.614128   -0.626834
     36          6           0       -6.456616   -3.572784   -0.252068
     37          6           0       -6.165741   -2.188626    0.117890
     38          6           0       -8.561241   -4.862328   -0.903737
     39          6           0       -5.249841   -4.400444    0.249884
     40          8           0       -5.112719   -5.590928    0.133937
     41          6           0       -4.107139   -3.416099    0.573604
     42          6           0       -3.471556   -3.701703    1.970507
     43          8           0       -3.717298   -3.120657    3.049128
     44          8           0       -2.722946   -4.742927    1.840683
     45          6           0       -2.142308   -5.103437    3.082380
     46          6           0        2.805512   -0.653860   -1.057578
     47          6           0        4.115417   -0.461370   -0.490674
     48          6           0        5.203805    0.402317   -0.827797
     49          6           0        4.983182    1.233255   -2.073869
     50          6           0        6.517147    0.461555   -0.208210
     51          6           0        7.578379   -0.117364   -0.913690
     52          6           0        8.958504   -0.108003   -0.063846
     53          6           0       10.263131   -0.481433   -0.871396
     54          6           0       10.133404   -1.932352   -1.369915
     55          6           0       11.445962   -0.351990   -0.047829
     56          6           0       12.697356   -0.540219   -0.680124
     57          6           0       13.857710   -0.109216    0.196060
     58          6           0       15.219246   -0.141884   -0.502632
     59          6           0       15.535852   -1.550943   -0.958194
     60          6           0       16.353406    0.277689    0.441537
     61          6           0       17.811625    0.487623   -0.181350
     62          6           0       18.697188    1.248851    0.672954
     63          6           0       20.171042    1.268164    0.183831
     64          6           0       20.326199    2.150926   -1.077805
     65          6           0       21.118653    1.919812    1.256996
     66          1           0       -4.308483    3.704759    1.427560
     67          1           0      -10.175023    3.818360   -0.444684
     68          1           0      -10.203180   -2.528112   -1.045809
     69          1           0       -2.690968   -1.055112    2.145404
     70          1           0       -2.238596    1.739398    1.190557
     71          1           0       -1.732436    1.125124    3.292263
     72          1           0       -3.045481    2.170947    3.510338
     73          1           0       -3.459869    0.670547    3.847592
     74          1           0       -2.052877   -1.397654   -0.491242
     75          1           0       -2.085255    0.169013   -0.722205
     76          1           0       -0.129775    0.675891    1.061053
     77          1           0       -0.185215   -1.253142    1.432463
     78          1           0       -6.044383    6.821808    0.450643
     79          1           0       -5.854641    6.307302    2.092812
     80          1           0       -4.368967    5.803864    1.032159
     81          1           0       -9.221941    5.844633   -0.675046
     82          1           0       -9.411898    7.903324    0.578081
     83          1           0       -7.982446    7.192490    1.788224
     84          1           0      -11.879300    3.051440   -2.433104
     85          1           0      -13.040826    1.870080   -2.108492
     86          1           0      -12.719502    2.838601   -0.587437
     87          1           0      -12.573596   -1.740737   -1.355970
     88          1           0      -13.317215   -0.100463   -1.394687
     89          1           0      -13.313721   -1.777548   -3.408639
     90          1           0      -12.235838   -0.094070   -3.684468
     91          1           0      -11.506576   -1.883340   -3.446049
     92          1           0       -8.904408   -4.990491   -1.988564
     93          1           0       -8.145162   -5.737055   -0.502872
     94          1           0       -9.354531   -4.749299   -0.365581
     95          1           0       -3.364322   -3.644059   -0.176609
     96          1           0       -1.658554   -4.318520    3.465909
     97          1           0       -2.846925   -5.345531    3.772369
     98          1           0       -1.474497   -5.935384    2.869100
     99          1           0        2.755349   -1.687621   -1.366068
    100          1           0        2.761948    0.000964   -1.983342
    101          1           0        4.253403   -0.857382    0.413148
    102          1           0        4.153682    1.318420   -2.585608
    103          1           0        5.283608    2.286341   -1.893213
    104          1           0        5.978673    1.021016   -2.715854
    105          1           0        6.824030    1.385898    0.150283
    106          1           0        6.224132   -0.156096    0.715366
    107          1           0        7.378945   -1.038706   -1.467602
    108          1           0        7.720444    0.601548   -1.718645
    109          1           0        8.958172    1.023821   -0.074271
    110          1           0        8.565288   -0.686641    0.795429
    111          1           0       10.321476    0.187734   -1.719934
    112          1           0        9.092366   -2.115170   -1.821645
    113          1           0       10.983349   -2.264340   -1.989310
    114          1           0       10.209661   -2.554934   -0.429571
    115          1           0       11.464667    0.616962    0.464489
    116          1           0       11.464654   -0.903713    0.896999
    117          1           0       12.713783   -1.553559   -0.977316
    118          1           0       12.727758    0.077164   -1.532322
    119          1           0       13.721247    0.852840    0.499659
    120          1           0       14.063549   -0.767597    1.075172
    121          1           0       15.258697    0.315286   -1.616805
    122          1           0       15.536509   -2.269514   -0.124262
    123          1           0       14.947912   -2.094348   -1.944852
    124          1           0       16.378624   -1.517472   -1.549902
    125          1           0       16.104071    1.237891    0.767847
    126          1           0       16.417036   -0.306684    1.236737
    127          1           0       18.327724   -0.452362   -0.473394
    128          1           0       17.679164    1.084535   -1.170826
    129          1           0       18.315799    2.212058    0.934599
    130          1           0       18.917970    0.849066    1.781162
    131          1           0       20.490425    0.273475   -0.141277
    132          1           0       19.873334    3.018702   -1.176592
    133          1           0       21.337084    2.369225   -1.283397
    134          1           0       19.984622    1.613548   -2.054807
    135          1           0       21.096465    1.215520    2.037410
    136          1           0       22.257178    2.113930    0.769731
    137          1           0       20.758004    2.807105    1.543179
 ---------------------------------------------------------------------

 SCF Done:  E(RCAM-B3LYP) =  -2932.63434985     A.U. after   18 cycles

 Excitation energies and oscillator strengths:

 Excited State   1:      Singlet-A      1.9724 eV  628.59 nm  f=0.2407  <S**2>=0.000
     240 -> 243       -0.25700
     241 -> 242        0.65740
 This state for optimization and/or second-order correction.
 Total Energy, E(TD-HF/TD-KS) =  -2932.56186437
 Copying the excited state density for this state as the 1-particle RhoCI density.

 The electronic state is 1-A.
 Alpha  occ. eigenvalues --  -46.83075 -19.28267 -19.26831 -19.21311 -19.21042
 Alpha  occ. eigenvalues --  -19.20799 -14.42134 -14.39592 -14.39189 -14.38769
 Alpha  occ. eigenvalues --  -10.40088 -10.39996 -10.35739 -10.31477 -10.30876
 Alpha  occ. eigenvalues --  -10.30429 -10.30323 -10.29856 -10.29597 -10.29553
 Alpha  occ. eigenvalues --  -10.29215 -10.29162 -10.28634 -10.28432 -10.28387
 Alpha  occ. eigenvalues --  -10.28173 -10.28106 -10.27936 -10.27915 -10.27840
 Alpha  occ. eigenvalues --  -10.27601 -10.27348 -10.27248 -10.27160 -10.27131
 Alpha  occ. eigenvalues --  -10.26716 -10.26592 -10.26529 -10.26477 -10.26469
 Alpha  occ. eigenvalues --  -10.26395 -10.26353 -10.26176 -10.25924 -10.25839
 Alpha  occ. eigenvalues --  -10.25793 -10.25528 -10.25357 -10.25252 -10.25243
 Alpha  occ. eigenvalues --  -10.25242 -10.25108 -10.25046 -10.25019 -10.24864
 Alpha  occ. eigenvalues --  -10.24650 -10.24539 -10.24482 -10.24443 -10.24381
 Alpha  occ. eigenvalues --  -10.24252 -10.23972 -10.23036 -10.22944 -10.22717
 Alpha  occ. eigenvalues --   -3.12431  -1.87107  -1.86675  -1.86645  -1.21630
 Alpha  occ. eigenvalues --   -1.19179  -1.12015  -1.08437  -1.08118  -1.05035
 Alpha  occ. eigenvalues --   -1.03106  -1.02150  -1.01233  -0.92930  -0.92011
 Alpha  occ. eigenvalues --   -0.91417  -0.90290  -0.90243  -0.89836  -0.89155
 Alpha  occ. eigenvalues --   -0.88711  -0.88544  -0.87462  -0.87283  -0.86538
 Alpha  occ. eigenvalues --   -0.85129  -0.84783  -0.83764  -0.83459  -0.82566
 Alpha  occ. eigenvalues --   -0.82171  -0.81489  -0.81090  -0.80516  -0.78313
 Alpha  occ. eigenvalues --   -0.77766  -0.77359  -0.76329  -0.76293  -0.76081
 Alpha  occ. eigenvalues --   -0.75506  -0.75116  -0.74963  -0.73411  -0.71833
 Alpha  occ. eigenvalues --   -0.71418  -0.70971  -0.69267  -0.68726  -0.68206
 Alpha  occ. eigenvalues --   -0.67177  -0.67036  -0.65886  -0.65486  -0.65118
 Alpha  occ. eigenvalues --   -0.64069  -0.64043  -0.63936  -0.63895  -0.63270
 Alpha  occ. eigenvalues --   -0.62009  -0.61142  -0.60717  -0.59468  -0.59161
 Alpha  occ. eigenvalues --   -0.58715  -0.58348  -0.58201  -0.57821  -0.57587
 Alpha  occ. eigenvalues --   -0.57002  -0.56590  -0.56324  -0.55974  -0.55332
 Alpha  occ. eigenvalues --   -0.54915  -0.54480  -0.54261  -0.53713  -0.53457
 Alpha  occ. eigenvalues --   -0.53180  -0.52462  -0.52384  -0.52197  -0.51843
 Alpha  occ. eigenvalues --   -0.51662  -0.51221  -0.51074  -0.50961  -0.50876
 Alpha  occ. eigenvalues --   -0.50558  -0.50265  -0.50114  -0.49921  -0.49780
 Alpha  occ. eigenvalues --   -0.49627  -0.49434  -0.49335  -0.48973  -0.48780
 Alpha  occ. eigenvalues --   -0.48667  -0.48400  -0.48302  -0.48135  -0.47121
 Alpha  occ. eigenvalues --   -0.46743  -0.46686  -0.46393  -0.46318  -0.46063
 Alpha  occ. eigenvalues --   -0.45740  -0.45447  -0.45216  -0.45182  -0.45108
 Alpha  occ. eigenvalues --   -0.45018  -0.44884  -0.44859  -0.44717  -0.44262
 Alpha  occ. eigenvalues --   -0.43997  -0.43785  -0.43644  -0.43534  -0.43279
 Alpha  occ. eigenvalues --   -0.43202  -0.42905  -0.42747  -0.42685  -0.42370
 Alpha  occ. eigenvalues --   -0.42213  -0.41956  -0.41811  -0.41670  -0.41335
 Alpha  occ. eigenvalues --   -0.41213  -0.41077  -0.40845  -0.40628  -0.40244
 Alpha  occ. eigenvalues --   -0.40160  -0.39936  -0.39691  -0.39422  -0.38769
 Alpha  occ. eigenvalues --   -0.38558  -0.38085  -0.38030  -0.37791  -0.37387
 Alpha  occ. eigenvalues --   -0.37348  -0.37118  -0.36992  -0.36888  -0.36849
 Alpha  occ. eigenvalues --   -0.36639  -0.36087  -0.35896  -0.35499  -0.35445
 Alpha  occ. eigenvalues --   -0.35251  -0.35230  -0.34675  -0.33998  -0.33804
 Alpha  occ. eigenvalues --   -0.33775  -0.33102  -0.32472  -0.30429  -0.30137
 Alpha  occ. eigenvalues --   -0.29596  -0.28548  -0.27800  -0.27359  -0.23046
 Alpha  occ. eigenvalues --   -0.20088
 Alpha virt. eigenvalues --   -0.05782  -0.03003   0.01524   0.03616   0.04584
 Alpha virt. eigenvalues --    0.05229   0.05665   0.06481   0.07005   0.07344
 Alpha virt. eigenvalues --    0.08490   0.10517   0.11261   0.11522   0.11866

 Mulliken charges:
               1
     1  Mg   0.812029
     2  C    0.040052
     3  C   -0.189318
     4  C   -0.195291
     5  C   -0.136591
     6  N   -0.622916
     7  C    0.253801
     8  C   -0.135591
     9  C   -0.155594
    10  C    0.344014
    11  C   -0.328563
    12  C   -0.179068
    13  C   -0.257313
    14  C    0.613069
    15  O   -0.490417
    16  O   -0.450833
    17  N   -0.750888
    18  C    0.355210
    19  C   -0.011304
    20  C    0.062611
    21  C    0.310069
    22  C   -0.384223
    23  C   -0.069312
    24  C   -0.259674
    25  N   -0.667516
    26  C    0.288713
    27  C    0.044490
    28  C    0.025455
    29  C    0.264605
    30  C   -0.374412
    31  C   -0.251870
    32  C   -0.279621
    33  N   -0.670101
    34  C    0.258540
    35  C   -0.012261
    36  C   -0.045742
    37  C    0.267915
    38  C   -0.361354
    39  C    0.396579
    40  O   -0.439055
    41  C   -0.281528
    42  C    0.606659
    43  O   -0.510468
    44  O   -0.398628
    45  C   -0.088721
    46  C    0.041424
    47  C   -0.147340
    48  C    0.117151
    49  C   -0.362530
    50  C   -0.212553
    51  C   -0.207736
    52  C   -0.174159
    53  C   -0.053392
    54  C   -0.315759
    55  C   -0.165550
    56  C   -0.160350
    57  C   -0.165611
    58  C   -0.083781
    59  C   -0.290529
    60  C   -0.164922
    61  C   -0.182922
    62  C   -0.153838
    63  C   -0.068031
    64  C   -0.313843
    65  C   -0.299750
    66  H    0.072899
    67  H    0.086152
    68  H    0.074448
    69  H    0.130225
    70  H    0.104896
    71  H    0.106155
    72  H    0.111124
    73  H    0.114177
    74  H    0.125849
    75  H    0.117014
    76  H    0.124369
    77  H    0.138053
    78  H    0.113508
    79  H    0.130840
    80  H    0.089463
    81  H    0.106582
    82  H    0.102376
    83  H    0.108650
    84  H    0.095253
    85  H    0.118874
    86  H    0.133305
    87  H    0.080900
    88  H    0.113821
    89  H    0.075817
    90  H    0.109258
    91  H    0.125419
    92  H    0.116511
    93  H    0.145373
    94  H    0.133621
    95  H    0.171402
    96  H    0.134629
    97  H    0.144959
    98  H    0.122192
    99  H    0.119823
   100  H    0.104158
   101  H    0.072699
   102  H    0.122243
   103  H    0.103835
   104  H    0.088486
   105  H    0.111712
   106  H    0.082479
   107  H    0.100910
   108  H    0.090112
   109  H    0.091620
   110  H    0.106118
   111  H    0.086901
   112  H    0.094900
   113  H    0.106611
   114  H    0.095732
   115  H    0.074690
   116  H    0.084774
   117  H    0.105495
   118  H    0.090578
   119  H    0.097358
   120  H    0.082280
   121  H    0.063058
   122  H    0.093300
   123  H    0.048745
   124  H    0.114369
   125  H    0.094718
   126  H    0.104891
   127  H    0.094944
   128  H    0.088947
   129  H    0.096743
   130  H    0.055908
   131  H    0.093285
   132  H    0.111222
   133  H    0.097615
   134  H    0.071260
   135  H    0.106855
   136  H    0.070930
   137  H    0.119966
 Sum of Mulliken charges =   0.00000

 Dipole moment (field-independent basis, Debye):
    X=              1.6875    Y=              3.8347    Z=              1.4888  Tot=              4.4462
 Quadrupole moment (field-independent basis, Debye-Ang):
   XX=           -342.7460   YY=           -386.7404   ZZ=           -399.3673
   XY=            -14.5398   XZ=             10.4364   YZ=             -4.0667

 Normal termination of Gaussian 09 at Thu Jul  4 19:18:47 2019.
