 Gaussian 16, Revision A.03,
 Gaussian 16:  ES64L-G16RevA.03 25-Dec-2016

 -------------------------------------
 # td=(NStates=1) CAM-B3LYP/6-31G(d,p)
 -------------------------------------

 --
 TD
 --
 Symbolic Z-matrix:
 Charge =  0 Multiplicity = 1

                         Standard orientation:
 ---------------------------------------------------------------------
 Center     Atomic      Atomic             Coordinates (Angstroms)
 Number     Number       Type             X           Y           Z
 ---------------------------------------------------------------------
      1         12           0       -7.156439    0.598541    0.034778
      2          6           0       -4.889165   -1.963942    0.617556
      3          6           0       -4.849367    2.836870    1.060569
      4          6           0       -9.431255    3.116518   -0.476228
      5          6           0       -9.555553   -1.774631   -0.840709
      6          7           0       -5.171343    0.457407    0.757078
      7          6           0       -4.372339   -0.729409    0.860740
      8          6           0       -2.922250   -0.384167    1.278187
      9          6           0       -3.016626    1.121765    1.735138
     10          6           0       -4.456771    1.537466    1.145464
     11          6           0       -3.020109    1.255086    3.295806
     12          6           0       -1.829311   -0.507714    0.082603
     13          6           0       -0.470441   -0.274267    0.579172
     14          6           0        0.514801   -0.585671   -0.508424
     15          8           0        0.217072   -0.955604   -1.663674
     16          8           0        1.812493   -0.410735   -0.161052
     17          7           0       -7.186053    2.633213    0.282540
     18          6           0       -6.040436    3.401864    0.701447
     19          6           0       -6.442289    4.688724    0.733847
     20          6           0       -7.735114    4.807786    0.337683
     21          6           0       -8.184374    3.490615   -0.030857
     22          6           0       -5.472544    5.843286    1.082642
     23          6           0       -8.593767    6.002701    0.153444
     24          6           0       -8.427900    7.200773    0.870113
     25          7           0       -9.136660    0.672689   -0.564463
     26          6           0       -9.821042    1.845918   -0.703157
     27          6           0      -11.211625    1.463058   -1.224345
     28          6           0      -11.268394    0.125791   -1.309312
     29          6           0       -9.955401   -0.443956   -0.877787
     30          6           0      -12.254526    2.474963   -1.482076
     31          6           0      -12.497153   -0.767012   -1.685621
     32          6           0      -12.356283   -1.276507   -3.111239
     33          7           0       -7.240224   -1.397159   -0.148658
     34          6           0       -8.275006   -2.197174   -0.545950
     35          6           0       -7.875748   -3.637508   -0.507782
     36          6           0       -6.492422   -3.561214   -0.157781
     37          6           0       -6.161962   -2.200392    0.150697
     38          6           0       -8.623421   -4.808801   -0.908670
     39          6           0       -5.321211   -4.394629    0.233336
     40          8           0       -5.112107   -5.596142    0.093812
     41          6           0       -4.161264   -3.362402    0.580603
     42          6           0       -3.670216   -3.678331    1.892877
     43          8           0       -3.678551   -2.991878    2.971803
     44          8           0       -2.863373   -4.776974    1.898648
     45          6           0       -2.158788   -5.212087    2.993363
     46          6           0        2.684712   -0.550565   -1.107406
     47          6           0        4.061407   -0.426150   -0.569232
     48          6           0        5.092315    0.292541   -0.914602
     49          6           0        5.135867    1.182906   -2.181894
     50          6           0        6.480976    0.342577   -0.192021
     51          6           0        7.533398   -0.215859   -0.998940
     52          6           0        8.958682   -0.232776   -0.104652
     53          6           0       10.223838   -0.525123   -0.969127
     54          6           0       10.221639   -2.011282   -1.421043
     55          6           0       11.499387   -0.330169   -0.044961
     56          6           0       12.870967   -0.530299   -0.734160
     57          6           0       14.072195   -0.045559    0.107038
     58          6           0       15.418837   -0.210730   -0.500913
     59          6           0       15.849975   -1.593123   -0.924573
     60          6           0       16.437372    0.372767    0.374204
     61          6           0       17.871041    0.526538   -0.136242
     62          6           0       18.767623    1.317061    0.775359
     63          6           0       20.245545    1.278676    0.238523
     64          6           0       20.375740    2.139468   -1.050599
     65          6           0       21.219042    1.967960    1.304929
     66          1           0       -4.082390    3.586701    1.438860
     67          1           0      -10.113199    3.774223   -0.520346
     68          1           0      -10.293027   -2.579608   -1.265974
     69          1           0       -2.501245   -1.149796    1.996328
     70          1           0       -2.268275    1.622433    1.404075
     71          1           0       -2.126864    0.761725    3.754873
     72          1           0       -3.167788    2.372587    3.360929
     73          1           0       -3.957813    0.603162    3.514077
     74          1           0       -1.970342   -1.535954   -0.281693
     75          1           0       -2.019764    0.133470   -0.705802
     76          1           0       -0.379058    0.792845    0.995118
     77          1           0       -0.232015   -0.921989    1.648153
     78          1           0       -5.805377    6.856221    0.731511
     79          1           0       -5.365263    5.875652    2.189182
     80          1           0       -4.312065    5.370545    0.639788
     81          1           0       -9.321456    5.805263   -0.624667
     82          1           0       -9.044663    8.148346    0.708215
     83          1           0       -7.755623    7.431325    1.661253
     84          1           0      -11.762429    3.360657   -2.130228
     85          1           0      -13.228447    2.128313   -2.161214
     86          1           0      -12.503430    2.985314   -0.601672
     87          1           0      -12.701245   -1.674154   -0.987405
     88          1           0      -13.354907    0.141500   -1.551176
     89          1           0      -13.254794   -1.923038   -3.526122
     90          1           0      -12.147456   -0.488642   -3.949839
     91          1           0      -11.570545   -1.915026   -3.248562
     92          1           0       -8.505185   -4.871489   -2.019008
     93          1           0       -8.050504   -5.897287   -0.497689
     94          1           0       -9.845933   -4.734104   -0.536377
     95          1           0       -3.401364   -3.312651   -0.231108
     96          1           0       -1.515045   -4.445617    3.346031
     97          1           0       -2.664557   -5.608840    3.827871
     98          1           0       -1.563065   -6.021793    2.716062
     99          1           0        2.724553   -1.652233   -1.340016
    100          1           0        2.627556    0.244270   -1.826627
    101          1           0        4.125480   -1.109448    0.353460
    102          1           0        4.114652    1.271109   -2.603333
    103          1           0        5.539506    2.099424   -1.983103
    104          1           0        5.552954    0.706953   -2.869130
    105          1           0        6.955963    1.390507    0.293709
    106          1           0        6.444124   -0.234840    0.895207
    107          1           0        7.361912   -1.053249   -1.473679
    108          1           0        7.874215    0.398833   -2.010864
    109          1           0        8.998695    0.716178    0.462079
    110          1           0        8.911562   -1.094892    0.574121
    111          1           0       10.129123    0.342478   -1.590666
    112          1           0        9.161702   -2.342737   -1.857709
    113          1           0       10.931921   -2.245821   -2.351113
    114          1           0       10.263764   -2.773046   -0.627375
    115          1           0       11.304946    0.669345    0.556152
    116          1           0       11.397852   -1.149383    0.877167
    117          1           0       13.006383   -1.586132   -1.174477
    118          1           0       12.762040   -0.025906   -1.676609
    119          1           0       13.759339    1.007912    0.319524
    120          1           0       13.911053   -0.464895    1.150454
    121          1           0       15.320622    0.365266   -1.459237
    122          1           0       15.780047   -2.247222   -0.007735
    123          1           0       15.345982   -2.176197   -1.687594
    124          1           0       16.821885   -1.564651   -1.431737
    125          1           0       16.009430    1.386690    0.687183
    126          1           0       16.242747   -0.225940    1.399743
    127          1           0       18.458805   -0.410210   -0.261843
    128          1           0       17.788240    1.289098   -1.059251
    129          1           0       18.281229    2.436158    0.987145
    130          1           0       18.664949    0.947896    1.678522
    131          1           0       20.546622    0.144572   -0.065717
    132          1           0       19.934781    3.090374   -0.914683
    133          1           0       21.383687    2.088879   -1.332825
    134          1           0       19.675677    1.664453   -1.838834
    135          1           0       21.229390    1.453133    2.138774
    136          1           0       22.217445    1.970065    0.895233
    137          1           0       20.909536    2.894684    1.472907
 ---------------------------------------------------------------------

 SCF Done:  E(RCAM-B3LYP) =  -2932.59748637     A.U. after   18 cycles

 Excitation energies and oscillator strengths:

 Excited State   1:      Singlet-A      1.8864 eV  657.24 nm  f=0.3347  <S**2>=0.000
     240 -> 243        0.20678
     241 -> 242        0.67426
 This state for optimization and/or second-order correction.
 Total Energy, E(TD-HF/TD-DFT) =  -2932.52816090
 Copying the excited state density for this state as the 1-particle RhoCI density.

 The electronic state is 1-A.
 Alpha  occ. eigenvalues --  -46.83846 -19.27006 -19.25682 -19.21698 -19.21231
 Alpha  occ. eigenvalues --  -19.20462 -14.42713 -14.39890 -14.39890 -14.38779
 Alpha  occ. eigenvalues --  -10.40549 -10.39954 -10.36297 -10.31496 -10.31350
 Alpha  occ. eigenvalues --  -10.30939 -10.30325 -10.29925 -10.29834 -10.29793
 Alpha  occ. eigenvalues --  -10.29727 -10.29662 -10.29340 -10.29241 -10.29169
 Alpha  occ. eigenvalues --  -10.29153 -10.29077 -10.29012 -10.28795 -10.28616
 Alpha  occ. eigenvalues --  -10.28324 -10.28311 -10.28204 -10.28022 -10.27687
 Alpha  occ. eigenvalues --  -10.27666 -10.27428 -10.27202 -10.27141 -10.27052
 Alpha  occ. eigenvalues --  -10.26943 -10.26883 -10.26764 -10.26674 -10.26599
 Alpha  occ. eigenvalues --  -10.26559 -10.26530 -10.26326 -10.26244 -10.26184
 Alpha  occ. eigenvalues --  -10.26026 -10.25934 -10.25848 -10.25693 -10.25648
 Alpha  occ. eigenvalues --  -10.25375 -10.25272 -10.25220 -10.25203 -10.25177
 Alpha  occ. eigenvalues --  -10.24595 -10.24130 -10.23844 -10.23367 -10.22117
 Alpha  occ. eigenvalues --   -3.12942  -1.87652  -1.87176  -1.87121  -1.21846
 Alpha  occ. eigenvalues --   -1.17711  -1.11027  -1.09606  -1.06399  -1.03976
 Alpha  occ. eigenvalues --   -1.03385  -1.02367  -1.01336  -0.93440  -0.91218
 Alpha  occ. eigenvalues --   -0.91109  -0.90403  -0.90148  -0.88758  -0.88244
 Alpha  occ. eigenvalues --   -0.88076  -0.87959  -0.87566  -0.87447  -0.86566
 Alpha  occ. eigenvalues --   -0.85745  -0.84873  -0.83791  -0.83322  -0.82802
 Alpha  occ. eigenvalues --   -0.82368  -0.81973  -0.80763  -0.80474  -0.78205
 Alpha  occ. eigenvalues --   -0.78034  -0.77327  -0.76400  -0.76377  -0.75951
 Alpha  occ. eigenvalues --   -0.75463  -0.74560  -0.74023  -0.73373  -0.72636
 Alpha  occ. eigenvalues --   -0.71528  -0.70339  -0.69082  -0.68819  -0.68331
 Alpha  occ. eigenvalues --   -0.67627  -0.66721  -0.66142  -0.65337  -0.65144
 Alpha  occ. eigenvalues --   -0.64456  -0.63960  -0.62975  -0.62836  -0.62459
 Alpha  occ. eigenvalues --   -0.61882  -0.61540  -0.61014  -0.60287  -0.59534
 Alpha  occ. eigenvalues --   -0.58995  -0.58859  -0.58357  -0.58171  -0.57984
 Alpha  occ. eigenvalues --   -0.56571  -0.55999  -0.55302  -0.54892  -0.54848
 Alpha  occ. eigenvalues --   -0.54550  -0.54183  -0.54001  -0.53607  -0.53460
 Alpha  occ. eigenvalues --   -0.53364  -0.52069  -0.51929  -0.51802  -0.51381
 Alpha  occ. eigenvalues --   -0.51303  -0.51152  -0.51039  -0.50965  -0.50514
 Alpha  occ. eigenvalues --   -0.50388  -0.50079  -0.50064  -0.49817  -0.49667
 Alpha  occ. eigenvalues --   -0.49409  -0.49181  -0.49004  -0.48890  -0.48626
 Alpha  occ. eigenvalues --   -0.48510  -0.48457  -0.48125  -0.47291  -0.46987
 Alpha  occ. eigenvalues --   -0.46837  -0.46542  -0.46341  -0.46210  -0.46029
 Alpha  occ. eigenvalues --   -0.45918  -0.45854  -0.45601  -0.45388  -0.45364
 Alpha  occ. eigenvalues --   -0.45090  -0.44701  -0.44657  -0.44341  -0.44263
 Alpha  occ. eigenvalues --   -0.44081  -0.43690  -0.43502  -0.43460  -0.43401
 Alpha  occ. eigenvalues --   -0.43065  -0.42831  -0.42714  -0.42507  -0.42148
 Alpha  occ. eigenvalues --   -0.41529  -0.41412  -0.41183  -0.41062  -0.40934
 Alpha  occ. eigenvalues --   -0.40804  -0.40507  -0.40357  -0.40186  -0.40051
 Alpha  occ. eigenvalues --   -0.39843  -0.39765  -0.39728  -0.39274  -0.39207
 Alpha  occ. eigenvalues --   -0.38686  -0.38333  -0.37948  -0.37661  -0.37230
 Alpha  occ. eigenvalues --   -0.37172  -0.36820  -0.36562  -0.36372  -0.36316
 Alpha  occ. eigenvalues --   -0.36052  -0.35862  -0.35537  -0.35370  -0.35224
 Alpha  occ. eigenvalues --   -0.34936  -0.34891  -0.34705  -0.34507  -0.33609
 Alpha  occ. eigenvalues --   -0.33289  -0.33075  -0.32850  -0.31688  -0.30585
 Alpha  occ. eigenvalues --   -0.30169  -0.29493  -0.28798  -0.27275  -0.24143
 Alpha  occ. eigenvalues --   -0.21162
 Alpha virt. eigenvalues --   -0.07530  -0.03054   0.00385   0.03181   0.03544
 Alpha virt. eigenvalues --    0.04071   0.05945   0.06757   0.07026   0.07541
 Alpha virt. eigenvalues --    0.07650   0.10011   0.10367   0.10527   0.11200

 Mulliken charges:
               1
     1  Mg   0.806707
     2  C    0.057544
     3  C   -0.220669
     4  C   -0.112337
     5  C   -0.177029
     6  N   -0.645378
     7  C    0.290901
     8  C   -0.163809
     9  C   -0.126825
    10  C    0.340128
    11  C   -0.288407
    12  C   -0.168816
    13  C   -0.269398
    14  C    0.620496
    15  O   -0.480299
    16  O   -0.421265
    17  N   -0.745894
    18  C    0.347332
    19  C    0.026589
    20  C   -0.004496
    21  C    0.325180
    22  C   -0.351098
    23  C   -0.075017
    24  C   -0.260887
    25  N   -0.715915
    26  C    0.330995
    27  C    0.038257
    28  C    0.010943
    29  C    0.285357
    30  C   -0.387864
    31  C   -0.211531
    32  C   -0.305035
    33  N   -0.742390
    34  C    0.301496
    35  C    0.048787
    36  C   -0.020464
    37  C    0.296980
    38  C   -0.384495
    39  C    0.375214
    40  O   -0.451832
    41  C   -0.325807
    42  C    0.634086
    43  O   -0.503465
    44  O   -0.438762
    45  C   -0.070677
    46  C    0.053719
    47  C   -0.162139
    48  C    0.093578
    49  C   -0.350586
    50  C   -0.208478
    51  C   -0.150449
    52  C   -0.191569
    53  C   -0.057645
    54  C   -0.307779
    55  C   -0.162276
    56  C   -0.181666
    57  C   -0.178126
    58  C   -0.041281
    59  C   -0.310755
    60  C   -0.160164
    61  C   -0.168185
    62  C   -0.155968
    63  C   -0.079694
    64  C   -0.298171
    65  C   -0.306013
    66  H    0.081273
    67  H    0.052916
    68  H    0.101904
    69  H    0.124205
    70  H    0.092693
    71  H    0.113571
    72  H    0.102543
    73  H    0.124674
    74  H    0.112672
    75  H    0.129660
    76  H    0.138599
    77  H    0.111998
    78  H    0.123633
    79  H    0.125901
    80  H    0.071592
    81  H    0.104501
    82  H    0.099990
    83  H    0.115579
    84  H    0.099325
    85  H    0.107093
    86  H    0.141675
    87  H    0.108177
    88  H    0.078412
    89  H    0.086197
    90  H    0.100133
    91  H    0.123957
    92  H    0.146305
    93  H    0.125277
    94  H    0.096311
    95  H    0.189977
    96  H    0.111194
    97  H    0.122468
    98  H    0.121309
    99  H    0.109481
   100  H    0.096954
   101  H    0.076511
   102  H    0.091127
   103  H    0.123754
   104  H    0.139669
   105  H    0.078564
   106  H    0.078917
   107  H    0.114444
   108  H    0.056356
   109  H    0.087510
   110  H    0.093595
   111  H    0.099817
   112  H    0.076912
   113  H    0.096228
   114  H    0.120851
   115  H    0.070409
   116  H    0.054428
   117  H    0.091196
   118  H    0.094310
   119  H    0.093102
   120  H    0.081643
   121  H    0.077814
   122  H    0.091348
   123  H    0.098194
   124  H    0.106627
   125  H    0.081862
   126  H    0.064158
   127  H    0.101327
   128  H    0.085096
   129  H    0.051660
   130  H    0.102924
   131  H    0.065680
   132  H    0.110272
   133  H    0.106816
   134  H    0.085341
   135  H    0.108239
   136  H    0.093357
   137  H    0.114304
 Sum of Mulliken charges =  -0.00000

 Dipole moment (field-independent basis, Debye):
    X=              0.8134    Y=              3.9480    Z=             -0.1834  Tot=              4.0351
 Quadrupole moment (field-independent basis, Debye-Ang):
   XX=           -351.8911   YY=           -391.7783   ZZ=           -401.4692
   XY=            -20.0112   XZ=             13.6650   YZ=              1.5183

 Normal termination of Gaussian 16 at Thu Jun 27 10:11:23 2019.
