 Gaussian 16, Revision A.03,
 Gaussian 16:  ES64L-G16RevA.03 25-Dec-2016

 ----------------------------------------------------------------------
 # td=(NStates=1) iop(3/107=0140000000,3/108=0140000000) CAM-B3LYP/6-31
 G(d,p)
 ----------------------------------------------------------------------

 --
 TD
 --
 Symbolic Z-matrix:
 Charge =  0 Multiplicity = 1

                         Standard orientation:
 ---------------------------------------------------------------------
 Center     Atomic      Atomic             Coordinates (Angstroms)
 Number     Number       Type             X           Y           Z
 ---------------------------------------------------------------------
      1         12           0       -7.222821    0.608136    0.056937
      2          6           0       -4.929312   -1.901749    0.542608
      3          6           0       -4.873063    2.877207    1.143235
      4          6           0       -9.441373    3.083776   -0.399610
      5          6           0       -9.550060   -1.727270   -0.924925
      6          7           0       -5.195128    0.454391    0.825127
      7          6           0       -4.371937   -0.725266    0.879382
      8          6           0       -2.919514   -0.434805    1.270158
      9          6           0       -3.031973    1.156578    1.586957
     10          6           0       -4.443389    1.496013    1.142144
     11          6           0       -3.026164    1.292187    3.160789
     12          6           0       -1.879332   -0.704226    0.122294
     13          6           0       -0.518209   -0.522685    0.620608
     14          6           0        0.568456   -0.749688   -0.461335
     15          8           0        0.310514   -1.187703   -1.611494
     16          8           0        1.826564   -0.423426   -0.197336
     17          7           0       -7.126429    2.585026    0.292445
     18          6           0       -6.104150    3.413763    0.698169
     19          6           0       -6.533131    4.770665    0.754059
     20          6           0       -7.852995    4.800339    0.333712
     21          6           0       -8.176382    3.428257    0.046901
     22          6           0       -5.591920    5.936478    0.936095
     23          6           0       -8.709103    5.983665    0.062468
     24          6           0       -8.609430    7.204142    0.685581
     25          7           0       -9.245785    0.694027   -0.410976
     26          6           0       -9.921945    1.827486   -0.648335
     27          6           0      -11.206140    1.426325   -0.994225
     28          6           0      -11.241707    0.074021   -1.254920
     29          6           0       -9.958303   -0.413873   -0.909013
     30          6           0      -12.301043    2.500405   -1.287308
     31          6           0      -12.461131   -0.769975   -1.730394
     32          6           0      -12.223389   -1.223246   -3.195650
     33          7           0       -7.256833   -1.361558   -0.155834
     34          6           0       -8.257537   -2.227333   -0.573119
     35          6           0       -7.803964   -3.616563   -0.605090
     36          6           0       -6.436201   -3.528596   -0.253167
     37          6           0       -6.224332   -2.125371    0.115381
     38          6           0       -8.607307   -4.849171   -0.856578
     39          6           0       -5.402127   -4.322700    0.177163
     40          8           0       -5.185303   -5.511126    0.190117
     41          6           0       -4.160109   -3.267511    0.644146
     42          6           0       -3.565514   -3.646936    1.832222
     43          8           0       -3.743914   -3.149714    2.950368
     44          8           0       -2.845922   -4.755781    1.700616
     45          6           0       -2.131843   -5.229110    2.944318
     46          6           0        2.842207   -0.741135   -1.159856
     47          6           0        4.153542   -0.501637   -0.454450
     48          6           0        5.127299    0.287134   -0.895284
     49          6           0        5.044551    1.164589   -2.089035
     50          6           0        6.453118    0.354377   -0.179892
     51          6           0        7.673861   -0.106197   -1.037120
     52          6           0        9.051806   -0.122898   -0.249451
     53          6           0       10.300727   -0.500030   -0.942066
     54          6           0       10.212261   -2.012068   -1.383818
     55          6           0       11.420122   -0.238494   -0.009082
     56          6           0       12.878471   -0.436199   -0.699913
     57          6           0       14.083593   -0.058935    0.166621
     58          6           0       15.387958   -0.176493   -0.526199
     59          6           0       15.737511   -1.570287   -0.988961
     60          6           0       16.506787    0.268093    0.466295
     61          6           0       17.935373    0.614311   -0.259786
     62          6           0       18.841855    1.248098    0.796149
     63          6           0       20.272924    1.421877    0.215510
     64          6           0       20.385586    2.253037   -1.042358
     65          6           0       21.233776    1.836454    1.398037
     66          1           0       -4.137719    3.471995    1.544957
     67          1           0      -10.154350    3.886881   -0.829231
     68          1           0      -10.274059   -2.336468   -1.214437
     69          1           0       -2.727341   -1.173706    2.079688
     70          1           0       -2.233430    1.769788    1.147191
     71          1           0       -1.955938    1.073643    3.516668
     72          1           0       -3.087547    2.303829    3.464609
     73          1           0       -3.636351    0.671443    3.762780
     74          1           0       -1.744194   -1.752134   -0.229432
     75          1           0       -2.124763   -0.086501   -0.792561
     76          1           0       -0.107235    0.356331    1.137560
     77          1           0       -0.294802   -1.354494    1.314326
     78          1           0       -5.828079    6.931530    0.605737
     79          1           0       -5.517783    6.025604    1.906138
     80          1           0       -4.458323    5.775690    0.791652
     81          1           0       -9.790118    5.776662   -0.420015
     82          1           0       -9.334355    8.044870    0.450286
     83          1           0       -7.789888    7.512684    1.405777
     84          1           0      -11.927775    3.336106   -1.942391
     85          1           0      -13.094453    2.060732   -1.656694
     86          1           0      -12.475531    3.202816   -0.503280
     87          1           0      -12.491732   -1.835272   -1.346048
     88          1           0      -13.344435   -0.020078   -1.472512
     89          1           0      -13.068089   -1.886299   -3.461517
     90          1           0      -11.946114   -0.321616   -3.765774
     91          1           0      -11.314547   -1.815407   -3.253264
     92          1           0       -8.797184   -4.683809   -1.852755
     93          1           0       -7.856523   -5.568174   -0.714813
     94          1           0       -9.562858   -5.046079   -0.303995
     95          1           0       -3.346737   -3.416747   -0.122493
     96          1           0       -1.019849   -4.609174    3.191538
     97          1           0       -2.904101   -5.027230    3.879299
     98          1           0       -1.809326   -6.341806    2.736172
     99          1           0        2.722231   -1.615859   -1.439074
    100          1           0        2.713642   -0.186741   -2.000966
    101          1           0        4.356997   -1.051846    0.438089
    102          1           0        4.146420    1.482114   -2.443783
    103          1           0        5.801501    2.131163   -1.903854
    104          1           0        5.588568    0.832548   -2.902944
    105          1           0        6.680328    1.414006    0.009909
    106          1           0        6.328771   -0.229191    0.752284
    107          1           0        7.479587   -1.234378   -1.450813
    108          1           0        7.668238    0.541777   -1.888474
    109          1           0        9.119420    0.962702    0.141190
    110          1           0        8.871446   -0.707526    0.718100
    111          1           0       10.217302    0.284348   -1.902397
    112          1           0        9.267029   -2.175991   -1.984359
    113          1           0       10.903376   -2.400643   -2.032593
    114          1           0       10.070319   -2.684721   -0.473164
    115          1           0       11.380878    0.907220    0.399274
    116          1           0       11.362445   -0.730717    0.977139
    117          1           0       12.852866   -1.417418   -0.995660
    118          1           0       12.683386    0.086450   -1.598552
    119          1           0       13.953630    0.883763    0.805417
    120          1           0       14.034041   -0.911594    0.956676
    121          1           0       15.319929    0.550774   -1.304869
    122          1           0       15.715098   -2.027604    0.076815
    123          1           0       15.207489   -2.076288   -1.709580
    124          1           0       16.690083   -1.787984   -1.466882
    125          1           0       16.455318    1.275383    0.957089
    126          1           0       16.434871   -0.390650    1.273691
    127          1           0       18.116101   -0.406036   -0.830592
    128          1           0       17.925702    1.389273   -1.000291
    129          1           0       18.570792    2.169547    1.111389
    130          1           0       18.816666    0.822996    1.784129
    131          1           0       20.608518    0.383156    0.170828
    132          1           0       19.875557    3.289517   -0.987246
    133          1           0       21.402284    2.665644   -1.481273
    134          1           0       19.896639    1.619253   -1.794642
    135          1           0       21.402616    1.126282    2.202940
    136          1           0       22.227168    2.096524    0.774484
    137          1           0       20.949309    2.903308    1.812287
 ---------------------------------------------------------------------

 SCF Done:  E(RCAM-B3LYP) =  -2933.51952976     A.U. after   16 cycles

 Excitation energies and oscillator strengths:

 Excited State   1:      Singlet-A      2.0760 eV  597.22 nm  f=0.2338  <S**2>=0.000
     240 -> 243       -0.23231
     241 -> 242        0.66292
 This state for optimization and/or second-order correction.
 Total Energy, E(TD-HF/TD-DFT) =  -2933.44323798
 Copying the excited state density for this state as the 1-particle RhoCI density.

 The electronic state is 1-A.
 Alpha  occ. eigenvalues --  -46.79580 -19.21741 -19.21271 -19.15761 -19.15011
 Alpha  occ. eigenvalues --  -19.14244 -14.37739 -14.35934 -14.35342 -14.33927
 Alpha  occ. eigenvalues --  -10.34113 -10.32355 -10.30041 -10.29939 -10.26876
 Alpha  occ. eigenvalues --  -10.25756 -10.25692 -10.25265 -10.25161 -10.25094
 Alpha  occ. eigenvalues --  -10.24851 -10.24740 -10.24716 -10.24498 -10.24124
 Alpha  occ. eigenvalues --  -10.23793 -10.23755 -10.23712 -10.23515 -10.23402
 Alpha  occ. eigenvalues --  -10.23276 -10.23132 -10.23064 -10.22871 -10.22739
 Alpha  occ. eigenvalues --  -10.22721 -10.22521 -10.22444 -10.22389 -10.22244
 Alpha  occ. eigenvalues --  -10.21987 -10.21887 -10.21856 -10.21789 -10.21662
 Alpha  occ. eigenvalues --  -10.21604 -10.21491 -10.21470 -10.21421 -10.21407
 Alpha  occ. eigenvalues --  -10.21358 -10.21329 -10.21256 -10.21188 -10.21114
 Alpha  occ. eigenvalues --  -10.21023 -10.20965 -10.20949 -10.20946 -10.20839
 Alpha  occ. eigenvalues --  -10.20492 -10.20350 -10.20140 -10.19672 -10.19572
 Alpha  occ. eigenvalues --   -3.08287  -1.83218  -1.82764  -1.82700  -1.13115
 Alpha  occ. eigenvalues --   -1.11680  -1.06060  -1.01361  -1.01224  -0.99879
 Alpha  occ. eigenvalues --   -0.99102  -0.98096  -0.97528  -0.87162  -0.86481
 Alpha  occ. eigenvalues --   -0.85655  -0.85185  -0.84607  -0.84433  -0.83934
 Alpha  occ. eigenvalues --   -0.83494  -0.83490  -0.82453  -0.82097  -0.81298
 Alpha  occ. eigenvalues --   -0.80224  -0.79095  -0.78870  -0.78089  -0.77939
 Alpha  occ. eigenvalues --   -0.77127  -0.76497  -0.76243  -0.75186  -0.74421
 Alpha  occ. eigenvalues --   -0.73764  -0.72813  -0.72195  -0.71267  -0.71128
 Alpha  occ. eigenvalues --   -0.70692  -0.70208  -0.69919  -0.69099  -0.68769
 Alpha  occ. eigenvalues --   -0.67572  -0.66521  -0.65244  -0.64977  -0.64533
 Alpha  occ. eigenvalues --   -0.62924  -0.62393  -0.61547  -0.61312  -0.60622
 Alpha  occ. eigenvalues --   -0.60156  -0.59854  -0.59408  -0.58631  -0.57744
 Alpha  occ. eigenvalues --   -0.57162  -0.56369  -0.56036  -0.55820  -0.55337
 Alpha  occ. eigenvalues --   -0.55192  -0.54082  -0.53726  -0.53539  -0.52395
 Alpha  occ. eigenvalues --   -0.52122  -0.51827  -0.51670  -0.51565  -0.51209
 Alpha  occ. eigenvalues --   -0.50563  -0.50276  -0.49444  -0.49073  -0.48965
 Alpha  occ. eigenvalues --   -0.48732  -0.48489  -0.48318  -0.48046  -0.47672
 Alpha  occ. eigenvalues --   -0.47422  -0.47371  -0.47117  -0.46941  -0.46789
 Alpha  occ. eigenvalues --   -0.46638  -0.46553  -0.46490  -0.46137  -0.45846
 Alpha  occ. eigenvalues --   -0.45737  -0.45463  -0.45286  -0.45121  -0.44739
 Alpha  occ. eigenvalues --   -0.44327  -0.44270  -0.44173  -0.43804  -0.43718
 Alpha  occ. eigenvalues --   -0.43454  -0.43280  -0.43124  -0.42915  -0.42761
 Alpha  occ. eigenvalues --   -0.42539  -0.42410  -0.42257  -0.42088  -0.41680
 Alpha  occ. eigenvalues --   -0.41455  -0.41095  -0.41054  -0.40659  -0.40563
 Alpha  occ. eigenvalues --   -0.40491  -0.40454  -0.40054  -0.39931  -0.39836
 Alpha  occ. eigenvalues --   -0.39708  -0.39571  -0.39557  -0.39275  -0.39129
 Alpha  occ. eigenvalues --   -0.39000  -0.38711  -0.38487  -0.38118  -0.37886
 Alpha  occ. eigenvalues --   -0.37704  -0.37399  -0.37112  -0.37082  -0.36861
 Alpha  occ. eigenvalues --   -0.36764  -0.36674  -0.36573  -0.36474  -0.36328
 Alpha  occ. eigenvalues --   -0.36184  -0.35730  -0.35343  -0.35288  -0.34967
 Alpha  occ. eigenvalues --   -0.34623  -0.34242  -0.34035  -0.33871  -0.33586
 Alpha  occ. eigenvalues --   -0.33369  -0.33164  -0.33158  -0.32669  -0.32541
 Alpha  occ. eigenvalues --   -0.32119  -0.31977  -0.31408  -0.30377  -0.29832
 Alpha  occ. eigenvalues --   -0.29083  -0.28703  -0.28399  -0.28342  -0.27565
 Alpha  occ. eigenvalues --   -0.27149  -0.26017  -0.25337  -0.24904  -0.21761
 Alpha  occ. eigenvalues --   -0.20271
 Alpha virt. eigenvalues --   -0.07170  -0.03879  -0.00474   0.01848   0.03714
 Alpha virt. eigenvalues --    0.04288   0.04515   0.04636   0.05132   0.05815
 Alpha virt. eigenvalues --    0.06570   0.08898   0.09176   0.09753   0.09964

 Mulliken charges:
               1
     1  Mg   0.811198
     2  C    0.077309
     3  C   -0.193625
     4  C   -0.179077
     5  C   -0.143390
     6  N   -0.623717
     7  C    0.261876
     8  C   -0.142043
     9  C   -0.165207
    10  C    0.371827
    11  C   -0.317695
    12  C   -0.166624
    13  C   -0.256733
    14  C    0.573263
    15  O   -0.508648
    16  O   -0.460739
    17  N   -0.721545
    18  C    0.323595
    19  C    0.009765
    20  C    0.027798
    21  C    0.333707
    22  C   -0.384043
    23  C   -0.071111
    24  C   -0.246856
    25  N   -0.718488
    26  C    0.343801
    27  C   -0.001839
    28  C    0.014768
    29  C    0.298400
    30  C   -0.370289
    31  C   -0.226845
    32  C   -0.317596
    33  N   -0.728666
    34  C    0.264983
    35  C    0.009553
    36  C    0.007366
    37  C    0.330863
    38  C   -0.363921
    39  C    0.346458
    40  O   -0.458563
    41  C   -0.335552
    42  C    0.635488
    43  O   -0.525819
    44  O   -0.443639
    45  C   -0.075623
    46  C    0.056571
    47  C   -0.160214
    48  C    0.174253
    49  C   -0.377777
    50  C   -0.235893
    51  C   -0.174630
    52  C   -0.159167
    53  C   -0.030450
    54  C   -0.318058
    55  C   -0.175769
    56  C   -0.184923
    57  C   -0.163860
    58  C   -0.062334
    59  C   -0.294817
    60  C   -0.184339
    61  C   -0.181663
    62  C   -0.183116
    63  C   -0.045178
    64  C   -0.320286
    65  C   -0.317099
    66  H    0.059005
    67  H    0.074468
    68  H    0.056600
    69  H    0.136804
    70  H    0.113303
    71  H    0.093029
    72  H    0.111841
    73  H    0.145620
    74  H    0.125188
    75  H    0.116377
    76  H    0.125675
    77  H    0.139151
    78  H    0.125094
    79  H    0.144746
    80  H    0.104815
    81  H    0.085035
    82  H    0.104441
    83  H    0.103409
    84  H    0.107871
    85  H    0.107573
    86  H    0.122164
    87  H    0.104820
    88  H    0.095793
    89  H    0.107327
    90  H    0.114097
    91  H    0.112164
    92  H    0.140528
    93  H    0.151834
    94  H    0.129702
    95  H    0.153304
    96  H    0.083995
    97  H    0.149150
    98  H    0.129309
    99  H    0.127456
   100  H    0.114407
   101  H    0.081266
   102  H    0.125816
   103  H    0.073845
   104  H    0.139069
   105  H    0.101848
   106  H    0.092216
   107  H    0.071361
   108  H    0.095232
   109  H    0.077113
   110  H    0.080527
   111  H    0.061897
   112  H    0.095086
   113  H    0.115731
   114  H    0.099306
   115  H    0.059016
   116  H    0.092618
   117  H    0.109292
   118  H    0.093707
   119  H    0.090508
   120  H    0.065893
   121  H    0.085980
   122  H    0.086960
   123  H    0.107462
   124  H    0.100258
   125  H    0.079445
   126  H    0.094077
   127  H    0.079122
   128  H    0.107897
   129  H    0.104629
   130  H    0.089325
   131  H    0.100766
   132  H    0.094931
   133  H    0.095689
   134  H    0.117597
   135  H    0.110573
   136  H    0.075898
   137  H    0.076580
 Sum of Mulliken charges =  -0.00000

 Dipole moment (field-independent basis, Debye):
    X=              1.7131    Y=              4.6776    Z=             -0.4739  Tot=              5.0039
 Quadrupole moment (field-independent basis, Debye-Ang):
   XX=           -356.1064   YY=           -388.8263   ZZ=           -397.0119
   XY=            -22.8063   XZ=              7.6528   YZ=              2.1413

 Normal termination of Gaussian 16 at Tue Sep 17 17:00:52 2019.
