 Gaussian 09, Revision D.01,
 Gaussian 09:  ES64L-G09RevD.01 24-Apr-2013

 -------------------------------------
 # td=(NStates=1) CAM-B3LYP/6-31G(d,p)
 -------------------------------------

 --
 TD
 --
 Symbolic Z-matrix:
 Charge =  0 Multiplicity = 1

                         Standard orientation:
 ---------------------------------------------------------------------
 Center     Atomic      Atomic             Coordinates (Angstroms)
 Number     Number       Type             X           Y           Z
 ---------------------------------------------------------------------
      1         12           0       -6.976386    0.647936    0.068804
      2          6           0       -4.833023   -1.958676    0.557743
      3          6           0       -4.874516    2.798811    1.311201
      4          6           0       -9.342984    3.114420   -0.572568
      5          6           0       -9.374936   -1.745446   -0.946283
      6          7           0       -5.012781    0.437082    0.671715
      7          6           0       -4.337851   -0.755733    0.899008
      8          6           0       -2.945385   -0.443011    1.383810
      9          6           0       -3.033557    1.090545    1.755371
     10          6           0       -4.430092    1.507618    1.229981
     11          6           0       -3.133211    1.273837    3.256770
     12          6           0       -1.931664   -0.520171    0.170465
     13          6           0       -0.420635   -0.588973    0.649702
     14          6           0        0.502141   -0.699219   -0.514407
     15          8           0        0.201569   -1.082310   -1.615801
     16          8           0        1.802665   -0.395051   -0.205632
     17          7           0       -7.080403    2.505887    0.420209
     18          6           0       -6.117203    3.344886    0.823801
     19          6           0       -6.452352    4.763416    0.961471
     20          6           0       -7.694745    4.820456    0.396230
     21          6           0       -8.161978    3.432531    0.114891
     22          6           0       -5.530258    5.935270    1.308454
     23          6           0       -8.525604    5.993613    0.144939
     24          6           0       -8.523097    7.157990    0.831382
     25          7           0       -9.081047    0.686079   -0.647146
     26          6           0       -9.813796    1.762107   -0.834628
     27          6           0      -11.133947    1.463340   -1.251206
     28          6           0      -11.186213    0.107788   -1.353911
     29          6           0       -9.774435   -0.421203   -0.979271
     30          6           0      -12.221491    2.590022   -1.566492
     31          6           0      -12.352293   -0.773167   -1.832940
     32          6           0      -12.373265   -0.955230   -3.450086
     33          7           0       -7.205703   -1.425296   -0.216653
     34          6           0       -8.225134   -2.205616   -0.561840
     35          6           0       -7.842862   -3.593453   -0.530851
     36          6           0       -6.509647   -3.587640   -0.154962
     37          6           0       -6.227322   -2.186634    0.062050
     38          6           0       -8.585402   -4.806387   -0.890239
     39          6           0       -5.343388   -4.400017    0.210575
     40          8           0       -5.170420   -5.603642    0.167179
     41          6           0       -4.174275   -3.253706    0.581469
     42          6           0       -3.571820   -3.641887    1.997353
     43          8           0       -3.740842   -3.152372    3.155642
     44          8           0       -2.752357   -4.647948    1.851190
     45          6           0       -2.159263   -5.196124    3.073920
     46          6           0        2.760733   -0.612449   -1.238952
     47          6           0        4.100374   -0.394122   -0.636128
     48          6           0        5.130588    0.332185   -1.041675
     49          6           0        5.261943    1.140081   -2.270687
     50          6           0        6.413293    0.226829   -0.232980
     51          6           0        7.592249   -0.372104   -0.984653
     52          6           0        8.904300   -0.273615   -0.175185
     53          6           0       10.209780   -0.526668   -1.001500
     54          6           0       10.177342   -1.993887   -1.383951
     55          6           0       11.322315   -0.315676   -0.064683
     56          6           0       12.801404   -0.374339   -0.674627
     57          6           0       13.910370    0.032364    0.211030
     58          6           0       15.298172   -0.270633   -0.397223
     59          6           0       15.580375   -1.646783   -0.689666
     60          6           0       16.314694    0.331438    0.453178
     61          6           0       17.722958    0.581112   -0.097581
     62          6           0       18.758511    1.365819    0.704611
     63          6           0       20.226099    1.489550    0.079577
     64          6           0       20.340694    2.249284   -1.097593
     65          6           0       21.254424    2.011728    1.102152
     66          1           0       -3.968043    3.416596    1.737491
     67          1           0       -9.851793    3.961634   -0.917368
     68          1           0      -10.171470   -2.382023   -1.238059
     69          1           0       -2.630642   -1.003162    2.225150
     70          1           0       -2.237681    1.551009    1.495984
     71          1           0       -2.162701    0.785387    3.739266
     72          1           0       -3.310447    2.344150    3.555280
     73          1           0       -4.058305    0.800583    3.798950
     74          1           0       -2.009870   -1.550572   -0.132439
     75          1           0       -2.134427    0.027704   -0.598288
     76          1           0        0.032457    0.392098    1.326136
     77          1           0       -0.056171   -1.276161    1.381330
     78          1           0       -5.962366    7.014184    1.029053
     79          1           0       -5.647949    6.102607    2.379212
     80          1           0       -4.349864    5.983252    1.150485
     81          1           0       -9.174272    5.835645   -0.764157
     82          1           0       -9.204819    7.936792    0.319215
     83          1           0       -7.978963    7.402087    1.857776
     84          1           0      -11.872123    3.208479   -2.336025
     85          1           0      -13.155332    2.146422   -1.691143
     86          1           0      -12.421091    3.183916   -0.638910
     87          1           0      -12.380440   -1.644189   -1.297422
     88          1           0      -13.395495   -0.330921   -1.578377
     89          1           0      -13.085760   -1.591023   -3.866992
     90          1           0      -12.636078   -0.000962   -3.996574
     91          1           0      -11.334377   -1.222987   -3.954407
     92          1           0       -8.920640   -4.740877   -1.951008
     93          1           0       -8.143884   -5.803422   -0.842535
     94          1           0       -9.667360   -4.943342   -0.400873
     95          1           0       -3.386046   -3.666087    0.040599
     96          1           0       -1.709447   -4.354313    3.633727
     97          1           0       -3.118327   -5.778485    3.675861
     98          1           0       -1.621042   -5.930354    2.589181
     99          1           0        2.645155   -1.486911   -1.831928
    100          1           0        2.401942    0.216518   -2.068637
    101          1           0        4.372843   -0.969426    0.240761
    102          1           0        4.162968    1.109929   -2.510799
    103          1           0        5.358706    2.295478   -2.208427
    104          1           0        5.980722    0.756924   -2.939899
    105          1           0        6.759498    1.202023    0.145382
    106          1           0        6.047588   -0.301066    0.756307
    107          1           0        7.488279   -1.375740   -1.413031
    108          1           0        7.640471    0.153749   -1.944401
    109          1           0        8.898284    0.816912    0.204473
    110          1           0        8.726154   -0.944732    0.572934
    111          1           0       10.362686   -0.087822   -1.904303
    112          1           0        9.264752   -2.207279   -2.026339
    113          1           0       11.171990   -2.300505   -1.907760
    114          1           0       10.093406   -2.657464   -0.490320
    115          1           0       11.231751    0.401557    0.398270
    116          1           0       10.944718   -1.110108    0.841950
    117          1           0       13.017506   -1.275334   -1.058278
    118          1           0       12.659008    0.273888   -1.666993
    119          1           0       13.527624    1.069239    0.622953
    120          1           0       13.885190   -0.768132    1.105270
    121          1           0       15.372241    0.434619   -1.291107
    122          1           0       15.518696   -2.169169    0.354696
    123          1           0       15.121240   -2.172739   -1.465432
    124          1           0       16.617814   -2.026782   -1.095029
    125          1           0       16.094825    1.273998    0.923714
    126          1           0       16.566221   -0.186973    1.477525
    127          1           0       18.337621   -0.514164   -0.567467
    128          1           0       17.554005    0.876620   -1.326458
    129          1           0       18.383150    2.323653    0.990487
    130          1           0       18.875838    0.837952    1.551112
    131          1           0       20.505816    0.461772   -0.040030
    132          1           0       20.030203    3.216105   -1.101087
    133          1           0       21.378697    2.266073   -1.661482
    134          1           0       19.574141    1.871909   -1.850566
    135          1           0       21.108487    1.310559    2.019170
    136          1           0       22.287463    2.084673    0.551549
    137          1           0       20.857630    2.848794    1.573764
 ---------------------------------------------------------------------

 SCF Done:  E(RCAM-B3LYP) =  -2932.55646560     A.U. after   15 cycles

 Excitation energies and oscillator strengths:

 Excited State   1:      Singlet-A      2.1992 eV  563.77 nm  f=0.2453  <S**2>=0.000
     240 -> 243       -0.23432
     241 -> 242        0.65139
 This state for optimization and/or second-order correction.
 Total Energy, E(TD-HF/TD-KS) =  -2932.47564648
 Copying the excited state density for this state as the 1-particle RhoCI density.

 The electronic state is 1-A.
 Alpha  occ. eigenvalues --  -46.84819 -19.26125 -19.25720 -19.20919 -19.20872
 Alpha  occ. eigenvalues --  -19.19161 -14.40653 -14.40538 -14.39636 -14.39217
 Alpha  occ. eigenvalues --  -10.38979 -10.38472 -10.35743 -10.32372 -10.32333
 Alpha  occ. eigenvalues --  -10.31649 -10.30577 -10.30565 -10.30054 -10.29414
 Alpha  occ. eigenvalues --  -10.29200 -10.28931 -10.28679 -10.28594 -10.28421
 Alpha  occ. eigenvalues --  -10.28401 -10.28363 -10.28359 -10.28258 -10.28177
 Alpha  occ. eigenvalues --  -10.28163 -10.27695 -10.27511 -10.27195 -10.26887
 Alpha  occ. eigenvalues --  -10.26828 -10.26820 -10.26657 -10.26607 -10.26563
 Alpha  occ. eigenvalues --  -10.26536 -10.26404 -10.26386 -10.26223 -10.26039
 Alpha  occ. eigenvalues --  -10.25964 -10.25712 -10.25685 -10.25666 -10.25541
 Alpha  occ. eigenvalues --  -10.25525 -10.25467 -10.25433 -10.25432 -10.25232
 Alpha  occ. eigenvalues --  -10.25172 -10.25021 -10.24998 -10.24990 -10.24955
 Alpha  occ. eigenvalues --  -10.24894 -10.24760 -10.24635 -10.23643 -10.23551
 Alpha  occ. eigenvalues --   -3.13967  -1.88655  -1.88238  -1.88135  -1.18196
 Alpha  occ. eigenvalues --   -1.18099  -1.11003  -1.09345  -1.07303  -1.05218
 Alpha  occ. eigenvalues --   -1.04142  -1.03603  -1.02746  -0.92336  -0.92328
 Alpha  occ. eigenvalues --   -0.91621  -0.90548  -0.90181  -0.89652  -0.89559
 Alpha  occ. eigenvalues --   -0.89055  -0.87992  -0.87463  -0.86692  -0.86189
 Alpha  occ. eigenvalues --   -0.85393  -0.84506  -0.83612  -0.83485  -0.82239
 Alpha  occ. eigenvalues --   -0.81768  -0.81545  -0.80708  -0.80044  -0.78238
 Alpha  occ. eigenvalues --   -0.77791  -0.76703  -0.76604  -0.76267  -0.76040
 Alpha  occ. eigenvalues --   -0.75892  -0.75532  -0.75519  -0.73096  -0.72646
 Alpha  occ. eigenvalues --   -0.71397  -0.70780  -0.70209  -0.69468  -0.68747
 Alpha  occ. eigenvalues --   -0.67716  -0.66432  -0.66193  -0.65085  -0.64898
 Alpha  occ. eigenvalues --   -0.64332  -0.64268  -0.63422  -0.63165  -0.62808
 Alpha  occ. eigenvalues --   -0.61394  -0.60750  -0.60359  -0.59602  -0.59238
 Alpha  occ. eigenvalues --   -0.59011  -0.58706  -0.57633  -0.56957  -0.56411
 Alpha  occ. eigenvalues --   -0.56190  -0.55998  -0.55669  -0.55312  -0.54718
 Alpha  occ. eigenvalues --   -0.54360  -0.54205  -0.53550  -0.53497  -0.53281
 Alpha  occ. eigenvalues --   -0.53030  -0.52905  -0.52488  -0.52136  -0.51758
 Alpha  occ. eigenvalues --   -0.51422  -0.51202  -0.51085  -0.50895  -0.50695
 Alpha  occ. eigenvalues --   -0.50370  -0.50013  -0.49891  -0.49631  -0.49276
 Alpha  occ. eigenvalues --   -0.48947  -0.48927  -0.48766  -0.48501  -0.48377
 Alpha  occ. eigenvalues --   -0.48117  -0.47821  -0.47466  -0.47369  -0.47079
 Alpha  occ. eigenvalues --   -0.46995  -0.46850  -0.46650  -0.46442  -0.46218
 Alpha  occ. eigenvalues --   -0.46010  -0.45744  -0.45322  -0.45051  -0.44921
 Alpha  occ. eigenvalues --   -0.44737  -0.44606  -0.44595  -0.44275  -0.44182
 Alpha  occ. eigenvalues --   -0.44112  -0.43812  -0.43462  -0.43388  -0.43248
 Alpha  occ. eigenvalues --   -0.43002  -0.42862  -0.42799  -0.42588  -0.42354
 Alpha  occ. eigenvalues --   -0.42139  -0.41931  -0.41694  -0.41435  -0.41357
 Alpha  occ. eigenvalues --   -0.41143  -0.40861  -0.40787  -0.40646  -0.40366
 Alpha  occ. eigenvalues --   -0.40269  -0.39902  -0.39602  -0.39450  -0.39329
 Alpha  occ. eigenvalues --   -0.39022  -0.38948  -0.38797  -0.38144  -0.37712
 Alpha  occ. eigenvalues --   -0.37356  -0.36904  -0.36529  -0.36367  -0.36234
 Alpha  occ. eigenvalues --   -0.36105  -0.35887  -0.35661  -0.35450  -0.34902
 Alpha  occ. eigenvalues --   -0.34859  -0.34772  -0.33843  -0.33759  -0.33132
 Alpha  occ. eigenvalues --   -0.32527  -0.32166  -0.32133  -0.30630  -0.30037
 Alpha  occ. eigenvalues --   -0.29994  -0.29624  -0.29194  -0.28391  -0.23352
 Alpha  occ. eigenvalues --   -0.21500
 Alpha virt. eigenvalues --   -0.05938  -0.02724   0.02080   0.03879   0.05464
 Alpha virt. eigenvalues --    0.06153   0.06340   0.06656   0.06681   0.07356
 Alpha virt. eigenvalues --    0.08709   0.11167   0.11454   0.11455   0.12076

 Mulliken charges:
               1
     1  Mg   0.848817
     2  C    0.114546
     3  C   -0.216479
     4  C   -0.159225
     5  C   -0.158861
     6  N   -0.691552
     7  C    0.301387
     8  C   -0.162600
     9  C   -0.117200
    10  C    0.379746
    11  C   -0.314725
    12  C   -0.158198
    13  C   -0.284543
    14  C    0.621047
    15  O   -0.469954
    16  O   -0.485841
    17  N   -0.721474
    18  C    0.305913
    19  C    0.065969
    20  C    0.009477
    21  C    0.265156
    22  C   -0.389631
    23  C   -0.073504
    24  C   -0.249148
    25  N   -0.660293
    26  C    0.286068
    27  C    0.017039
    28  C   -0.026790
    29  C    0.256030
    30  C   -0.354153
    31  C   -0.232973
    32  C   -0.318124
    33  N   -0.702200
    34  C    0.305967
    35  C    0.052118
    36  C   -0.002735
    37  C    0.288903
    38  C   -0.401959
    39  C    0.369252
    40  O   -0.452740
    41  C   -0.350236
    42  C    0.588057
    43  O   -0.530374
    44  O   -0.433369
    45  C   -0.068543
    46  C    0.006913
    47  C   -0.121679
    48  C    0.120588
    49  C   -0.358756
    50  C   -0.218833
    51  C   -0.195986
    52  C   -0.172490
    53  C   -0.074764
    54  C   -0.299322
    55  C   -0.079776
    56  C   -0.183920
    57  C   -0.168911
    58  C   -0.051388
    59  C   -0.305865
    60  C   -0.160496
    61  C   -0.146331
    62  C   -0.185456
    63  C   -0.052223
    64  C   -0.295647
    65  C   -0.304301
    66  H    0.077513
    67  H    0.084452
    68  H    0.095508
    69  H    0.128928
    70  H    0.101188
    71  H    0.084669
    72  H    0.103278
    73  H    0.116977
    74  H    0.131733
    75  H    0.127558
    76  H    0.093659
    77  H    0.157028
    78  H    0.111054
    79  H    0.131449
    80  H    0.122202
    81  H    0.101683
    82  H    0.103527
    83  H    0.117002
    84  H    0.128549
    85  H    0.120514
    86  H    0.113549
    87  H    0.113480
    88  H    0.094168
    89  H    0.113531
    90  H    0.102959
    91  H    0.094292
    92  H    0.125937
    93  H    0.154561
    94  H    0.104037
    95  H    0.165750
    96  H    0.146961
    97  H    0.112719
    98  H    0.140138
    99  H    0.146826
   100  H    0.097585
   101  H    0.091610
   102  H    0.100060
   103  H    0.107037
   104  H    0.131671
   105  H    0.098912
   106  H    0.069511
   107  H    0.097809
   108  H    0.088790
   109  H    0.077749
   110  H    0.115653
   111  H    0.092069
   112  H    0.087825
   113  H    0.085394
   114  H    0.095995
   115  H    0.070637
   116  H    0.032330
   117  H    0.109340
   118  H    0.062887
   119  H    0.090990
   120  H    0.075205
   121  H    0.087480
   122  H    0.094597
   123  H    0.116540
   124  H    0.100885
   125  H    0.102092
   126  H    0.069405
   127  H    0.026996
   128  H    0.047240
   129  H    0.094182
   130  H    0.109473
   131  H    0.097812
   132  H    0.112486
   133  H    0.080901
   134  H    0.087038
   135  H    0.076832
   136  H    0.099333
   137  H    0.110855
 Sum of Mulliken charges =   0.00000

 Dipole moment (field-independent basis, Debye):
    X=              0.1309    Y=              5.0737    Z=             -0.3172  Tot=              5.0853
 Quadrupole moment (field-independent basis, Debye-Ang):
   XX=           -355.3942   YY=           -382.8697   ZZ=           -399.3495
   XY=            -26.9316   XZ=             13.8989   YZ=              2.1324

 Normal termination of Gaussian 09 at Sun Jul  7 05:00:32 2019.
