 Gaussian 16, Revision A.03,
 Gaussian 16:  ES64L-G16RevA.03 25-Dec-2016

 ----------------------------------------------------------------------
 # td=(NStates=1) iop(3/107=0140000000,3/108=0140000000) CAM-B3LYP/6-31
 G(d,p)
 ----------------------------------------------------------------------

 --
 TD
 --
 Symbolic Z-matrix:
 Charge =  0 Multiplicity = 1

                         Standard orientation:
 ---------------------------------------------------------------------
 Center     Atomic      Atomic             Coordinates (Angstroms)
 Number     Number       Type             X           Y           Z
 ---------------------------------------------------------------------
      1         12           0       -7.141534    0.599366    0.191030
      2          6           0       -4.884215   -1.995477    0.495641
      3          6           0       -4.734654    2.769560    1.100878
      4          6           0       -9.409930    3.124530   -0.285972
      5          6           0       -9.632378   -1.569587   -0.787666
      6          7           0       -5.128644    0.356638    0.762224
      7          6           0       -4.383432   -0.762272    0.769825
      8          6           0       -2.947105   -0.531235    1.193099
      9          6           0       -2.908795    1.068875    1.612565
     10          6           0       -4.401326    1.483926    1.095640
     11          6           0       -2.824420    1.228321    3.101377
     12          6           0       -1.860623   -0.818933   -0.089553
     13          6           0       -0.376418   -0.618617    0.402555
     14          6           0        0.566580   -0.802375   -0.774527
     15          8           0        0.209477   -1.159247   -1.944238
     16          8           0        1.762266   -0.516882   -0.349267
     17          7           0       -7.100880    2.701268    0.168157
     18          6           0       -5.921109    3.291571    0.632798
     19          6           0       -6.392045    4.791516    0.811462
     20          6           0       -7.672547    4.845118    0.354675
     21          6           0       -8.099229    3.497199    0.006136
     22          6           0       -5.350227    5.827735    1.244554
     23          6           0       -8.527324    6.068701    0.125682
     24          6           0       -8.404156    7.283261    0.753111
     25          7           0       -9.142883    0.707857   -0.548289
     26          6           0       -9.858428    1.899737   -0.640411
     27          6           0      -11.217884    1.605502   -1.032877
     28          6           0      -11.237555    0.226442   -1.188760
     29          6           0       -9.993359   -0.248966   -0.903479
     30          6           0      -12.308351    2.536056   -1.146524
     31          6           0      -12.399314   -0.731416   -1.671386
     32          6           0      -12.221584   -1.022481   -3.145911
     33          7           0       -7.289662   -1.322703   -0.087216
     34          6           0       -8.405801   -2.160302   -0.387271
     35          6           0       -7.951064   -3.538270   -0.512307
     36          6           0       -6.537132   -3.508145   -0.152927
     37          6           0       -6.222455   -2.213475    0.127476
     38          6           0       -8.749717   -4.721355   -0.726745
     39          6           0       -5.366082   -4.384430    0.253060
     40          8           0       -5.215325   -5.577304    0.234515
     41          6           0       -4.205718   -3.300755    0.596006
     42          6           0       -3.515978   -3.767175    1.902622
     43          8           0       -3.826666   -3.156838    2.924722
     44          8           0       -2.629753   -4.739758    1.704604
     45          6           0       -1.968542   -5.068789    2.881951
     46          6           0        2.834122   -0.803850   -1.340741
     47          6           0        4.052555   -0.531462   -0.637384
     48          6           0        5.045959    0.220277   -1.065350
     49          6           0        4.902699    1.278823   -2.236177
     50          6           0        6.330210    0.440592   -0.262596
     51          6           0        7.579600   -0.244409   -0.956844
     52          6           0        8.945135   -0.058214   -0.121425
     53          6           0       10.177165   -0.608277   -0.821201
     54          6           0       10.124905   -2.098972   -1.268880
     55          6           0       11.418910   -0.447774    0.122206
     56          6           0       12.753696   -0.516982   -0.711598
     57          6           0       13.961768   -0.129619    0.181835
     58          6           0       15.406879   -0.236484   -0.439020
     59          6           0       15.703589   -1.719714   -0.797788
     60          6           0       16.426352    0.366068    0.437432
     61          6           0       17.801940    0.575329   -0.008595
     62          6           0       18.862091    1.283738    0.887543
     63          6           0       20.183382    1.573116    0.207636
     64          6           0       20.203217    2.373123   -1.085560
     65          6           0       21.243870    2.076109    1.179409
     66          1           0       -4.131208    3.444180    1.442378
     67          1           0      -10.006998    4.058237   -0.392150
     68          1           0      -10.250343   -2.352091   -1.275457
     69          1           0       -2.775355   -1.082926    2.120062
     70          1           0       -2.254430    1.621637    1.009087
     71          1           0       -1.909630    0.710313    3.469803
     72          1           0       -3.211486    2.252071    3.186206
     73          1           0       -3.493407    0.511490    3.305635
     74          1           0       -2.279622   -1.915943   -0.209734
     75          1           0       -2.302057   -0.268560   -0.955973
     76          1           0       -0.182148    0.474705    0.798042
     77          1           0       -0.283669   -1.156677    1.227163
     78          1           0       -5.201837    6.731297    0.604718
     79          1           0       -5.780293    5.890254    2.279825
     80          1           0       -4.294331    5.444655    1.143153
     81          1           0       -9.302139    5.801863   -0.511372
     82          1           0       -9.055082    8.227206    0.444323
     83          1           0       -7.529611    7.440342    1.522739
     84          1           0      -12.012973    3.161955   -1.842831
     85          1           0      -13.228000    2.198136   -1.497874
     86          1           0      -12.426155    3.141056   -0.233695
     87          1           0      -12.269008   -1.562211   -1.020964
     88          1           0      -13.516379   -0.539961   -1.453830
     89          1           0      -12.946270   -1.769489   -3.528545
     90          1           0      -12.303071   -0.010257   -3.603476
     91          1           0      -11.158576   -1.387756   -3.496661
     92          1           0       -8.990606   -4.720969   -1.926673
     93          1           0       -8.240126   -5.659786   -0.726721
     94          1           0       -9.574452   -4.836256    0.035984
     95          1           0       -3.431176   -3.660199   -0.260321
     96          1           0       -1.043810   -4.346772    3.131806
     97          1           0       -2.694813   -5.332608    3.543331
     98          1           0       -1.479914   -5.929755    2.630316
     99          1           0        2.696298   -1.754062   -1.694622
    100          1           0        2.571298   -0.185735   -2.043784
    101          1           0        4.129858   -1.389488    0.153849
    102          1           0        3.834171    1.085897   -2.601223
    103          1           0        5.304507    2.235610   -1.736906
    104          1           0        5.594260    0.964306   -3.001575
    105          1           0        6.700647    1.374965    0.027951
    106          1           0        6.369524   -0.054695    0.763805
    107          1           0        7.448005   -1.290055   -1.091189
    108          1           0        7.583782    0.142302   -1.927017
    109          1           0        9.426201    0.877762    0.312127
    110          1           0        8.955964   -0.491212    0.815132
    111          1           0       10.619309    0.064372   -1.894248
    112          1           0        9.302199   -2.279737   -2.035308
    113          1           0       10.952061   -2.550436   -1.726070
    114          1           0        9.822783   -2.646085   -0.448319
    115          1           0       11.395934    0.562281    0.747863
    116          1           0       11.482130   -1.127374    1.024788
    117          1           0       12.911346   -1.298807   -1.380394
    118          1           0       12.671982    0.193355   -1.536550
    119          1           0       13.968675    0.898508    0.694242
    120          1           0       14.068851   -0.649881    1.182273
    121          1           0       15.348942    0.490548   -1.300568
    122          1           0       15.953540   -2.405578    0.138752
    123          1           0       14.667700   -2.350217   -1.378178
    124          1           0       16.457221   -1.579629   -1.703852
    125          1           0       16.092187    1.323155    0.782763
    126          1           0       16.442150   -0.311198    1.376646
    127          1           0       18.180271   -0.470295   -0.269332
    128          1           0       17.849548    1.036905   -1.076899
    129          1           0       18.358853    2.174954    1.205090
    130          1           0       19.104362    0.689329    1.824363
    131          1           0       20.480549    0.682191   -0.039508
    132          1           0       19.884583    3.519139   -0.829016
    133          1           0       21.304601    2.374277   -1.271950
    134          1           0       19.575830    2.064954   -2.138493
    135          1           0       21.247367    1.629588    2.317359
    136          1           0       22.263432    2.327265    0.804150
    137          1           0       20.656572    2.999562    1.410165
 ---------------------------------------------------------------------

 SCF Done:  E(RCAM-B3LYP) =  -2933.40048150     A.U. after   16 cycles

 Excitation energies and oscillator strengths:

 Excited State   1:      Singlet-A      2.0826 eV  595.32 nm  f=0.2477  <S**2>=0.000
     240 -> 243       -0.24084
     241 -> 242        0.66085
 This state for optimization and/or second-order correction.
 Total Energy, E(TD-HF/TD-DFT) =  -2933.32394613
 Copying the excited state density for this state as the 1-particle RhoCI density.

 The electronic state is 1-A.
 Alpha  occ. eigenvalues --  -46.79401 -19.23650 -19.22833 -19.16486 -19.16364
 Alpha  occ. eigenvalues --  -19.16046 -14.37399 -14.35184 -14.34298 -14.33904
 Alpha  occ. eigenvalues --  -10.34814 -10.34584 -10.30787 -10.26513 -10.26012
 Alpha  occ. eigenvalues --  -10.25832 -10.25795 -10.25261 -10.24743 -10.24454
 Alpha  occ. eigenvalues --  -10.24300 -10.24279 -10.24233 -10.24167 -10.23893
 Alpha  occ. eigenvalues --  -10.23748 -10.23636 -10.23595 -10.23505 -10.23455
 Alpha  occ. eigenvalues --  -10.23412 -10.23157 -10.22999 -10.22927 -10.22792
 Alpha  occ. eigenvalues --  -10.22706 -10.22704 -10.22560 -10.22509 -10.22420
 Alpha  occ. eigenvalues --  -10.22220 -10.22201 -10.22188 -10.22110 -10.21996
 Alpha  occ. eigenvalues --  -10.21938 -10.21934 -10.21811 -10.21799 -10.21795
 Alpha  occ. eigenvalues --  -10.21647 -10.21456 -10.21403 -10.21276 -10.21195
 Alpha  occ. eigenvalues --  -10.21036 -10.20974 -10.20783 -10.20734 -10.20556
 Alpha  occ. eigenvalues --  -10.20525 -10.20372 -10.20159 -10.19822 -10.19329
 Alpha  occ. eigenvalues --   -3.08004  -1.82946  -1.82462  -1.82416  -1.15088
 Alpha  occ. eigenvalues --   -1.13856  -1.06723  -1.04725  -1.01704  -0.99206
 Alpha  occ. eigenvalues --   -0.98259  -0.97903  -0.95701  -0.87168  -0.86879
 Alpha  occ. eigenvalues --   -0.85862  -0.84712  -0.84628  -0.83944  -0.83533
 Alpha  occ. eigenvalues --   -0.83047  -0.82910  -0.82619  -0.81746  -0.81287
 Alpha  occ. eigenvalues --   -0.80002  -0.79343  -0.79111  -0.78591  -0.77574
 Alpha  occ. eigenvalues --   -0.77412  -0.76704  -0.75920  -0.75052  -0.73482
 Alpha  occ. eigenvalues --   -0.72722  -0.72486  -0.72207  -0.71798  -0.70721
 Alpha  occ. eigenvalues --   -0.70416  -0.70040  -0.69508  -0.68679  -0.67675
 Alpha  occ. eigenvalues --   -0.66933  -0.65927  -0.64731  -0.64205  -0.63545
 Alpha  occ. eigenvalues --   -0.62940  -0.62330  -0.61475  -0.61427  -0.60955
 Alpha  occ. eigenvalues --   -0.60588  -0.59949  -0.59189  -0.58623  -0.58465
 Alpha  occ. eigenvalues --   -0.57768  -0.57105  -0.57033  -0.55248  -0.54940
 Alpha  occ. eigenvalues --   -0.54839  -0.54176  -0.53918  -0.53190  -0.53033
 Alpha  occ. eigenvalues --   -0.52500  -0.52110  -0.51435  -0.51177  -0.50210
 Alpha  occ. eigenvalues --   -0.50135  -0.50000  -0.49720  -0.49406  -0.49178
 Alpha  occ. eigenvalues --   -0.48978  -0.48606  -0.48324  -0.48079  -0.47989
 Alpha  occ. eigenvalues --   -0.47886  -0.47424  -0.47383  -0.47065  -0.46836
 Alpha  occ. eigenvalues --   -0.46706  -0.46530  -0.46382  -0.46028  -0.45727
 Alpha  occ. eigenvalues --   -0.45610  -0.45546  -0.45197  -0.45113  -0.44893
 Alpha  occ. eigenvalues --   -0.44766  -0.44710  -0.44466  -0.44155  -0.43884
 Alpha  occ. eigenvalues --   -0.43079  -0.43034  -0.42921  -0.42791  -0.42563
 Alpha  occ. eigenvalues --   -0.42468  -0.42199  -0.42068  -0.41882  -0.41829
 Alpha  occ. eigenvalues --   -0.41626  -0.41432  -0.40933  -0.40749  -0.40590
 Alpha  occ. eigenvalues --   -0.40457  -0.40185  -0.40042  -0.40002  -0.39772
 Alpha  occ. eigenvalues --   -0.39596  -0.39415  -0.39343  -0.38920  -0.38847
 Alpha  occ. eigenvalues --   -0.38794  -0.38742  -0.38443  -0.38256  -0.38113
 Alpha  occ. eigenvalues --   -0.37567  -0.37440  -0.37219  -0.37038  -0.36841
 Alpha  occ. eigenvalues --   -0.36353  -0.36268  -0.36040  -0.35852  -0.35581
 Alpha  occ. eigenvalues --   -0.35259  -0.35049  -0.34945  -0.34644  -0.34536
 Alpha  occ. eigenvalues --   -0.34174  -0.33960  -0.33464  -0.33234  -0.32952
 Alpha  occ. eigenvalues --   -0.32896  -0.32680  -0.32528  -0.32270  -0.32097
 Alpha  occ. eigenvalues --   -0.31905  -0.31855  -0.30975  -0.30875  -0.30206
 Alpha  occ. eigenvalues --   -0.30085  -0.29715  -0.29054  -0.28585  -0.28183
 Alpha  occ. eigenvalues --   -0.26453  -0.25697  -0.25011  -0.24629  -0.21552
 Alpha  occ. eigenvalues --   -0.19924
 Alpha virt. eigenvalues --   -0.06872  -0.03530   0.00707   0.02424   0.03049
 Alpha virt. eigenvalues --    0.03585   0.03725   0.04385   0.05684   0.06476
 Alpha virt. eigenvalues --    0.06596   0.09041   0.09106   0.09255   0.09908

 Mulliken charges:
               1
     1  Mg   0.805527
     2  C    0.116129
     3  C   -0.111302
     4  C   -0.165870
     5  C   -0.202492
     6  N   -0.651221
     7  C    0.321204
     8  C   -0.208755
     9  C   -0.144481
    10  C    0.302248
    11  C   -0.291545
    12  C   -0.168365
    13  C   -0.254298
    14  C    0.617489
    15  O   -0.514716
    16  O   -0.451315
    17  N   -0.709916
    18  C    0.267595
    19  C   -0.041116
    20  C   -0.009543
    21  C    0.335604
    22  C   -0.363092
    23  C   -0.032597
    24  C   -0.263386
    25  N   -0.685783
    26  C    0.301881
    27  C    0.018188
    28  C   -0.003032
    29  C    0.372677
    30  C   -0.375118
    31  C   -0.230689
    32  C   -0.298543
    33  N   -0.746913
    34  C    0.273813
    35  C    0.003633
    36  C   -0.002743
    37  C    0.305489
    38  C   -0.391730
    39  C    0.371482
    40  O   -0.447886
    41  C   -0.360964
    42  C    0.637544
    43  O   -0.486708
    44  O   -0.417392
    45  C   -0.083702
    46  C    0.005414
    47  C   -0.100637
    48  C    0.085495
    49  C   -0.348301
    50  C   -0.240052
    51  C   -0.186133
    52  C   -0.197291
    53  C   -0.026010
    54  C   -0.313341
    55  C   -0.180568
    56  C   -0.170769
    57  C   -0.172105
    58  C   -0.055373
    59  C   -0.275636
    60  C   -0.155315
    61  C   -0.180719
    62  C   -0.170734
    63  C   -0.040862
    64  C   -0.289597
    65  C   -0.323471
    66  H    0.053073
    67  H    0.073363
    68  H    0.091376
    69  H    0.115310
    70  H    0.097266
    71  H    0.107076
    72  H    0.107338
    73  H    0.138818
    74  H    0.102473
    75  H    0.124798
    76  H    0.122339
    77  H    0.142045
    78  H    0.127743
    79  H    0.138354
    80  H    0.110544
    81  H    0.081099
    82  H    0.099389
    83  H    0.095125
    84  H    0.134836
    85  H    0.117500
    86  H    0.119123
    87  H    0.109777
    88  H    0.092889
    89  H    0.102116
    90  H    0.109207
    91  H    0.098208
    92  H    0.102399
    93  H    0.151032
    94  H    0.130128
    95  H    0.146065
    96  H    0.102642
    97  H    0.143794
    98  H    0.130147
    99  H    0.143641
   100  H    0.125391
   101  H    0.085920
   102  H    0.109678
   103  H    0.126438
   104  H    0.133519
   105  H    0.117943
   106  H    0.091140
   107  H    0.112904
   108  H    0.105991
   109  H    0.089643
   110  H    0.107229
   111  H    0.024968
   112  H    0.085967
   113  H    0.113178
   114  H    0.110962
   115  H    0.071179
   116  H    0.091386
   117  H    0.103768
   118  H    0.094086
   119  H    0.074217
   120  H    0.074489
   121  H    0.079070
   122  H    0.104565
   123  H    0.049099
   124  H    0.102066
   125  H    0.087890
   126  H    0.068705
   127  H    0.079592
   128  H    0.072803
   129  H    0.086988
   130  H    0.085546
   131  H    0.110665
   132  H    0.075481
   133  H    0.103520
   134  H    0.087714
   135  H    0.086429
   136  H    0.107421
   137  H    0.102128
 Sum of Mulliken charges =  -0.00000

 Dipole moment (field-independent basis, Debye):
    X=              3.6687    Y=              3.0025    Z=              0.9301  Tot=              4.8311
 Quadrupole moment (field-independent basis, Debye-Ang):
   XX=           -348.3670   YY=           -394.0798   ZZ=           -399.9206
   XY=            -18.4475   XZ=             10.3352   YZ=             -3.6199

 Normal termination of Gaussian 16 at Wed Sep 18 04:08:50 2019.
