 Gaussian 16, Revision A.03,
 Gaussian 16:  ES64L-G16RevA.03 25-Dec-2016

 ----------------------------------------------------------------------
 # td=(NStates=1) iop(3/107=0140000000,3/108=0140000000) CAM-B3LYP/6-31
 G(d,p)
 ----------------------------------------------------------------------

 --
 TD
 --
 Symbolic Z-matrix:
 Charge =  0 Multiplicity = 1

                         Standard orientation:
 ---------------------------------------------------------------------
 Center     Atomic      Atomic             Coordinates (Angstroms)
 Number     Number       Type             X           Y           Z
 ---------------------------------------------------------------------
      1         12           0       -7.162050    0.650698    0.101181
      2          6           0       -4.835454   -2.015220    0.411799
      3          6           0       -4.783104    2.773347    1.277695
      4          6           0       -9.348313    3.149171   -0.446276
      5          6           0       -9.433477   -1.697098   -0.904428
      6          7           0       -5.150937    0.438693    0.775557
      7          6           0       -4.418841   -0.787234    0.743042
      8          6           0       -2.913091   -0.478811    1.190330
      9          6           0       -3.012824    1.053356    1.727621
     10          6           0       -4.414990    1.428201    1.308326
     11          6           0       -3.035550    1.057034    3.266325
     12          6           0       -1.888581   -0.620166    0.063960
     13          6           0       -0.426615   -0.346976    0.383591
     14          6           0        0.544100   -0.470701   -0.696711
     15          8           0        0.176090   -0.988444   -1.853366
     16          8           0        1.778038   -0.099960   -0.268080
     17          7           0       -7.056633    2.615449    0.358819
     18          6           0       -6.020825    3.324331    0.861344
     19          6           0       -6.312195    4.749322    0.809777
     20          6           0       -7.604334    4.843999    0.393067
     21          6           0       -8.063981    3.584615   -0.014290
     22          6           0       -5.436423    5.829658    1.206721
     23          6           0       -8.383609    6.079633    0.153326
     24          6           0       -8.253077    7.239059    0.828348
     25          7           0       -9.051467    0.651845   -0.491005
     26          6           0       -9.748074    1.809605   -0.621975
     27          6           0      -11.050605    1.541693   -1.301374
     28          6           0      -11.215706    0.189266   -1.418264
     29          6           0       -9.840070   -0.367902   -0.994030
     30          6           0      -12.258395    2.489161   -1.417131
     31          6           0      -12.329401   -0.692044   -1.843515
     32          6           0      -12.202976   -1.217542   -3.208286
     33          7           0       -7.191917   -1.433344   -0.119540
     34          6           0       -8.333482   -2.213360   -0.515170
     35          6           0       -7.868681   -3.664174   -0.414552
     36          6           0       -6.528036   -3.568885   -0.000774
     37          6           0       -6.169286   -2.254911    0.158010
     38          6           0       -8.721958   -4.897503   -0.736922
     39          6           0       -5.338211   -4.382672    0.087582
     40          8           0       -5.089653   -5.557060    0.111053
     41          6           0       -4.198769   -3.342495    0.649451
     42          6           0       -3.573626   -3.692578    1.950939
     43          8           0       -3.823789   -3.202521    3.010361
     44          8           0       -2.772937   -4.774306    1.770020
     45          6           0       -2.361166   -5.357896    3.003139
     46          6           0        2.797158   -0.517059   -1.259407
     47          6           0        4.130931   -0.396615   -0.552551
     48          6           0        5.123327    0.456199   -0.866123
     49          6           0        5.003635    1.486088   -2.056397
     50          6           0        6.418526    0.501280   -0.157272
     51          6           0        7.671102    0.015991   -1.059832
     52          6           0        8.933052   -0.054735   -0.238538
     53          6           0       10.148218   -0.559628   -1.122279
     54          6           0        9.966221   -2.098566   -1.444584
     55          6           0       11.378387   -0.352106   -0.195841
     56          6           0       12.815650   -0.645092   -0.833271
     57          6           0       13.949547   -0.308839    0.161662
     58          6           0       15.242142   -0.256848   -0.463176
     59          6           0       15.757285   -1.697898   -1.083331
     60          6           0       16.262060    0.377487    0.439269
     61          6           0       17.771808    0.428466   -0.149532
     62          6           0       18.658936    1.254149    0.766391
     63          6           0       20.122316    1.299775    0.350136
     64          6           0       20.311011    2.270949   -0.896970
     65          6           0       21.086712    1.899053    1.569317
     66          1           0       -4.000802    3.415675    1.527477
     67          1           0      -10.193459    3.959278   -0.535271
     68          1           0      -10.339075   -2.309707   -1.323876
     69          1           0       -2.754193   -0.965400    2.178424
     70          1           0       -2.241776    1.599218    1.348848
     71          1           0       -1.950909    0.794477    3.624619
     72          1           0       -3.319177    2.101135    3.653324
     73          1           0       -3.523320    0.339991    3.837062
     74          1           0       -1.887112   -1.652027   -0.114758
     75          1           0       -2.124937    0.255888   -0.744256
     76          1           0       -0.157050    0.595531    0.858636
     77          1           0       -0.309680   -1.150350    1.272513
     78          1           0       -5.697422    6.924003    0.564689
     79          1           0       -5.606542    6.338626    2.248469
     80          1           0       -4.467385    5.591077    0.991596
     81          1           0       -9.262493    5.975684   -0.440494
     82          1           0       -8.927943    7.997496    0.521766
     83          1           0       -7.393224    7.488684    1.416064
     84          1           0      -12.353100    3.073409   -2.479391
     85          1           0      -13.327942    1.991062   -1.360458
     86          1           0      -12.196536    3.169611   -0.568262
     87          1           0      -12.121140   -1.571309   -1.250601
     88          1           0      -13.200185   -0.186474   -1.502801
     89          1           0      -13.191539   -1.845733   -3.429112
     90          1           0      -11.878630   -0.356141   -4.053503
     91          1           0      -11.395431   -2.050545   -3.273034
     92          1           0       -9.195858   -4.619035   -1.640665
     93          1           0       -8.151240   -5.903799   -0.639515
     94          1           0       -9.486213   -4.881590    0.181299
     95          1           0       -3.307738   -3.563170   -0.031238
     96          1           0       -1.815504   -4.544773    3.610969
     97          1           0       -3.325554   -5.581946    3.679758
     98          1           0       -1.681880   -6.262295    2.788109
     99          1           0        2.719468   -1.594844   -1.480644
    100          1           0        2.695860   -0.003888   -2.189678
    101          1           0        4.243369   -1.086782    0.330062
    102          1           0        3.811266    1.683380   -2.298522
    103          1           0        5.612469    2.297203   -1.884049
    104          1           0        5.321831    1.101514   -3.126867
    105          1           0        6.446337    1.567320    0.255104
    106          1           0        6.605817   -0.291233    0.682839
    107          1           0        7.387268   -0.974938   -1.430481
    108          1           0        7.856151    0.767679   -1.941028
    109          1           0        9.098770    1.112883    0.049549
    110          1           0        9.023443   -0.598614    0.725192
    111          1           0       10.235637   -0.020893   -1.951186
    112          1           0        9.345582   -2.364285   -2.233855
    113          1           0       10.912984   -2.434981   -1.927260
    114          1           0        9.885794   -2.587738   -0.433040
    115          1           0       11.371922    0.676077    0.339377
    116          1           0       11.331562   -1.103803    0.589177
    117          1           0       12.988984   -1.642475   -1.305230
    118          1           0       13.027719    0.032295   -1.756952
    119          1           0       13.752865    0.680729    0.719311
    120          1           0       14.101634   -1.175847    0.979032
    121          1           0       15.203282    0.289264   -1.495950
    122          1           0       15.967274   -2.470010   -0.233396
    123          1           0       14.976334   -2.099867   -1.836554
    124          1           0       16.719710   -1.606985   -1.823073
    125          1           0       15.942557    1.359465    1.050476
    126          1           0       16.359866   -0.261186    1.404113
    127          1           0       18.129792   -0.624195   -0.334400
    128          1           0       17.676190    0.749405   -1.177880
    129          1           0       18.317898    2.287993    0.987883
    130          1           0       18.622475    0.658967    1.618753
    131          1           0       20.475133    0.159177    0.246138
    132          1           0       20.165120    3.367167   -0.633026
    133          1           0       21.344858    2.304660   -1.093034
    134          1           0       19.712559    1.791141   -1.698980
    135          1           0       21.014135    1.151412    2.429446
    136          1           0       22.090336    1.899031    1.130891
    137          1           0       20.639633    3.048702    1.700264
 ---------------------------------------------------------------------

 SCF Done:  E(RCAM-B3LYP) =  -2933.53139131     A.U. after   16 cycles

 Excitation energies and oscillator strengths:

 Excited State   1:      Singlet-A      2.0779 eV  596.67 nm  f=0.2666  <S**2>=0.000
     240 -> 243       -0.22536
     241 -> 242        0.66013
 This state for optimization and/or second-order correction.
 Total Energy, E(TD-HF/TD-DFT) =  -2933.45502823
 Copying the excited state density for this state as the 1-particle RhoCI density.

 The electronic state is 1-A.
 Alpha  occ. eigenvalues --  -46.78912 -19.23684 -19.21755 -19.16466 -19.16356
 Alpha  occ. eigenvalues --  -19.16285 -14.37292 -14.35800 -14.34962 -14.34845
 Alpha  occ. eigenvalues --  -10.34992 -10.33847 -10.30543 -10.28024 -10.27568
 Alpha  occ. eigenvalues --  -10.26206 -10.25802 -10.25375 -10.25271 -10.25239
 Alpha  occ. eigenvalues --  -10.24939 -10.24916 -10.24829 -10.24071 -10.23945
 Alpha  occ. eigenvalues --  -10.23763 -10.23701 -10.23672 -10.23536 -10.23436
 Alpha  occ. eigenvalues --  -10.23435 -10.23267 -10.23172 -10.23112 -10.23086
 Alpha  occ. eigenvalues --  -10.22967 -10.22839 -10.22804 -10.22789 -10.22742
 Alpha  occ. eigenvalues --  -10.22387 -10.22331 -10.22327 -10.22310 -10.22243
 Alpha  occ. eigenvalues --  -10.22229 -10.22218 -10.22201 -10.21904 -10.21847
 Alpha  occ. eigenvalues --  -10.21846 -10.21793 -10.21779 -10.21744 -10.21715
 Alpha  occ. eigenvalues --  -10.21616 -10.21580 -10.21378 -10.21060 -10.20989
 Alpha  occ. eigenvalues --  -10.20890 -10.20741 -10.20689 -10.20400 -10.19746
 Alpha  occ. eigenvalues --   -3.07688  -1.82622  -1.82178  -1.82087  -1.13347
 Alpha  occ. eigenvalues --   -1.11875  -1.06947  -1.04905  -1.00062  -0.98546
 Alpha  occ. eigenvalues --   -0.97631  -0.97392  -0.96299  -0.88076  -0.85587
 Alpha  occ. eigenvalues --   -0.85089  -0.84706  -0.84510  -0.84090  -0.83632
 Alpha  occ. eigenvalues --   -0.83299  -0.82746  -0.82459  -0.81797  -0.81010
 Alpha  occ. eigenvalues --   -0.79552  -0.79166  -0.78657  -0.77922  -0.77307
 Alpha  occ. eigenvalues --   -0.76695  -0.76207  -0.75807  -0.74080  -0.73710
 Alpha  occ. eigenvalues --   -0.72885  -0.71537  -0.70973  -0.70414  -0.69997
 Alpha  occ. eigenvalues --   -0.69849  -0.69445  -0.68932  -0.68290  -0.67506
 Alpha  occ. eigenvalues --   -0.67053  -0.65980  -0.65087  -0.64741  -0.63838
 Alpha  occ. eigenvalues --   -0.62666  -0.61902  -0.61028  -0.60865  -0.60044
 Alpha  occ. eigenvalues --   -0.59674  -0.59647  -0.58618  -0.57631  -0.57549
 Alpha  occ. eigenvalues --   -0.56297  -0.56174  -0.55930  -0.55493  -0.55108
 Alpha  occ. eigenvalues --   -0.54818  -0.53998  -0.53514  -0.52767  -0.52576
 Alpha  occ. eigenvalues --   -0.51845  -0.51475  -0.51307  -0.51210  -0.50897
 Alpha  occ. eigenvalues --   -0.50598  -0.49912  -0.49800  -0.49532  -0.48970
 Alpha  occ. eigenvalues --   -0.48855  -0.48699  -0.48164  -0.47838  -0.47530
 Alpha  occ. eigenvalues --   -0.47239  -0.47104  -0.46927  -0.46754  -0.46472
 Alpha  occ. eigenvalues --   -0.46308  -0.46024  -0.45824  -0.45702  -0.45633
 Alpha  occ. eigenvalues --   -0.45256  -0.45002  -0.44850  -0.44641  -0.44455
 Alpha  occ. eigenvalues --   -0.44315  -0.43957  -0.43856  -0.43688  -0.43515
 Alpha  occ. eigenvalues --   -0.43265  -0.42884  -0.42813  -0.42621  -0.42463
 Alpha  occ. eigenvalues --   -0.42067  -0.41912  -0.41871  -0.41563  -0.41251
 Alpha  occ. eigenvalues --   -0.41170  -0.40897  -0.40769  -0.40574  -0.40553
 Alpha  occ. eigenvalues --   -0.40383  -0.40171  -0.40130  -0.40074  -0.39603
 Alpha  occ. eigenvalues --   -0.39597  -0.39451  -0.39261  -0.39123  -0.38475
 Alpha  occ. eigenvalues --   -0.38342  -0.38185  -0.38014  -0.37978  -0.37925
 Alpha  occ. eigenvalues --   -0.37586  -0.37525  -0.37483  -0.37180  -0.36940
 Alpha  occ. eigenvalues --   -0.36661  -0.36450  -0.36085  -0.36011  -0.35901
 Alpha  occ. eigenvalues --   -0.35820  -0.35460  -0.35330  -0.35000  -0.34704
 Alpha  occ. eigenvalues --   -0.34460  -0.33966  -0.33931  -0.33305  -0.33271
 Alpha  occ. eigenvalues --   -0.33040  -0.32824  -0.32619  -0.32552  -0.32377
 Alpha  occ. eigenvalues --   -0.32125  -0.31334  -0.31185  -0.30649  -0.30440
 Alpha  occ. eigenvalues --   -0.29948  -0.29618  -0.29290  -0.28475  -0.26878
 Alpha  occ. eigenvalues --   -0.26868  -0.26539  -0.26271  -0.25028  -0.22020
 Alpha  occ. eigenvalues --   -0.19916
 Alpha virt. eigenvalues --   -0.06982  -0.03811   0.00084   0.01332   0.02557
 Alpha virt. eigenvalues --    0.03764   0.04159   0.04956   0.05228   0.05902
 Alpha virt. eigenvalues --    0.06521   0.08413   0.08901   0.09454   0.09492

 Mulliken charges:
               1
     1  Mg   0.809926
     2  C    0.120933
     3  C   -0.186615
     4  C   -0.170104
     5  C   -0.198068
     6  N   -0.619093
     7  C    0.248092
     8  C   -0.180485
     9  C   -0.135588
    10  C    0.355145
    11  C   -0.325786
    12  C   -0.132553
    13  C   -0.273013
    14  C    0.630275
    15  O   -0.515683
    16  O   -0.455567
    17  N   -0.727528
    18  C    0.348579
    19  C    0.053223
    20  C    0.030440
    21  C    0.258501
    22  C   -0.386372
    23  C   -0.071894
    24  C   -0.231937
    25  N   -0.693069
    26  C    0.315282
    27  C   -0.002105
    28  C    0.050607
    29  C    0.254528
    30  C   -0.377322
    31  C   -0.217005
    32  C   -0.284333
    33  N   -0.732947
    34  C    0.314851
    35  C    0.010118
    36  C    0.020220
    37  C    0.328469
    38  C   -0.360097
    39  C    0.344080
    40  O   -0.437343
    41  C   -0.336298
    42  C    0.620855
    43  O   -0.469691
    44  O   -0.434239
    45  C   -0.081791
    46  C    0.003057
    47  C   -0.150504
    48  C    0.152457
    49  C   -0.356589
    50  C   -0.235622
    51  C   -0.176297
    52  C   -0.154184
    53  C   -0.055756
    54  C   -0.317846
    55  C   -0.172221
    56  C   -0.190590
    57  C   -0.143814
    58  C   -0.033069
    59  C   -0.316501
    60  C   -0.173776
    61  C   -0.191387
    62  C   -0.135541
    63  C   -0.075819
    64  C   -0.308694
    65  C   -0.304688
    66  H    0.066277
    67  H    0.094476
    68  H    0.069114
    69  H    0.121308
    70  H    0.102946
    71  H    0.081726
    72  H    0.102271
    73  H    0.146141
    74  H    0.127720
    75  H    0.100721
    76  H    0.124913
    77  H    0.118558
    78  H    0.080493
    79  H    0.121651
    80  H    0.121567
    81  H    0.083487
    82  H    0.098555
    83  H    0.094360
    84  H    0.100095
    85  H    0.102590
    86  H    0.124365
    87  H    0.114658
    88  H    0.110773
    89  H    0.092737
    90  H    0.092483
    91  H    0.102096
    92  H    0.136723
    93  H    0.147469
    94  H    0.121417
    95  H    0.142330
    96  H    0.116693
    97  H    0.118108
    98  H    0.122513
    99  H    0.135269
   100  H    0.129705
   101  H    0.088330
   102  H    0.096685
   103  H    0.122995
   104  H    0.110000
   105  H    0.098844
   106  H    0.091714
   107  H    0.108636
   108  H    0.085223
   109  H    0.064099
   110  H    0.090830
   111  H    0.089786
   112  H    0.114600
   113  H    0.097071
   114  H    0.101181
   115  H    0.083819
   116  H    0.094663
   117  H    0.098512
   118  H    0.073015
   119  H    0.086762
   120  H    0.070633
   121  H    0.072184
   122  H    0.095609
   123  H    0.095916
   124  H    0.086221
   125  H    0.075108
   126  H    0.073379
   127  H    0.093429
   128  H    0.091685
   129  H    0.086101
   130  H    0.097013
   131  H    0.062014
   132  H    0.096743
   133  H    0.107166
   134  H    0.107862
   135  H    0.099504
   136  H    0.108192
   137  H    0.077954
 Sum of Mulliken charges =  -0.00000

 Dipole moment (field-independent basis, Debye):
    X=              1.4331    Y=              2.9951    Z=              0.2396  Tot=              3.3290
 Quadrupole moment (field-independent basis, Debye-Ang):
   XX=           -335.0086   YY=           -393.0700   ZZ=           -401.3845
   XY=            -16.6318   XZ=              3.8656   YZ=             -2.5250

 Normal termination of Gaussian 16 at Sat Sep 14 14:21:02 2019.
