 Gaussian 09, Revision D.01,
 Gaussian 09:  ES64L-G09RevD.01 24-Apr-2013

 -------------------------------------
 # td=(NStates=1) CAM-B3LYP/6-31G(d,p)
 -------------------------------------

 --
 TD
 --
 Symbolic Z-matrix:
 Charge =  0 Multiplicity = 1

                         Standard orientation:
 ---------------------------------------------------------------------
 Center     Atomic      Atomic             Coordinates (Angstroms)
 Number     Number       Type             X           Y           Z
 ---------------------------------------------------------------------
      1         12           0       -7.244146    0.644252    0.064317
      2          6           0       -4.914630   -2.007013    0.593765
      3          6           0       -4.739319    2.787210    1.066407
      4          6           0       -9.399345    3.117804   -0.288563
      5          6           0       -9.506908   -1.689291   -0.817038
      6          7           0       -5.042880    0.441937    0.664556
      7          6           0       -4.295558   -0.727955    0.805939
      8          6           0       -2.837792   -0.408760    1.248101
      9          6           0       -2.961311    1.035312    1.536998
     10          6           0       -4.291096    1.511802    1.101906
     11          6           0       -2.929527    1.332769    3.134225
     12          6           0       -1.905492   -0.709234    0.080571
     13          6           0       -0.438707   -0.497167    0.569138
     14          6           0        0.521501   -0.692948   -0.678067
     15          8           0        0.052815   -0.983669   -1.794952
     16          8           0        1.723513   -0.499278   -0.235606
     17          7           0       -7.023430    2.636168    0.297883
     18          6           0       -6.017236    3.360732    0.717653
     19          6           0       -6.371121    4.780524    0.789078
     20          6           0       -7.725234    4.778058    0.417243
     21          6           0       -8.158525    3.490756    0.092270
     22          6           0       -5.441344    5.851112    1.170404
     23          6           0       -8.520756    5.976614    0.262679
     24          6           0       -8.313142    7.170068    0.875893
     25          7           0       -9.098182    0.714689   -0.456953
     26          6           0       -9.938846    1.840235   -0.563673
     27          6           0      -11.269400    1.490142   -1.017297
     28          6           0      -11.218907    0.093292   -1.217207
     29          6           0       -9.932802   -0.351266   -0.880730
     30          6           0      -12.318527    2.486207   -1.420428
     31          6           0      -12.390357   -0.733345   -1.727681
     32          6           0      -12.304329   -0.975053   -3.222290
     33          7           0       -7.183929   -1.414212   -0.174236
     34          6           0       -8.280652   -2.219418   -0.520473
     35          6           0       -7.840091   -3.625828   -0.471684
     36          6           0       -6.544232   -3.503493   -0.032344
     37          6           0       -6.213419   -2.190871    0.110684
     38          6           0       -8.609161   -4.885952   -0.808982
     39          6           0       -5.378806   -4.336368    0.207782
     40          8           0       -5.229080   -5.585937    0.164303
     41          6           0       -4.189113   -3.367179    0.657088
     42          6           0       -3.593654   -3.674113    1.869977
     43          8           0       -3.759066   -3.108836    2.938707
     44          8           0       -2.821116   -4.734594    1.779424
     45          6           0       -2.213992   -5.384361    2.985471
     46          6           0        2.809516   -0.480903   -1.267172
     47          6           0        4.138532   -0.254573   -0.631180
     48          6           0        5.180308    0.424186   -1.077763
     49          6           0        5.115466    1.105030   -2.438331
     50          6           0        6.508916    0.463756   -0.359357
     51          6           0        7.657251   -0.095023   -1.157763
     52          6           0        8.859790   -0.136278   -0.275945
     53          6           0       10.178026   -0.565796   -0.893015
     54          6           0       10.096528   -1.994166   -1.299422
     55          6           0       11.457870   -0.386277   -0.028384
     56          6           0       12.818907   -0.541480   -0.731723
     57          6           0       14.011522   -0.092214    0.133088
     58          6           0       15.380280   -0.242424   -0.484733
     59          6           0       15.680156   -1.674845   -0.769819
     60          6           0       16.362148    0.459540    0.466552
     61          6           0       17.855432    0.612460   -0.138507
     62          6           0       18.771339    1.248675    0.875204
     63          6           0       20.188542    1.277803    0.291837
     64          6           0       20.298806    2.149008   -0.927340
     65          6           0       21.115911    1.848038    1.333123
     66          1           0       -3.997942    3.539177    1.378516
     67          1           0      -10.011522    3.880752   -0.468210
     68          1           0       -9.942484   -2.500447   -1.216113
     69          1           0       -2.539543   -0.889793    2.195516
     70          1           0       -2.153520    1.612959    0.929550
     71          1           0       -1.902294    1.019391    3.477090
     72          1           0       -3.079556    2.440915    3.101146
     73          1           0       -3.616675    0.778148    3.670845
     74          1           0       -2.225287   -1.747792   -0.376578
     75          1           0       -2.142634    0.140514   -0.756361
     76          1           0       -0.271896    0.536829    1.091723
     77          1           0       -0.213303   -1.447009    1.275277
     78          1           0       -5.517369    6.702129    0.598486
     79          1           0       -5.363449    6.056699    2.256043
     80          1           0       -4.317811    5.506529    1.342434
     81          1           0       -9.287064    5.892865   -0.572479
     82          1           0       -9.032085    8.106636    0.453735
     83          1           0       -7.753150    7.360722    1.804690
     84          1           0      -12.081522    3.114341   -2.246939
     85          1           0      -13.276175    1.976486   -1.566556
     86          1           0      -12.637194    3.214065   -0.645360
     87          1           0      -12.245271   -1.779012   -1.206148
     88          1           0      -13.304756   -0.374672   -1.482577
     89          1           0      -13.113533   -1.562790   -3.432048
     90          1           0      -12.350484   -0.042964   -3.745657
     91          1           0      -11.195062   -1.601885   -3.656804
     92          1           0       -8.946274   -4.982322   -1.973660
     93          1           0       -7.777494   -5.628746   -0.462251
     94          1           0       -9.524976   -5.083039    0.014351
     95          1           0       -3.324429   -3.562851   -0.063585
     96          1           0       -2.111565   -4.542699    3.800248
     97          1           0       -3.035286   -5.831779    3.506686
     98          1           0       -1.325911   -5.931934    2.382123
     99          1           0        2.868294   -1.627506   -1.538830
    100          1           0        2.508117    0.099088   -2.156652
    101          1           0        4.342509   -0.679660    0.496120
    102          1           0        4.042955    1.177850   -2.926863
    103          1           0        5.444087    2.015840   -2.213962
    104          1           0        5.696733    0.798088   -3.258565
    105          1           0        6.811738    1.471746   -0.243616
    106          1           0        6.805420   -0.052177    0.498440
    107          1           0        7.480625   -1.214585   -1.260355
    108          1           0        7.665193    0.356391   -2.415699
    109          1           0        9.259207    0.997405    0.023041
    110          1           0        8.765625   -0.702545    0.597277
    111          1           0       10.253088    0.275210   -1.702538
    112          1           0        9.084128   -2.205810   -1.979374
    113          1           0       10.766155   -2.560669   -1.987640
    114          1           0       10.171712   -2.583029   -0.326976
    115          1           0       11.455174    0.474293    0.515009
    116          1           0       11.463038   -1.021685    0.955399
    117          1           0       12.950051   -1.593950   -1.083206
    118          1           0       12.688410    0.037840   -1.555228
    119          1           0       13.752621    0.978600    0.335265
    120          1           0       13.719153   -0.493024    1.276810
    121          1           0       15.393789    0.421402   -1.421005
    122          1           0       15.471063   -2.337754    0.138293
    123          1           0       14.967307   -1.975592   -1.581571
    124          1           0       16.697296   -1.976274   -1.149052
    125          1           0       16.035009    1.342928    0.895928
    126          1           0       16.412995   -0.024004    1.382405
    127          1           0       18.217434   -0.309164   -0.433089
    128          1           0       17.617529    1.469737   -0.777485
    129          1           0       18.405403    1.998188    1.158929
    130          1           0       18.670305    0.752156    1.814262
    131          1           0       20.401084    0.106835   -0.258641
    132          1           0       20.171226    3.344451   -0.554112
    133          1           0       21.231288    2.178422   -1.358889
    134          1           0       19.500030    2.149257   -1.856544
    135          1           0       21.045956    1.361854    2.362779
    136          1           0       22.270986    1.813115    1.148893
    137          1           0       20.726443    2.799471    1.651332
 ---------------------------------------------------------------------

 SCF Done:  E(RCAM-B3LYP) =  -2932.55074306     A.U. after   16 cycles

 Excitation energies and oscillator strengths:

 Excited State   1:      Singlet-A      2.1466 eV  577.59 nm  f=0.1859  <S**2>=0.000
     240 -> 242       -0.10209
     240 -> 243        0.28654
     241 -> 242        0.62683
 This state for optimization and/or second-order correction.
 Total Energy, E(TD-HF/TD-KS) =  -2932.47185715
 Copying the excited state density for this state as the 1-particle RhoCI density.

 The electronic state is 1-A.
 Alpha  occ. eigenvalues --  -46.83526 -19.27958 -19.24534 -19.20482 -19.20405
 Alpha  occ. eigenvalues --  -19.18579 -14.40359 -14.39104 -14.38862 -14.38341
 Alpha  occ. eigenvalues --  -10.39331 -10.36938 -10.35502 -10.34253 -10.32798
 Alpha  occ. eigenvalues --  -10.30796 -10.29777 -10.29432 -10.29213 -10.28902
 Alpha  occ. eigenvalues --  -10.28878 -10.28680 -10.28666 -10.28530 -10.28398
 Alpha  occ. eigenvalues --  -10.28202 -10.28188 -10.28154 -10.27753 -10.27651
 Alpha  occ. eigenvalues --  -10.27637 -10.27592 -10.27586 -10.27544 -10.27085
 Alpha  occ. eigenvalues --  -10.27055 -10.26886 -10.26684 -10.26571 -10.26516
 Alpha  occ. eigenvalues --  -10.26484 -10.26474 -10.26314 -10.26296 -10.26282
 Alpha  occ. eigenvalues --  -10.26272 -10.26229 -10.26194 -10.26112 -10.26087
 Alpha  occ. eigenvalues --  -10.26044 -10.25993 -10.25974 -10.25774 -10.25715
 Alpha  occ. eigenvalues --  -10.25700 -10.25587 -10.25397 -10.25016 -10.24798
 Alpha  occ. eigenvalues --  -10.24774 -10.24341 -10.23995 -10.23331 -10.22044
 Alpha  occ. eigenvalues --   -3.12668  -1.87361  -1.86923  -1.86842  -1.18994
 Alpha  occ. eigenvalues --   -1.17173  -1.08676  -1.08163  -1.06770  -1.05349
 Alpha  occ. eigenvalues --   -1.03583  -1.01954  -1.01007  -0.92920  -0.92316
 Alpha  occ. eigenvalues --   -0.91241  -0.90626  -0.89762  -0.89382  -0.89064
 Alpha  occ. eigenvalues --   -0.88664  -0.87902  -0.87478  -0.86965  -0.86835
 Alpha  occ. eigenvalues --   -0.85258  -0.84389  -0.83982  -0.83201  -0.82839
 Alpha  occ. eigenvalues --   -0.82081  -0.81654  -0.81084  -0.79615  -0.77898
 Alpha  occ. eigenvalues --   -0.77498  -0.77278  -0.76438  -0.76144  -0.75955
 Alpha  occ. eigenvalues --   -0.75152  -0.75010  -0.74544  -0.74044  -0.72208
 Alpha  occ. eigenvalues --   -0.71743  -0.70015  -0.69431  -0.69073  -0.67964
 Alpha  occ. eigenvalues --   -0.67002  -0.66776  -0.65537  -0.64828  -0.64584
 Alpha  occ. eigenvalues --   -0.63844  -0.63767  -0.63184  -0.62893  -0.62309
 Alpha  occ. eigenvalues --   -0.61614  -0.60865  -0.60422  -0.59556  -0.59217
 Alpha  occ. eigenvalues --   -0.58789  -0.57874  -0.57793  -0.56790  -0.56575
 Alpha  occ. eigenvalues --   -0.56061  -0.55658  -0.55455  -0.55226  -0.54655
 Alpha  occ. eigenvalues --   -0.54262  -0.54141  -0.53313  -0.53113  -0.52662
 Alpha  occ. eigenvalues --   -0.52259  -0.52111  -0.52047  -0.51951  -0.51720
 Alpha  occ. eigenvalues --   -0.51602  -0.51370  -0.50821  -0.50653  -0.50406
 Alpha  occ. eigenvalues --   -0.50251  -0.50030  -0.49916  -0.49797  -0.49559
 Alpha  occ. eigenvalues --   -0.49135  -0.48945  -0.48854  -0.48732  -0.48188
 Alpha  occ. eigenvalues --   -0.47983  -0.47701  -0.47549  -0.46942  -0.46913
 Alpha  occ. eigenvalues --   -0.46733  -0.46481  -0.46329  -0.46273  -0.45754
 Alpha  occ. eigenvalues --   -0.45589  -0.45454  -0.45291  -0.45060  -0.44711
 Alpha  occ. eigenvalues --   -0.44394  -0.44061  -0.43933  -0.43793  -0.43699
 Alpha  occ. eigenvalues --   -0.43638  -0.43571  -0.43365  -0.43083  -0.42995
 Alpha  occ. eigenvalues --   -0.42801  -0.42768  -0.42441  -0.42170  -0.42056
 Alpha  occ. eigenvalues --   -0.42003  -0.41939  -0.41707  -0.41284  -0.40763
 Alpha  occ. eigenvalues --   -0.40295  -0.40222  -0.40154  -0.39894  -0.39722
 Alpha  occ. eigenvalues --   -0.39628  -0.39369  -0.39203  -0.39149  -0.38648
 Alpha  occ. eigenvalues --   -0.38613  -0.38423  -0.38314  -0.37908  -0.37762
 Alpha  occ. eigenvalues --   -0.37418  -0.37145  -0.37047  -0.36520  -0.36479
 Alpha  occ. eigenvalues --   -0.36328  -0.35909  -0.35904  -0.35770  -0.35403
 Alpha  occ. eigenvalues --   -0.35344  -0.35147  -0.34360  -0.33587  -0.33122
 Alpha  occ. eigenvalues --   -0.32519  -0.32191  -0.31896  -0.30506  -0.30373
 Alpha  occ. eigenvalues --   -0.29813  -0.29731  -0.27975  -0.26752  -0.22535
 Alpha  occ. eigenvalues --   -0.21443
 Alpha virt. eigenvalues --   -0.06046  -0.03292   0.01957   0.04263   0.05912
 Alpha virt. eigenvalues --    0.06225   0.06840   0.07197   0.07270   0.07710
 Alpha virt. eigenvalues --    0.08892   0.10573   0.10846   0.11349   0.11720

 Mulliken charges:
               1
     1  Mg   0.845890
     2  C    0.048583
     3  C   -0.217161
     4  C   -0.155983
     5  C   -0.128153
     6  N   -0.621326
     7  C    0.267853
     8  C   -0.116357
     9  C   -0.177353
    10  C    0.388002
    11  C   -0.306787
    12  C   -0.154592
    13  C   -0.269070
    14  C    0.617383
    15  O   -0.495134
    16  O   -0.447559
    17  N   -0.737244
    18  C    0.333397
    19  C    0.052286
    20  C    0.000861
    21  C    0.322471
    22  C   -0.389777
    23  C   -0.079925
    24  C   -0.255362
    25  N   -0.733042
    26  C    0.276466
    27  C    0.031097
    28  C    0.022217
    29  C    0.294740
    30  C   -0.384673
    31  C   -0.231279
    32  C   -0.278512
    33  N   -0.737302
    34  C    0.194300
    35  C    0.052264
    36  C    0.018458
    37  C    0.356411
    38  C   -0.382233
    39  C    0.357380
    40  O   -0.482486
    41  C   -0.333206
    42  C    0.642937
    43  O   -0.508107
    44  O   -0.472106
    45  C   -0.098314
    46  C    0.001766
    47  C   -0.148381
    48  C    0.134352
    49  C   -0.369941
    50  C   -0.210191
    51  C   -0.162864
    52  C   -0.179942
    53  C   -0.053565
    54  C   -0.299920
    55  C   -0.191763
    56  C   -0.164957
    57  C   -0.178067
    58  C   -0.039923
    59  C   -0.308399
    60  C   -0.207021
    61  C   -0.185933
    62  C   -0.133773
    63  C   -0.029085
    64  C   -0.279819
    65  C   -0.315792
    66  H    0.059789
    67  H    0.065183
    68  H    0.079577
    69  H    0.131793
    70  H    0.095169
    71  H    0.098231
    72  H    0.105761
    73  H    0.142847
    74  H    0.111660
    75  H    0.098336
    76  H    0.127362
    77  H    0.118982
    78  H    0.138460
    79  H    0.123386
    80  H    0.095378
    81  H    0.097219
    82  H    0.077932
    83  H    0.120462
    84  H    0.134022
    85  H    0.109941
    86  H    0.115774
    87  H    0.092847
    88  H    0.114762
    89  H    0.115587
    90  H    0.116924
    91  H    0.059766
    92  H    0.123520
    93  H    0.155939
    94  H    0.111347
    95  H    0.161292
    96  H    0.138765
    97  H    0.152508
    98  H    0.144367
    99  H    0.132439
   100  H    0.147253
   101  H    0.088174
   102  H    0.091719
   103  H    0.131006
   104  H    0.131007
   105  H    0.110427
   106  H    0.111956
   107  H    0.103058
   108  H    0.055120
   109  H    0.060103
   110  H    0.110923
   111  H    0.075800
   112  H    0.071256
   113  H    0.108182
   114  H    0.098768
   115  H    0.091599
   116  H    0.059377
   117  H    0.092909
   118  H    0.103461
   119  H    0.088879
   120  H    0.061002
   121  H    0.083502
   122  H    0.100623
   123  H    0.103677
   124  H    0.099351
   125  H    0.086828
   126  H    0.086938
   127  H    0.101236
   128  H    0.107734
   129  H    0.084719
   130  H    0.080243
   131  H    0.045105
   132  H    0.048549
   133  H    0.118144
   134  H    0.086835
   135  H    0.090684
   136  H    0.095148
   137  H    0.114638
 Sum of Mulliken charges =   0.00000

 Dipole moment (field-independent basis, Debye):
    X=              3.0331    Y=              4.2201    Z=              0.3663  Tot=              5.2099
 Quadrupole moment (field-independent basis, Debye-Ang):
   XX=           -336.1188   YY=           -394.6225   ZZ=           -395.8557
   XY=            -15.8927   XZ=             16.0650   YZ=             -2.0173

 Normal termination of Gaussian 09 at Sat Jul  6 08:04:43 2019.
