 Gaussian 16, Revision A.03,
 Gaussian 16:  ES64L-G16RevA.03 25-Dec-2016

 -------------------------------------
 # td=(NStates=1) CAM-B3LYP/6-31G(d,p)
 -------------------------------------

 --
 TD
 --
 Symbolic Z-matrix:
 Charge =  0 Multiplicity = 1

                         Standard orientation:
 ---------------------------------------------------------------------
 Center     Atomic      Atomic             Coordinates (Angstroms)
 Number     Number       Type             X           Y           Z
 ---------------------------------------------------------------------
      1         12           0       -7.125681    0.597776    0.053162
      2          6           0       -4.881576   -2.002120    0.577297
      3          6           0       -4.825515    2.822736    1.148949
      4          6           0       -9.384310    3.114038   -0.420281
      5          6           0       -9.478138   -1.677535   -0.918973
      6          7           0       -5.064101    0.451229    0.740594
      7          6           0       -4.338160   -0.747406    0.854030
      8          6           0       -2.949390   -0.338675    1.265107
      9          6           0       -2.971263    1.061507    1.737652
     10          6           0       -4.333273    1.584833    1.149553
     11          6           0       -3.000303    1.196887    3.321565
     12          6           0       -1.906289   -0.588938    0.092767
     13          6           0       -0.463802   -0.431631    0.551085
     14          6           0        0.453804   -0.617461   -0.561479
     15          8           0        0.135434   -1.138728   -1.630502
     16          8           0        1.673271   -0.394394   -0.136312
     17          7           0       -7.136870    2.578821    0.356975
     18          6           0       -6.041353    3.367320    0.723336
     19          6           0       -6.349328    4.789125    0.796062
     20          6           0       -7.748021    4.892101    0.425917
     21          6           0       -8.178976    3.481008    0.027529
     22          6           0       -5.504991    5.886237    1.140282
     23          6           0       -8.444159    6.094376    0.209661
     24          6           0       -8.454294    7.241786    0.894012
     25          7           0       -9.021664    0.685086   -0.616136
     26          6           0       -9.785083    1.827968   -0.623219
     27          6           0      -11.145012    1.471180   -1.161898
     28          6           0      -11.145660    0.099318   -1.384950
     29          6           0       -9.805329   -0.379249   -1.064737
     30          6           0      -12.219685    2.422086   -1.480757
     31          6           0      -12.287679   -0.801672   -1.903958
     32          6           0      -12.024436   -1.378017   -3.293577
     33          7           0       -7.149448   -1.381603   -0.112122
     34          6           0       -8.268740   -2.193989   -0.521138
     35          6           0       -7.799774   -3.597047   -0.402859
     36          6           0       -6.604846   -3.547823    0.027362
     37          6           0       -6.111394   -2.236619    0.047325
     38          6           0       -8.739581   -4.808713   -0.772737
     39          6           0       -5.241244   -4.360384    0.161390
     40          8           0       -5.233544   -5.551482    0.206061
     41          6           0       -4.165825   -3.361723    0.564411
     42          6           0       -3.605329   -3.740073    1.901792
     43          8           0       -3.818495   -3.205008    2.939467
     44          8           0       -2.814231   -4.848692    1.679195
     45          6           0       -2.262855   -5.244185    2.975793
     46          6           0        2.824402   -0.678860   -1.152108
     47          6           0        4.044288   -0.320360   -0.449059
     48          6           0        5.061598    0.467950   -0.869276
     49          6           0        4.884900    1.504403   -2.097709
     50          6           0        6.387739    0.632477   -0.165664
     51          6           0        7.569263    0.013029   -1.031055
     52          6           0        8.859549   -0.000889   -0.235538
     53          6           0       10.119346   -0.484418   -0.928520
     54          6           0       10.029641   -1.900911   -1.355020
     55          6           0       11.325603   -0.146554   -0.097214
     56          6           0       12.752412   -0.497800   -0.780031
     57          6           0       13.916180   -0.139124    0.153195
     58          6           0       15.401325   -0.267961   -0.490563
     59          6           0       15.826873   -1.639982   -0.893769
     60          6           0       16.429050    0.426690    0.453723
     61          6           0       17.783157    0.581121   -0.146017
     62          6           0       18.813072    1.206044    0.758523
     63          6           0       20.223241    1.172764    0.182168
     64          6           0       20.330154    2.111774   -1.064836
     65          6           0       21.341792    1.597206    1.269496
     66          1           0       -3.993326    3.541842    1.519765
     67          1           0      -10.326237    3.840777   -0.556854
     68          1           0      -10.163568   -2.412381   -1.000276
     69          1           0       -2.622863   -1.107652    1.836507
     70          1           0       -2.030161    1.654187    1.318308
     71          1           0       -2.050041    0.482687    3.678319
     72          1           0       -2.858809    2.362844    3.581217
     73          1           0       -3.979095    0.770986    3.695383
     74          1           0       -2.060767   -1.742752   -0.366014
     75          1           0       -2.057060    0.052927   -0.725515
     76          1           0       -0.297502    0.575000    0.929870
     77          1           0       -0.222757   -1.193433    1.392693
     78          1           0       -6.038619    6.760989    0.511474
     79          1           0       -5.442325    6.027367    2.175650
     80          1           0       -4.522472    5.641001    0.795000
     81          1           0       -9.250793    6.067908   -0.482863
     82          1           0       -9.003576    8.092239    0.484169
     83          1           0       -7.949240    7.361740    1.949538
     84          1           0      -11.736664    3.292255   -2.204678
     85          1           0      -13.067867    1.843962   -1.970329
     86          1           0      -12.617596    2.943699   -0.524972
     87          1           0      -12.211364   -1.557941   -1.191723
     88          1           0      -13.140798   -0.136324   -2.053935
     89          1           0      -12.876365   -2.010198   -3.661363
     90          1           0      -11.780779   -0.639198   -4.223770
     91          1           0      -11.271383   -2.211165   -3.116265
     92          1           0       -8.942667   -4.720729   -1.923795
     93          1           0       -8.316950   -5.811139   -0.697254
     94          1           0       -9.665210   -4.909737   -0.419715
     95          1           0       -3.261656   -3.403926   -0.084251
     96          1           0       -1.807605   -4.484526    3.311243
     97          1           0       -2.996295   -5.604579    3.848053
     98          1           0       -1.821698   -6.007500    2.647854
     99          1           0        2.697750   -1.774865   -1.380493
    100          1           0        2.626144   -0.095046   -2.076954
    101          1           0        4.110824   -0.885511    0.393415
    102          1           0        3.732124    1.435725   -2.449604
    103          1           0        4.997976    2.509343   -1.739241
    104          1           0        5.651947    1.201049   -2.847087
    105          1           0        6.610975    1.756260   -0.260848
    106          1           0        6.324145    0.089595    0.780516
    107          1           0        7.192445   -1.074452   -1.256026
    108          1           0        7.689753    0.544581   -2.055810
    109          1           0        9.152159    1.119954    0.142260
    110          1           0        8.889542   -0.585653    0.794603
    111          1           0       10.281955    0.065628   -1.857173
    112          1           0        9.120368   -2.296308   -1.759692
    113          1           0       10.924538   -2.124877   -2.091084
    114          1           0       10.127184   -2.694500   -0.419659
    115          1           0       11.282169    0.968305    0.044159
    116          1           0       11.303505   -0.790597    0.853094
    117          1           0       12.676434   -1.604058   -1.023625
    118          1           0       12.637350    0.048502   -1.769007
    119          1           0       13.872225    0.730827    0.724294
    120          1           0       13.787567   -0.831935    0.996727
    121          1           0       15.281800    0.286226   -1.462501
    122          1           0       15.678932   -2.578571   -0.149840
    123          1           0       15.129239   -1.906565   -1.681608
    124          1           0       16.926935   -1.635676   -1.315910
    125          1           0       15.927429    1.387014    0.803586
    126          1           0       16.681918   -0.151854    1.539145
    127          1           0       18.316913   -0.482878   -0.335303
    128          1           0       17.573185    1.028966   -1.199519
    129          1           0       18.627522    2.244979    1.120716
    130          1           0       19.151751    0.795793    1.772785
    131          1           0       20.338243    0.117574   -0.113725
    132          1           0       20.028596    3.032646   -0.903117
    133          1           0       21.360951    2.115949   -1.437833
    134          1           0       19.964959    1.695326   -1.934542
    135          1           0       21.214869    0.795204    2.171012
    136          1           0       22.410548    1.401597    0.832932
    137          1           0       21.183845    2.766400    1.534840
 ---------------------------------------------------------------------

 SCF Done:  E(RCAM-B3LYP) =  -2932.65801840     A.U. after   16 cycles

 Excitation energies and oscillator strengths:

 Excited State   1:      Singlet-A      2.0221 eV  613.15 nm  f=0.2522  <S**2>=0.000
     240 -> 243       -0.25224
     241 -> 242        0.65333
 This state for optimization and/or second-order correction.
 Total Energy, E(TD-HF/TD-DFT) =  -2932.58370868
 Copying the excited state density for this state as the 1-particle RhoCI density.

 The electronic state is 1-A.
 Alpha  occ. eigenvalues --  -46.82286 -19.26418 -19.26014 -19.22384 -19.21334
 Alpha  occ. eigenvalues --  -19.19659 -14.40830 -14.39614 -14.38733 -14.38323
 Alpha  occ. eigenvalues --  -10.39338 -10.37997 -10.35981 -10.33054 -10.30771
 Alpha  occ. eigenvalues --  -10.30180 -10.29916 -10.29249 -10.29124 -10.29023
 Alpha  occ. eigenvalues --  -10.28834 -10.28824 -10.28640 -10.28594 -10.28429
 Alpha  occ. eigenvalues --  -10.28133 -10.28072 -10.27933 -10.27925 -10.27812
 Alpha  occ. eigenvalues --  -10.27764 -10.27614 -10.27594 -10.27560 -10.27186
 Alpha  occ. eigenvalues --  -10.27126 -10.27070 -10.26881 -10.26858 -10.26836
 Alpha  occ. eigenvalues --  -10.26808 -10.26777 -10.26670 -10.26566 -10.26457
 Alpha  occ. eigenvalues --  -10.26423 -10.26299 -10.26242 -10.26233 -10.26196
 Alpha  occ. eigenvalues --  -10.26144 -10.26085 -10.25864 -10.25855 -10.25769
 Alpha  occ. eigenvalues --  -10.25747 -10.25731 -10.25712 -10.25498 -10.25374
 Alpha  occ. eigenvalues --  -10.25303 -10.25291 -10.25085 -10.24209 -10.22194
 Alpha  occ. eigenvalues --   -3.11562  -1.86259  -1.85780  -1.85776  -1.18686
 Alpha  occ. eigenvalues --   -1.17283  -1.13040  -1.10748  -1.07493  -1.03111
 Alpha  occ. eigenvalues --   -1.01687  -1.01406  -1.00170  -0.92661  -0.91724
 Alpha  occ. eigenvalues --   -0.90706  -0.89948  -0.89681  -0.89460  -0.89018
 Alpha  occ. eigenvalues --   -0.87809  -0.87649  -0.87374  -0.86728  -0.86160
 Alpha  occ. eigenvalues --   -0.85116  -0.84345  -0.84051  -0.83243  -0.82789
 Alpha  occ. eigenvalues --   -0.82205  -0.81107  -0.80080  -0.79646  -0.77959
 Alpha  occ. eigenvalues --   -0.77609  -0.76991  -0.76060  -0.75993  -0.75780
 Alpha  occ. eigenvalues --   -0.75226  -0.74553  -0.73717  -0.73021  -0.72578
 Alpha  occ. eigenvalues --   -0.71019  -0.70037  -0.68961  -0.68788  -0.67614
 Alpha  occ. eigenvalues --   -0.66999  -0.66186  -0.65149  -0.64301  -0.64152
 Alpha  occ. eigenvalues --   -0.63795  -0.62677  -0.62582  -0.62500  -0.62128
 Alpha  occ. eigenvalues --   -0.61342  -0.60724  -0.59898  -0.59363  -0.58944
 Alpha  occ. eigenvalues --   -0.58726  -0.58091  -0.57758  -0.57279  -0.56567
 Alpha  occ. eigenvalues --   -0.56028  -0.55273  -0.55135  -0.54689  -0.54555
 Alpha  occ. eigenvalues --   -0.54363  -0.54064  -0.53895  -0.53495  -0.53208
 Alpha  occ. eigenvalues --   -0.52731  -0.52667  -0.52323  -0.52046  -0.51669
 Alpha  occ. eigenvalues --   -0.51193  -0.50973  -0.50895  -0.50722  -0.50499
 Alpha  occ. eigenvalues --   -0.50069  -0.49887  -0.49818  -0.49597  -0.49373
 Alpha  occ. eigenvalues --   -0.49072  -0.48909  -0.48641  -0.48485  -0.48286
 Alpha  occ. eigenvalues --   -0.48162  -0.48108  -0.47859  -0.47385  -0.47126
 Alpha  occ. eigenvalues --   -0.46449  -0.46099  -0.46042  -0.45674  -0.45553
 Alpha  occ. eigenvalues --   -0.45389  -0.45337  -0.45324  -0.45224  -0.44881
 Alpha  occ. eigenvalues --   -0.44654  -0.44435  -0.44362  -0.44200  -0.44033
 Alpha  occ. eigenvalues --   -0.43994  -0.43881  -0.43738  -0.43577  -0.43419
 Alpha  occ. eigenvalues --   -0.43010  -0.42806  -0.42691  -0.42402  -0.42123
 Alpha  occ. eigenvalues --   -0.41918  -0.41835  -0.41802  -0.41579  -0.41359
 Alpha  occ. eigenvalues --   -0.41137  -0.40835  -0.40748  -0.40045  -0.39979
 Alpha  occ. eigenvalues --   -0.39899  -0.39735  -0.39603  -0.39363  -0.39214
 Alpha  occ. eigenvalues --   -0.38860  -0.38465  -0.38407  -0.37804  -0.37555
 Alpha  occ. eigenvalues --   -0.37124  -0.37001  -0.36977  -0.36832  -0.36545
 Alpha  occ. eigenvalues --   -0.36498  -0.36390  -0.36206  -0.36081  -0.35878
 Alpha  occ. eigenvalues --   -0.35281  -0.34816  -0.34738  -0.34726  -0.33680
 Alpha  occ. eigenvalues --   -0.33106  -0.32735  -0.31845  -0.31352  -0.30347
 Alpha  occ. eigenvalues --   -0.29869  -0.29595  -0.27434  -0.26331  -0.23229
 Alpha  occ. eigenvalues --   -0.20301
 Alpha virt. eigenvalues --   -0.05714  -0.02965   0.02258   0.03947   0.04427
 Alpha virt. eigenvalues --    0.06270   0.06708   0.06997   0.07444   0.07916
 Alpha virt. eigenvalues --    0.08365   0.10734   0.11075   0.11129   0.11485

 Mulliken charges:
               1
     1  Mg   0.806314
     2  C    0.079956
     3  C   -0.214770
     4  C   -0.177185
     5  C   -0.146440
     6  N   -0.646291
     7  C    0.306198
     8  C   -0.114025
     9  C   -0.143481
    10  C    0.327696
    11  C   -0.277625
    12  C   -0.184576
    13  C   -0.262641
    14  C    0.620300
    15  O   -0.501825
    16  O   -0.488373
    17  N   -0.700164
    18  C    0.328651
    19  C    0.027456
    20  C    0.019233
    21  C    0.297049
    22  C   -0.368777
    23  C   -0.102564
    24  C   -0.252757
    25  N   -0.705022
    26  C    0.311177
    27  C    0.014101
    28  C    0.002184
    29  C    0.300876
    30  C   -0.376439
    31  C   -0.213184
    32  C   -0.300107
    33  N   -0.716401
    34  C    0.248638
    35  C   -0.002700
    36  C   -0.011738
    37  C    0.268203
    38  C   -0.378051
    39  C    0.402415
    40  O   -0.415257
    41  C   -0.332109
    42  C    0.640189
    43  O   -0.448370
    44  O   -0.478761
    45  C   -0.054806
    46  C   -0.009009
    47  C   -0.110260
    48  C    0.098270
    49  C   -0.356236
    50  C   -0.213395
    51  C   -0.181619
    52  C   -0.147924
    53  C   -0.049780
    54  C   -0.297354
    55  C   -0.172602
    56  C   -0.195982
    57  C   -0.179256
    58  C   -0.057711
    59  C   -0.295940
    60  C   -0.154094
    61  C   -0.159248
    62  C   -0.159837
    63  C   -0.070979
    64  C   -0.308896
    65  C   -0.300163
    66  H    0.071782
    67  H    0.098361
    68  H    0.074525
    69  H    0.101812
    70  H    0.089440
    71  H    0.086647
    72  H    0.096732
    73  H    0.134719
    74  H    0.089146
    75  H    0.122677
    76  H    0.129782
    77  H    0.129632
    78  H    0.115751
    79  H    0.133366
    80  H    0.114481
    81  H    0.095154
    82  H    0.105553
    83  H    0.102721
    84  H    0.102022
    85  H    0.107839
    86  H    0.116154
    87  H    0.123924
    88  H    0.101754
    89  H    0.098509
    90  H    0.100480
    91  H    0.097287
    92  H    0.104521
    93  H    0.140276
    94  H    0.133004
    95  H    0.169584
    96  H    0.132460
    97  H    0.108230
    98  H    0.126391
    99  H    0.142859
   100  H    0.130583
   101  H    0.091222
   102  H    0.095626
   103  H    0.131916
   104  H    0.124775
   105  H    0.105320
   106  H    0.113645
   107  H    0.092674
   108  H    0.094656
   109  H    0.063717
   110  H    0.081554
   111  H    0.085118
   112  H    0.112820
   113  H    0.090988
   114  H    0.063127
   115  H    0.090850
   116  H    0.080951
   117  H    0.101570
   118  H    0.080481
   119  H    0.098225
   120  H    0.094425
   121  H    0.088759
   122  H    0.082854
   123  H    0.102854
   124  H    0.094470
   125  H    0.085687
   126  H    0.060695
   127  H    0.079373
   128  H    0.092767
   129  H    0.080061
   130  H    0.083580
   131  H    0.081566
   132  H    0.110985
   133  H    0.085988
   134  H    0.106128
   135  H    0.083795
   136  H    0.099841
   137  H    0.094595
 Sum of Mulliken charges =  -0.00000

 Dipole moment (field-independent basis, Debye):
    X=              3.8281    Y=              3.4067    Z=              0.0660  Tot=              5.1248
 Quadrupole moment (field-independent basis, Debye-Ang):
   XX=           -359.3415   YY=           -392.2504   ZZ=           -398.7052
   XY=            -13.1915   XZ=              2.7432   YZ=             -4.1058

 Normal termination of Gaussian 16 at Wed Jun 26 22:11:29 2019.
