 Gaussian 09, Revision D.01,
 Gaussian 09:  ES64L-G09RevD.01 24-Apr-2013

 -------------------------------------
 # td=(NStates=1) CAM-B3LYP/6-31G(d,p)
 -------------------------------------

 --
 TD
 --
 Symbolic Z-matrix:
 Charge =  0 Multiplicity = 1

                         Standard orientation:
 ---------------------------------------------------------------------
 Center     Atomic      Atomic             Coordinates (Angstroms)
 Number     Number       Type             X           Y           Z
 ---------------------------------------------------------------------
      1         12           0       -7.144710    0.634453    0.106706
      2          6           0       -4.930776   -1.903782    0.537270
      3          6           0       -4.801882    2.847749    1.177601
      4          6           0       -9.429970    3.134032   -0.400384
      5          6           0       -9.648365   -1.767112   -0.759743
      6          7           0       -5.109219    0.578831    0.726004
      7          6           0       -4.415334   -0.676457    0.750529
      8          6           0       -3.009445   -0.415862    1.123179
      9          6           0       -2.984100    1.027998    1.604787
     10          6           0       -4.323877    1.566613    1.083931
     11          6           0       -2.919431    1.251874    3.076552
     12          6           0       -1.919587   -0.651951    0.010506
     13          6           0       -0.456382   -0.661054    0.460201
     14          6           0        0.489801   -0.739254   -0.720885
     15          8           0        0.217660   -1.017288   -1.872049
     16          8           0        1.776626   -0.636466   -0.256878
     17          7           0       -7.185612    2.674213    0.470677
     18          6           0       -6.069002    3.399712    0.801179
     19          6           0       -6.427381    4.817945    0.808789
     20          6           0       -7.762320    4.920400    0.285873
     21          6           0       -8.171621    3.509260    0.124895
     22          6           0       -5.479637    5.897366    1.209949
     23          6           0       -8.586170    6.112247    0.095227
     24          6           0       -8.461225    7.189832    0.809373
     25          7           0       -9.160418    0.631239   -0.664805
     26          6           0       -9.899243    1.847382   -0.690557
     27          6           0      -11.207778    1.451143   -1.117261
     28          6           0      -11.307843    0.123266   -1.181150
     29          6           0       -9.950539   -0.418327   -0.857078
     30          6           0      -12.346017    2.439938   -1.359801
     31          6           0      -12.371644   -0.826223   -1.673699
     32          6           0      -12.412960   -1.004263   -3.225005
     33          7           0       -7.264392   -1.349595   -0.209452
     34          6           0       -8.285851   -2.248065   -0.528783
     35          6           0       -7.889353   -3.545564   -0.375618
     36          6           0       -6.460468   -3.554700    0.020628
     37          6           0       -6.148917   -2.201429    0.117878
     38          6           0       -8.680332   -4.724877   -0.631796
     39          6           0       -5.308110   -4.353426    0.303967
     40          8           0       -5.194618   -5.546486    0.364491
     41          6           0       -4.156497   -3.287012    0.631076
     42          6           0       -3.441319   -3.641718    1.865144
     43          8           0       -3.725655   -3.104480    2.944546
     44          8           0       -2.604643   -4.639314    1.653201
     45          6           0       -2.152814   -5.123495    2.990594
     46          6           0        2.750141   -0.907713   -1.256174
     47          6           0        4.146370   -0.648116   -0.647083
     48          6           0        5.161252    0.103519   -1.154575
     49          6           0        5.024824    1.019448   -2.385197
     50          6           0        6.481345    0.024161   -0.227235
     51          6           0        7.709626   -0.306341   -1.026726
     52          6           0        8.862118   -0.179393   -0.047289
     53          6           0       10.157748   -0.507559   -0.968257
     54          6           0       10.211656   -1.912617   -1.336254
     55          6           0       11.471658   -0.276854   -0.106139
     56          6           0       12.752797   -0.403705   -0.785865
     57          6           0       13.898103    0.048987    0.061914
     58          6           0       15.370975   -0.107367   -0.510139
     59          6           0       15.852007   -1.495652   -0.887028
     60          6           0       16.406201    0.565461    0.401328
     61          6           0       17.848331    0.640051   -0.120189
     62          6           0       18.790060    1.309817    0.830989
     63          6           0       20.317449    1.377623    0.328451
     64          6           0       20.404658    2.354268   -0.908794
     65          6           0       21.202881    1.781894    1.521007
     66          1           0       -4.005495    3.762861    1.521533
     67          1           0      -10.240444    3.753464   -0.515875
     68          1           0      -10.183374   -2.774676   -0.999621
     69          1           0       -2.730277   -0.957424    2.005233
     70          1           0       -2.090692    1.692123    1.259817
     71          1           0       -1.917077    0.900805    3.347722
     72          1           0       -3.125949    2.362648    3.324572
     73          1           0       -3.520439    0.412222    3.644607
     74          1           0       -1.981028   -1.700269   -0.194086
     75          1           0       -2.043831    0.030313   -0.932415
     76          1           0       -0.230529    0.400995    1.034482
     77          1           0       -0.433368   -1.610420    1.038630
     78          1           0       -5.474501    6.755575    0.441135
     79          1           0       -5.761576    6.301838    2.348872
     80          1           0       -4.470154    5.582038    1.215660
     81          1           0       -9.153446    5.847628   -0.922820
     82          1           0       -8.982154    8.215172    0.567693
     83          1           0       -7.771866    7.065975    1.669758
     84          1           0      -12.173278    3.036354   -2.355139
     85          1           0      -13.106857    1.874047   -1.464477
     86          1           0      -12.707300    3.244624   -0.547186
     87          1           0      -12.351292   -1.793411   -1.084804
     88          1           0      -13.323688   -0.343427   -1.285149
     89          1           0      -13.176820   -1.615100   -3.657538
     90          1           0      -12.569695   -0.089869   -3.830331
     91          1           0      -11.519832   -1.566277   -3.526763
     92          1           0       -9.174265   -4.717616   -1.547022
     93          1           0       -8.100054   -5.506092   -0.479028
     94          1           0       -9.535626   -4.694397    0.311308
     95          1           0       -3.485177   -3.342269   -0.163038
     96          1           0       -1.780226   -4.320827    3.490822
     97          1           0       -3.162421   -5.511771    3.437527
     98          1           0       -1.332821   -5.906561    2.556201
     99          1           0        2.832059   -1.921327   -1.604484
    100          1           0        2.695857   -0.173571   -1.886521
    101          1           0        4.268017   -1.316139    0.120192
    102          1           0        3.994212    1.108786   -2.744894
    103          1           0        5.358069    1.976417   -2.219712
    104          1           0        5.644284    0.661579   -3.217942
    105          1           0        6.598878    1.013558    0.226033
    106          1           0        6.345701   -0.805549    0.526033
    107          1           0        7.572144   -1.376712   -1.473497
    108          1           0        7.703672    0.569135   -1.982405
    109          1           0        9.191967    0.852640    0.037794
    110          1           0        8.848349   -0.955806    0.895277
    111          1           0       10.363153   -0.032507   -1.990471
    112          1           0        9.238504   -2.245053   -1.866140
    113          1           0       10.869348   -2.097800   -2.093331
    114          1           0       10.176776   -2.466320   -0.422368
    115          1           0       11.175203    1.077208   -0.005868
    116          1           0       11.398217   -0.700800    0.817985
    117          1           0       13.247418   -1.423490   -1.119354
    118          1           0       12.595132    0.223706   -1.582946
    119          1           0       13.944383    0.931551    0.556323
    120          1           0       13.858209   -0.540432    1.098255
    121          1           0       15.329279    0.506739   -1.378412
    122          1           0       15.793219   -2.036499    0.251852
    123          1           0       15.229881   -2.193096   -1.590697
    124          1           0       16.865718   -1.646449   -1.268904
    125          1           0       16.160203    1.428047    0.894307
    126          1           0       16.377234   -0.076205    1.357722
    127          1           0       18.190870   -0.397919   -0.399803
    128          1           0       17.826944    1.082136   -1.093097
    129          1           0       18.655238    2.298621    0.848604
    130          1           0       18.747227    0.723051    1.881278
    131          1           0       20.585421    0.287080    0.038811
    132          1           0       19.869742    3.293502   -0.732319
    133          1           0       21.490064    2.454750   -1.177355
    134          1           0       19.935632    1.834810   -1.881262
    135          1           0       21.394744    1.204657    2.397051
    136          1           0       22.268461    1.739423    1.149526
    137          1           0       21.032295    2.913452    1.855855
 ---------------------------------------------------------------------

 SCF Done:  E(RCAM-B3LYP) =  -2932.58529437     A.U. after   18 cycles

 Excitation energies and oscillator strengths:

 Excited State   1:      Singlet-A      1.9481 eV  636.44 nm  f=0.2858  <S**2>=0.000
     240 -> 243       -0.22267
     241 -> 242        0.66850
 This state for optimization and/or second-order correction.
 Total Energy, E(TD-HF/TD-KS) =  -2932.51370289
 Copying the excited state density for this state as the 1-particle RhoCI density.

 The electronic state is 1-A.
 Alpha  occ. eigenvalues --  -46.84618 -19.27229 -19.25956 -19.21525 -19.20359
 Alpha  occ. eigenvalues --  -19.20024 -14.42039 -14.39761 -14.38951 -14.38431
 Alpha  occ. eigenvalues --  -10.39561 -10.38776 -10.34749 -10.32796 -10.30803
 Alpha  occ. eigenvalues --  -10.30733 -10.30365 -10.30212 -10.29561 -10.29459
 Alpha  occ. eigenvalues --  -10.29200 -10.29024 -10.28490 -10.28002 -10.27893
 Alpha  occ. eigenvalues --  -10.27817 -10.27817 -10.27793 -10.27790 -10.27782
 Alpha  occ. eigenvalues --  -10.27679 -10.27572 -10.27530 -10.27505 -10.27469
 Alpha  occ. eigenvalues --  -10.27372 -10.27333 -10.27104 -10.27090 -10.27069
 Alpha  occ. eigenvalues --  -10.26946 -10.26656 -10.26652 -10.26567 -10.26537
 Alpha  occ. eigenvalues --  -10.26526 -10.26445 -10.26225 -10.26080 -10.26058
 Alpha  occ. eigenvalues --  -10.25987 -10.25964 -10.25845 -10.25839 -10.25388
 Alpha  occ. eigenvalues --  -10.25374 -10.25199 -10.25012 -10.24798 -10.24738
 Alpha  occ. eigenvalues --  -10.24697 -10.24657 -10.24455 -10.24307 -10.22740
 Alpha  occ. eigenvalues --   -3.13463  -1.88189  -1.87723  -1.87599  -1.18835
 Alpha  occ. eigenvalues --   -1.18010  -1.11592  -1.09428  -1.08281  -1.04649
 Alpha  occ. eigenvalues --   -1.03660  -1.02722  -1.01113  -0.93073  -0.91420
 Alpha  occ. eigenvalues --   -0.90519  -0.90060  -0.89278  -0.89146  -0.88567
 Alpha  occ. eigenvalues --   -0.88160  -0.87782  -0.87417  -0.86854  -0.86502
 Alpha  occ. eigenvalues --   -0.85530  -0.84707  -0.83793  -0.83485  -0.82724
 Alpha  occ. eigenvalues --   -0.81504  -0.81116  -0.80924  -0.80668  -0.78467
 Alpha  occ. eigenvalues --   -0.77523  -0.76859  -0.76469  -0.76188  -0.75266
 Alpha  occ. eigenvalues --   -0.75211  -0.74976  -0.74187  -0.73205  -0.72767
 Alpha  occ. eigenvalues --   -0.71868  -0.70083  -0.69931  -0.68568  -0.68002
 Alpha  occ. eigenvalues --   -0.66831  -0.66070  -0.65582  -0.64863  -0.64042
 Alpha  occ. eigenvalues --   -0.63812  -0.63409  -0.62812  -0.62349  -0.61964
 Alpha  occ. eigenvalues --   -0.61922  -0.60724  -0.60045  -0.59643  -0.59167
 Alpha  occ. eigenvalues --   -0.58359  -0.58305  -0.57944  -0.57700  -0.56873
 Alpha  occ. eigenvalues --   -0.56234  -0.55890  -0.55580  -0.55330  -0.54989
 Alpha  occ. eigenvalues --   -0.54519  -0.54303  -0.53667  -0.53438  -0.53330
 Alpha  occ. eigenvalues --   -0.53112  -0.52904  -0.52300  -0.52179  -0.51701
 Alpha  occ. eigenvalues --   -0.51540  -0.51038  -0.50736  -0.50686  -0.50510
 Alpha  occ. eigenvalues --   -0.50441  -0.50101  -0.49743  -0.49587  -0.49495
 Alpha  occ. eigenvalues --   -0.49069  -0.48952  -0.48805  -0.48523  -0.48228
 Alpha  occ. eigenvalues --   -0.48082  -0.47801  -0.47641  -0.47140  -0.47073
 Alpha  occ. eigenvalues --   -0.46770  -0.46671  -0.46413  -0.46335  -0.45808
 Alpha  occ. eigenvalues --   -0.45678  -0.45581  -0.45302  -0.45225  -0.44881
 Alpha  occ. eigenvalues --   -0.44704  -0.44646  -0.44568  -0.44390  -0.44268
 Alpha  occ. eigenvalues --   -0.44225  -0.43868  -0.43757  -0.43429  -0.43202
 Alpha  occ. eigenvalues --   -0.42950  -0.42628  -0.42584  -0.42568  -0.42459
 Alpha  occ. eigenvalues --   -0.41898  -0.41834  -0.41538  -0.41410  -0.41088
 Alpha  occ. eigenvalues --   -0.40895  -0.40806  -0.40587  -0.40325  -0.40099
 Alpha  occ. eigenvalues --   -0.39953  -0.39523  -0.39109  -0.38865  -0.38694
 Alpha  occ. eigenvalues --   -0.38680  -0.38625  -0.38354  -0.38102  -0.37701
 Alpha  occ. eigenvalues --   -0.37403  -0.37396  -0.37211  -0.36996  -0.36781
 Alpha  occ. eigenvalues --   -0.36613  -0.36442  -0.36048  -0.35874  -0.35021
 Alpha  occ. eigenvalues --   -0.34941  -0.34177  -0.33915  -0.33570  -0.33481
 Alpha  occ. eigenvalues --   -0.32566  -0.32407  -0.31803  -0.31401  -0.29902
 Alpha  occ. eigenvalues --   -0.29497  -0.28656  -0.27646  -0.27582  -0.23132
 Alpha  occ. eigenvalues --   -0.21433
 Alpha virt. eigenvalues --   -0.07488  -0.02652   0.01184   0.04613   0.05457
 Alpha virt. eigenvalues --    0.06034   0.06604   0.06737   0.07128   0.07610
 Alpha virt. eigenvalues --    0.08534   0.09216   0.10502   0.11139   0.11186

 Mulliken charges:
               1
     1  Mg   0.811117
     2  C    0.102218
     3  C   -0.226379
     4  C   -0.161648
     5  C   -0.154329
     6  N   -0.642452
     7  C    0.280383
     8  C   -0.174509
     9  C   -0.139955
    10  C    0.382504
    11  C   -0.305481
    12  C   -0.168317
    13  C   -0.262054
    14  C    0.616452
    15  O   -0.463364
    16  O   -0.486464
    17  N   -0.708953
    18  C    0.321544
    19  C    0.011478
    20  C   -0.028478
    21  C    0.340656
    22  C   -0.370481
    23  C   -0.018019
    24  C   -0.271871
    25  N   -0.693620
    26  C    0.279724
    27  C    0.010001
    28  C    0.021873
    29  C    0.320215
    30  C   -0.352385
    31  C   -0.242356
    32  C   -0.311201
    33  N   -0.732922
    34  C    0.283570
    35  C   -0.020052
    36  C    0.047728
    37  C    0.242700
    38  C   -0.358613
    39  C    0.338592
    40  O   -0.457146
    41  C   -0.318487
    42  C    0.632338
    43  O   -0.513123
    44  O   -0.452380
    45  C   -0.086026
    46  C    0.059423
    47  C   -0.170367
    48  C    0.105552
    49  C   -0.382657
    50  C   -0.212106
    51  C   -0.152932
    52  C   -0.164075
    53  C   -0.098872
    54  C   -0.280942
    55  C   -0.144541
    56  C   -0.140938
    57  C   -0.175491
    58  C   -0.061011
    59  C   -0.298299
    60  C   -0.181676
    61  C   -0.176859
    62  C   -0.151670
    63  C   -0.066284
    64  C   -0.311347
    65  C   -0.307852
    66  H    0.066839
    67  H    0.087614
    68  H    0.104754
    69  H    0.123960
    70  H    0.090990
    71  H    0.107568
    72  H    0.112726
    73  H    0.116893
    74  H    0.111853
    75  H    0.114698
    76  H    0.110712
    77  H    0.142846
    78  H    0.124932
    79  H    0.101541
    80  H    0.118599
    81  H    0.093879
    82  H    0.107580
    83  H    0.108812
    84  H    0.105523
    85  H    0.120159
    86  H    0.101593
    87  H    0.109115
    88  H    0.094858
    89  H    0.109435
    90  H    0.111098
    91  H    0.113425
    92  H    0.131696
    93  H    0.147387
    94  H    0.087563
    95  H    0.163811
    96  H    0.155454
    97  H    0.149475
    98  H    0.119755
    99  H    0.128038
   100  H    0.101875
   101  H    0.086752
   102  H    0.121270
   103  H    0.127645
   104  H    0.123687
   105  H    0.107886
   106  H    0.097158
   107  H    0.101110
   108  H    0.059761
   109  H    0.116459
   110  H    0.096990
   111  H    0.079141
   112  H    0.066454
   113  H    0.110395
   114  H    0.093384
   115  H    0.007633
   116  H    0.096113
   117  H    0.096185
   118  H    0.102905
   119  H    0.101770
   120  H    0.051382
   121  H    0.089871
   122  H    0.065929
   123  H    0.089884
   124  H    0.113453
   125  H    0.098298
   126  H    0.068253
   127  H    0.084868
   128  H    0.093416
   129  H    0.099058
   130  H    0.075012
   131  H    0.076874
   132  H    0.111460
   133  H    0.106738
   134  H    0.091917
   135  H    0.115745
   136  H    0.087555
   137  H    0.081450
 Sum of Mulliken charges =   0.00000

 Dipole moment (field-independent basis, Debye):
    X=              2.2682    Y=              4.2086    Z=             -0.2093  Tot=              4.7855
 Quadrupole moment (field-independent basis, Debye-Ang):
   XX=           -342.6180   YY=           -391.4762   ZZ=           -397.8777
   XY=            -19.8489   XZ=              7.3069   YZ=             -2.8736

 Normal termination of Gaussian 09 at Tue Jul  2 12:50:37 2019.
