 Gaussian 09, Revision D.01,
 Gaussian 09:  ES64L-G09RevD.01 24-Apr-2013

 -------------------------------------
 # td=(NStates=1) CAM-B3LYP/6-31G(d,p)
 -------------------------------------

 --
 TD
 --
 Symbolic Z-matrix:
 Charge =  0 Multiplicity = 1

                         Standard orientation:
 ---------------------------------------------------------------------
 Center     Atomic      Atomic             Coordinates (Angstroms)
 Number     Number       Type             X           Y           Z
 ---------------------------------------------------------------------
      1         12           0       -7.170238    0.631086    0.092547
      2          6           0       -4.811317   -1.933176    0.413738
      3          6           0       -4.730630    2.761991    1.069863
      4          6           0       -9.448653    3.094797   -0.304303
      5          6           0       -9.501809   -1.732247   -0.834991
      6          7           0       -5.094599    0.463714    0.612988
      7          6           0       -4.322237   -0.665866    0.757716
      8          6           0       -2.896802   -0.398010    1.112631
      9          6           0       -2.999379    1.082420    1.614169
     10          6           0       -4.373061    1.521416    1.077574
     11          6           0       -2.973828    1.353602    3.115656
     12          6           0       -1.945773   -0.579974    0.022496
     13          6           0       -0.484273   -0.541555    0.546578
     14          6           0        0.493252   -0.899517   -0.428487
     15          8           0        0.189503   -1.529035   -1.626216
     16          8           0        1.753933   -0.492444   -0.209297
     17          7           0       -7.107533    2.616206    0.363343
     18          6           0       -5.950377    3.383354    0.635451
     19          6           0       -6.417728    4.812869    0.716953
     20          6           0       -7.783188    4.837158    0.417438
     21          6           0       -8.187581    3.412831    0.160431
     22          6           0       -5.438201    5.965637    1.042661
     23          6           0       -8.688369    5.983955    0.207167
     24          6           0       -8.443831    7.180541    0.741097
     25          7           0       -9.148906    0.690645   -0.557786
     26          6           0       -9.883087    1.818309   -0.693760
     27          6           0      -11.249497    1.454025   -1.140537
     28          6           0      -11.279012    0.118923   -1.251220
     29          6           0       -9.929275   -0.401949   -0.849256
     30          6           0      -12.317827    2.501886   -1.262503
     31          6           0      -12.404520   -0.698500   -1.750013
     32          6           0      -12.553314   -1.190659   -3.197663
     33          7           0       -7.170926   -1.417404   -0.173103
     34          6           0       -8.241121   -2.241488   -0.563073
     35          6           0       -7.861772   -3.602596   -0.494190
     36          6           0       -6.477593   -3.601684   -0.096727
     37          6           0       -6.179274   -2.196279    0.150438
     38          6           0       -8.737224   -4.826099   -0.742855
     39          6           0       -5.389293   -4.398849    0.280706
     40          8           0       -5.243498   -5.599953    0.292934
     41          6           0       -4.146348   -3.261711    0.575769
     42          6           0       -3.539264   -3.567183    1.901375
     43          8           0       -3.740935   -3.061698    2.972253
     44          8           0       -2.693208   -4.663141    1.839258
     45          6           0       -1.960879   -5.039052    3.006449
     46          6           0        2.778971   -0.687709   -1.255782
     47          6           0        4.138198   -0.457655   -0.578526
     48          6           0        5.088112    0.310362   -0.991486
     49          6           0        5.059767    1.159635   -2.274769
     50          6           0        6.451146    0.449208   -0.372826
     51          6           0        7.674637   -0.123498   -1.122299
     52          6           0        8.957226   -0.071465   -0.234214
     53          6           0       10.244116   -0.503276   -0.930951
     54          6           0       10.172477   -1.979171   -1.355207
     55          6           0       11.378730   -0.227662   -0.063279
     56          6           0       12.830545   -0.531356   -0.740104
     57          6           0       14.008008   -0.066892    0.189667
     58          6           0       15.438907   -0.215525   -0.321343
     59          6           0       15.696552   -1.668273   -0.826089
     60          6           0       16.475357    0.263963    0.634423
     61          6           0       17.837080    0.448367   -0.062019
     62          6           0       18.834761    1.254463    0.810960
     63          6           0       20.300014    1.484030    0.258890
     64          6           0       20.288723    2.131393   -1.171221
     65          6           0       21.190163    2.105568    1.219353
     66          1           0       -4.124090    3.568391    1.718243
     67          1           0      -10.004858    4.040282   -0.187057
     68          1           0      -10.221489   -2.363475   -1.330384
     69          1           0       -2.653820   -0.964333    2.028564
     70          1           0       -2.102730    1.541789    1.148591
     71          1           0       -2.069878    0.658248    3.468850
     72          1           0       -3.192702    2.328078    3.424743
     73          1           0       -3.863255    0.684713    3.517727
     74          1           0       -1.927377   -1.508205   -0.553762
     75          1           0       -1.810749    0.295265   -0.793859
     76          1           0        0.014316    0.410144    1.051445
     77          1           0       -0.418396   -1.198408    1.481356
     78          1           0       -5.343896    6.953147    0.283670
     79          1           0       -5.501014    6.171673    2.217671
     80          1           0       -4.436769    5.577620    0.934095
     81          1           0       -9.481260    5.924477   -0.477004
     82          1           0       -9.117623    8.004062    0.598030
     83          1           0       -7.788560    7.523971    1.570121
     84          1           0      -12.079843    3.026635   -2.125346
     85          1           0      -13.262416    1.944146   -1.437106
     86          1           0      -12.332522    3.027447   -0.392854
     87          1           0      -12.539912   -1.643935   -1.134229
     88          1           0      -13.240897   -0.223951   -1.720012
     89          1           0      -13.536102   -1.693107   -3.365538
     90          1           0      -12.479097   -0.316449   -3.812939
     91          1           0      -11.620258   -1.689154   -3.633551
     92          1           0       -9.451047   -4.561546   -1.705648
     93          1           0       -8.091299   -5.815576   -0.733775
     94          1           0       -9.312842   -4.942601    0.151949
     95          1           0       -3.496079   -3.374510   -0.334462
     96          1           0       -1.415341   -4.197642    3.445785
     97          1           0       -2.646179   -5.190323    3.988731
     98          1           0       -1.205241   -5.932327    2.770684
     99          1           0        2.656570   -1.680112   -1.527722
    100          1           0        2.626504   -0.133593   -2.281933
    101          1           0        4.246501   -0.909079    0.383678
    102          1           0        3.930648    1.221434   -2.728504
    103          1           0        5.338670    2.115544   -2.333217
    104          1           0        5.801819    0.822102   -2.972890
    105          1           0        6.642947    1.349836    0.139667
    106          1           0        6.262302   -0.140531    0.613145
    107          1           0        7.565492   -1.011089   -1.412316
    108          1           0        7.641965    0.512834   -2.079509
    109          1           0        9.206700    1.207844   -0.024609
    110          1           0        8.925560   -0.565496    0.672886
    111          1           0       10.268761    0.052553   -1.940024
    112          1           0        9.306998   -2.365885   -1.976524
    113          1           0       11.006275   -2.290615   -1.697607
    114          1           0       10.025228   -2.585298   -0.405699
    115          1           0       11.153247    0.960447    0.113222
    116          1           0       11.375338   -0.879067    0.921561
    117          1           0       13.003139   -1.590455   -0.989440
    118          1           0       12.909424    0.077188   -1.723534
    119          1           0       13.936387    0.972779    0.513052
    120          1           0       14.019570   -0.683045    1.145338
    121          1           0       15.302517    0.489807   -1.154300
    122          1           0       15.504072   -2.530130   -0.015915
    123          1           0       14.991229   -2.010503   -1.554466
    124          1           0       16.547072   -1.670325   -1.269912
    125          1           0       16.200352    1.247550    0.976338
    126          1           0       16.499511   -0.285490    1.512918
    127          1           0       18.418082   -0.506254   -0.125155
    128          1           0       17.785833    0.902026   -1.141208
    129          1           0       18.263471    2.224563    0.961203
    130          1           0       18.978363    0.532322    1.609410
    131          1           0       20.643667    0.566279   -0.018771
    132          1           0       19.748308    3.083208   -1.076957
    133          1           0       21.227959    2.410430   -1.602512
    134          1           0       19.648080    1.511718   -1.865941
    135          1           0       21.099290    1.718243    2.237549
    136          1           0       22.161436    1.902517    0.970155
    137          1           0       20.711768    3.125245    1.485957
 ---------------------------------------------------------------------

 SCF Done:  E(RCAM-B3LYP) =  -2932.64952887     A.U. after   16 cycles

 Excitation energies and oscillator strengths:

 Excited State   1:      Singlet-A      2.0172 eV  614.64 nm  f=0.3039  <S**2>=0.000
     240 -> 242       -0.13585
     240 -> 243       -0.22148
     241 -> 242        0.64884
 This state for optimization and/or second-order correction.
 Total Energy, E(TD-HF/TD-KS) =  -2932.57539855
 Copying the excited state density for this state as the 1-particle RhoCI density.

 The electronic state is 1-A.
 Alpha  occ. eigenvalues --  -46.84689 -19.27576 -19.24484 -19.20357 -19.20081
 Alpha  occ. eigenvalues --  -19.19276 -14.41485 -14.40285 -14.40069 -14.39290
 Alpha  occ. eigenvalues --  -10.40025 -10.38643 -10.34802 -10.32674 -10.31898
 Alpha  occ. eigenvalues --  -10.31796 -10.30553 -10.29937 -10.29733 -10.29690
 Alpha  occ. eigenvalues --  -10.29427 -10.29126 -10.29050 -10.28993 -10.28761
 Alpha  occ. eigenvalues --  -10.28565 -10.28561 -10.28116 -10.28034 -10.28010
 Alpha  occ. eigenvalues --  -10.27881 -10.27840 -10.27729 -10.27708 -10.27559
 Alpha  occ. eigenvalues --  -10.27483 -10.27452 -10.27267 -10.27182 -10.27037
 Alpha  occ. eigenvalues --  -10.26873 -10.26486 -10.26453 -10.26441 -10.26191
 Alpha  occ. eigenvalues --  -10.26082 -10.26061 -10.25946 -10.25879 -10.25816
 Alpha  occ. eigenvalues --  -10.25700 -10.25595 -10.25558 -10.25299 -10.25225
 Alpha  occ. eigenvalues --  -10.25172 -10.25159 -10.24995 -10.24833 -10.24723
 Alpha  occ. eigenvalues --  -10.24219 -10.24169 -10.23774 -10.23747 -10.23595
 Alpha  occ. eigenvalues --   -3.13681  -1.88398  -1.87910  -1.87860  -1.16729
 Alpha  occ. eigenvalues --   -1.16678  -1.10742  -1.07944  -1.04676  -1.03712
 Alpha  occ. eigenvalues --   -1.03440  -1.02028  -1.01328  -0.92164  -0.91860
 Alpha  occ. eigenvalues --   -0.91136  -0.90775  -0.90216  -0.89637  -0.89271
 Alpha  occ. eigenvalues --   -0.88713  -0.88555  -0.88003  -0.87260  -0.86713
 Alpha  occ. eigenvalues --   -0.85172  -0.84667  -0.84052  -0.83469  -0.82987
 Alpha  occ. eigenvalues --   -0.81896  -0.80750  -0.80161  -0.79680  -0.78742
 Alpha  occ. eigenvalues --   -0.78434  -0.77144  -0.76934  -0.76473  -0.76134
 Alpha  occ. eigenvalues --   -0.75716  -0.75283  -0.74760  -0.73886  -0.72691
 Alpha  occ. eigenvalues --   -0.71558  -0.71291  -0.70235  -0.69897  -0.68434
 Alpha  occ. eigenvalues --   -0.67529  -0.67338  -0.66232  -0.65353  -0.64827
 Alpha  occ. eigenvalues --   -0.63688  -0.63404  -0.62932  -0.62237  -0.61842
 Alpha  occ. eigenvalues --   -0.61664  -0.60986  -0.60436  -0.60270  -0.59416
 Alpha  occ. eigenvalues --   -0.58697  -0.58599  -0.57898  -0.57197  -0.56704
 Alpha  occ. eigenvalues --   -0.56301  -0.55285  -0.55232  -0.54838  -0.54756
 Alpha  occ. eigenvalues --   -0.54414  -0.53931  -0.53712  -0.53382  -0.52831
 Alpha  occ. eigenvalues --   -0.52614  -0.52462  -0.52385  -0.52305  -0.52214
 Alpha  occ. eigenvalues --   -0.51238  -0.51227  -0.51173  -0.51050  -0.50663
 Alpha  occ. eigenvalues --   -0.50601  -0.50346  -0.50177  -0.50069  -0.49988
 Alpha  occ. eigenvalues --   -0.49424  -0.49301  -0.49015  -0.48888  -0.48425
 Alpha  occ. eigenvalues --   -0.48068  -0.47765  -0.47613  -0.47321  -0.47181
 Alpha  occ. eigenvalues --   -0.47062  -0.46884  -0.46774  -0.46573  -0.46072
 Alpha  occ. eigenvalues --   -0.45892  -0.45751  -0.45427  -0.45054  -0.45044
 Alpha  occ. eigenvalues --   -0.44980  -0.44746  -0.44608  -0.44420  -0.44357
 Alpha  occ. eigenvalues --   -0.44176  -0.43827  -0.43634  -0.43492  -0.43402
 Alpha  occ. eigenvalues --   -0.43213  -0.43070  -0.42760  -0.42594  -0.42280
 Alpha  occ. eigenvalues --   -0.42039  -0.41882  -0.41447  -0.41370  -0.41272
 Alpha  occ. eigenvalues --   -0.40907  -0.40788  -0.40574  -0.40412  -0.40157
 Alpha  occ. eigenvalues --   -0.39919  -0.39890  -0.39625  -0.39530  -0.39027
 Alpha  occ. eigenvalues --   -0.38589  -0.38319  -0.38050  -0.37483  -0.37430
 Alpha  occ. eigenvalues --   -0.37316  -0.36976  -0.36782  -0.36753  -0.36470
 Alpha  occ. eigenvalues --   -0.36107  -0.36098  -0.35844  -0.35626  -0.35565
 Alpha  occ. eigenvalues --   -0.35294  -0.34024  -0.33862  -0.33771  -0.33564
 Alpha  occ. eigenvalues --   -0.33235  -0.32462  -0.31999  -0.31409  -0.30752
 Alpha  occ. eigenvalues --   -0.29562  -0.29302  -0.28860  -0.27906  -0.23360
 Alpha  occ. eigenvalues --   -0.21656
 Alpha virt. eigenvalues --   -0.07278  -0.02868   0.01564   0.02753   0.03917
 Alpha virt. eigenvalues --    0.05843   0.06182   0.06481   0.06822   0.07771
 Alpha virt. eigenvalues --    0.08299   0.10236   0.10358   0.11187   0.11276

 Mulliken charges:
               1
     1  Mg   0.821437
     2  C    0.029918
     3  C   -0.231427
     4  C   -0.148437
     5  C   -0.161408
     6  N   -0.636831
     7  C    0.306344
     8  C   -0.159608
     9  C   -0.144447
    10  C    0.402990
    11  C   -0.307329
    12  C   -0.169963
    13  C   -0.290946
    14  C    0.615476
    15  O   -0.552859
    16  O   -0.473993
    17  N   -0.726194
    18  C    0.271574
    19  C    0.000738
    20  C    0.012682
    21  C    0.317253
    22  C   -0.364178
    23  C   -0.089104
    24  C   -0.241720
    25  N   -0.686118
    26  C    0.291320
    27  C   -0.008105
    28  C    0.025902
    29  C    0.275992
    30  C   -0.345637
    31  C   -0.236554
    32  C   -0.319968
    33  N   -0.701569
    34  C    0.274455
    35  C    0.033799
    36  C    0.004718
    37  C    0.302796
    38  C   -0.368795
    39  C    0.338967
    40  O   -0.450576
    41  C   -0.337703
    42  C    0.625770
    43  O   -0.474970
    44  O   -0.460543
    45  C   -0.072477
    46  C    0.023734
    47  C   -0.144723
    48  C    0.144995
    49  C   -0.365969
    50  C   -0.245061
    51  C   -0.149251
    52  C   -0.148048
    53  C   -0.057762
    54  C   -0.310602
    55  C   -0.148069
    56  C   -0.190311
    57  C   -0.175680
    58  C   -0.064523
    59  C   -0.303861
    60  C   -0.159035
    61  C   -0.193414
    62  C   -0.180598
    63  C   -0.055993
    64  C   -0.320427
    65  C   -0.298786
    66  H    0.081236
    67  H    0.093997
    68  H    0.098744
    69  H    0.131033
    70  H    0.104235
    71  H    0.097662
    72  H    0.129309
    73  H    0.110108
    74  H    0.161775
    75  H    0.111669
    76  H    0.132067
    77  H    0.143806
    78  H    0.110290
    79  H    0.111538
    80  H    0.121350
    81  H    0.111360
    82  H    0.095762
    83  H    0.113267
    84  H    0.134560
    85  H    0.106947
    86  H    0.134429
    87  H    0.094461
    88  H    0.110802
    89  H    0.111500
    90  H    0.108883
    91  H    0.097392
    92  H    0.105237
    93  H    0.145053
    94  H    0.146700
    95  H    0.166929
    96  H    0.112418
    97  H    0.107954
    98  H    0.118682
    99  H    0.150073
   100  H    0.124850
   101  H    0.096051
   102  H    0.077750
   103  H    0.130175
   104  H    0.118208
   105  H    0.119935
   106  H    0.066909
   107  H    0.114770
   108  H    0.084121
   109  H    0.033555
   110  H    0.107788
   111  H    0.080831
   112  H    0.095982
   113  H    0.114525
   114  H    0.078365
   115  H    0.075609
   116  H    0.084192
   117  H    0.105898
   118  H    0.081308
   119  H    0.086568
   120  H    0.067770
   121  H    0.083487
   122  H    0.076541
   123  H    0.099323
   124  H    0.114499
   125  H    0.089106
   126  H    0.101083
   127  H    0.088370
   128  H    0.081059
   129  H    0.081086
   130  H    0.097626
   131  H    0.092603
   132  H    0.092256
   133  H    0.103275
   134  H    0.095890
   135  H    0.097801
   136  H    0.110405
   137  H    0.091907
 Sum of Mulliken charges =   0.00000

 Dipole moment (field-independent basis, Debye):
    X=              0.7691    Y=              6.2809    Z=              0.4842  Tot=              6.3463
 Quadrupole moment (field-independent basis, Debye-Ang):
   XX=           -311.7045   YY=           -401.2961   ZZ=           -397.8107
   XY=            -38.0375   XZ=             12.0721   YZ=              0.1732

 Normal termination of Gaussian 09 at Thu Jul  4 06:11:23 2019.
