 Gaussian 16, Revision A.03,
 Gaussian 16:  ES64L-G16RevA.03 25-Dec-2016

 ----------------------------------------------------------------------
 # td=(NStates=1) iop(3/107=0140000000,3/108=0140000000) CAM-B3LYP/6-31
 G(d,p)
 ----------------------------------------------------------------------

 --
 TD
 --
 Symbolic Z-matrix:
 Charge =  0 Multiplicity = 1

                         Standard orientation:
 ---------------------------------------------------------------------
 Center     Atomic      Atomic             Coordinates (Angstroms)
 Number     Number       Type             X           Y           Z
 ---------------------------------------------------------------------
      1         12           0       -7.193532    0.556995    0.083030
      2          6           0       -4.916789   -1.963211    0.501067
      3          6           0       -4.762654    2.804438    1.066249
      4          6           0       -9.367621    3.144654   -0.391852
      5          6           0       -9.481014   -1.669166   -0.971892
      6          7           0       -5.083363    0.381053    0.518799
      7          6           0       -4.262346   -0.738617    0.800660
      8          6           0       -2.883294   -0.439918    1.207557
      9          6           0       -3.014777    1.031194    1.592288
     10          6           0       -4.374570    1.571565    1.082906
     11          6           0       -2.934896    1.228341    3.078863
     12          6           0       -1.854142   -0.623628    0.014694
     13          6           0       -0.426798   -0.542464    0.603435
     14          6           0        0.578141   -0.694294   -0.599021
     15          8           0        0.247762   -0.925326   -1.743207
     16          8           0        1.836180   -0.456799   -0.272919
     17          7           0       -7.021649    2.644141    0.321183
     18          6           0       -6.060679    3.345315    0.757196
     19          6           0       -6.445925    4.792661    0.781133
     20          6           0       -7.692653    4.826050    0.388756
     21          6           0       -8.074169    3.496327    0.055572
     22          6           0       -5.617979    5.896970    1.378477
     23          6           0       -8.499512    5.997644    0.246979
     24          6           0       -8.385034    7.190294    0.788732
     25          7           0       -9.115183    0.700705   -0.461166
     26          6           0       -9.737787    1.877131   -0.699001
     27          6           0      -11.106935    1.535591   -1.140836
     28          6           0      -11.186447    0.251940   -1.210480
     29          6           0       -9.865614   -0.306579   -0.907920
     30          6           0      -12.207622    2.627082   -1.415472
     31          6           0      -12.386418   -0.696535   -1.773496
     32          6           0      -12.336534   -1.080126   -3.207719
     33          7           0       -7.224146   -1.364194    0.006523
     34          6           0       -8.272573   -2.148665   -0.494241
     35          6           0       -7.916531   -3.545925   -0.440930
     36          6           0       -6.554520   -3.516210   -0.129875
     37          6           0       -6.184328   -2.158191    0.176364
     38          6           0       -8.718437   -4.726658   -0.728621
     39          6           0       -5.350497   -4.351761    0.126150
     40          8           0       -5.277110   -5.589079    0.101064
     41          6           0       -4.186062   -3.408252    0.486211
     42          6           0       -3.704530   -3.743524    1.826605
     43          8           0       -3.728998   -3.201953    2.889398
     44          8           0       -2.856666   -4.838326    1.728013
     45          6           0       -2.291677   -5.443832    2.898810
     46          6           0        2.822766   -0.629949   -1.217773
     47          6           0        4.103285   -0.439699   -0.525543
     48          6           0        5.165057    0.294796   -0.968700
     49          6           0        5.168035    1.098533   -2.204001
     50          6           0        6.451472    0.356201   -0.155065
     51          6           0        7.588009   -0.241723   -0.982323
     52          6           0        8.932331   -0.248157   -0.077784
     53          6           0       10.176900   -0.614689   -0.785593
     54          6           0       10.156270   -2.001704   -1.269551
     55          6           0       11.477318   -0.379411    0.003841
     56          6           0       12.801524   -0.537450   -0.636932
     57          6           0       13.965366   -0.135063    0.319733
     58          6           0       15.241235   -0.152266   -0.521121
     59          6           0       15.757147   -1.586649   -0.975233
     60          6           0       16.375429    0.385317    0.448781
     61          6           0       17.761573    0.570037   -0.216060
     62          6           0       18.805500    1.312579    0.705914
     63          6           0       20.237551    1.482510    0.179595
     64          6           0       20.379540    2.151531   -1.102444
     65          6           0       21.024892    2.084033    1.334934
     66          1           0       -4.189039    3.509153    1.441079
     67          1           0      -10.153660    3.834512   -0.280481
     68          1           0      -10.278194   -2.190402   -1.456883
     69          1           0       -2.532837   -1.079307    2.070762
     70          1           0       -2.343714    1.671914    1.301262
     71          1           0       -2.070697    0.794914    3.261232
     72          1           0       -2.850685    2.340691    3.230171
     73          1           0       -3.668425    0.546047    3.648344
     74          1           0       -2.093240   -1.633138   -0.612072
     75          1           0       -2.087121    0.232183   -0.734427
     76          1           0       -0.097836    0.325544    1.012812
     77          1           0       -0.463027   -1.521917    1.296666
     78          1           0       -5.496363    6.570754    0.538991
     79          1           0       -6.182247    6.304772    2.348181
     80          1           0       -4.384461    5.640246    1.499522
     81          1           0       -9.381536    6.018020   -0.344430
     82          1           0       -9.189683    8.187730    0.376774
     83          1           0       -7.450349    7.464897    1.297985
     84          1           0      -11.860672    3.210534   -2.232785
     85          1           0      -13.190626    2.193731   -1.706831
     86          1           0      -12.289403    3.108135   -0.549093
     87          1           0      -12.452054   -1.562046   -1.014177
     88          1           0      -13.328773   -0.038956   -1.540390
     89          1           0      -12.957933   -1.987198   -3.357106
     90          1           0      -12.534874   -0.145582   -3.867956
     91          1           0      -11.212354   -1.414324   -3.362268
     92          1           0       -9.227459   -4.710353   -1.732342
     93          1           0       -8.218946   -5.762135   -0.502015
     94          1           0       -9.716243   -4.771531   -0.004977
     95          1           0       -3.296899   -3.524259   -0.219514
     96          1           0       -1.614542   -4.688127    3.354622
     97          1           0       -3.147511   -5.634715    3.549400
     98          1           0       -1.568250   -6.448173    2.789224
     99          1           0        2.727451   -1.654183   -1.354717
    100          1           0        2.550372   -0.062662   -2.187464
    101          1           0        3.950440   -1.035627    0.343609
    102          1           0        4.211006    1.360367   -2.551796
    103          1           0        5.675750    2.175510   -1.748751
    104          1           0        5.517417    0.664485   -3.014759
    105          1           0        6.869257    1.199593    0.208427
    106          1           0        6.394939   -0.244564    0.808342
    107          1           0        7.523931   -1.150287   -1.382006
    108          1           0        7.892632    0.171345   -1.918032
    109          1           0        8.912565    0.785137    0.459424
    110          1           0        8.854311   -0.973806    0.807280
    111          1           0       10.335770    0.109405   -1.613864
    112          1           0        9.197732   -2.428594   -1.854441
    113          1           0       11.040372   -2.272713   -1.749452
    114          1           0       10.151934   -2.647902   -0.516024
    115          1           0       11.368738    0.592400    0.437573
    116          1           0       11.392348   -1.105348    0.755637
    117          1           0       12.886811   -1.531509   -0.867431
    118          1           0       12.992717   -0.072121   -1.601397
    119          1           0       13.635972    0.958476    0.419520
    120          1           0       14.010578   -0.656601    1.258526
    121          1           0       15.235971    0.584733   -1.361160
    122          1           0       15.780925   -2.140153    0.049291
    123          1           0       14.981292   -2.048762   -1.718884
    124          1           0       16.723497   -1.558800   -1.355494
    125          1           0       15.881463    1.337752    0.713427
    126          1           0       16.327130   -0.432572    1.188054
    127          1           0       18.271080   -0.242320   -0.479742
    128          1           0       17.665325    1.414921   -0.964359
    129          1           0       18.464056    2.337141    0.831761
    130          1           0       18.860011    0.951438    1.792883
    131          1           0       20.751389    0.659542    0.025717
    132          1           0       19.859539    3.231250   -0.981129
    133          1           0       21.424604    2.355675   -1.195443
    134          1           0       19.807127    1.485228   -1.824905
    135          1           0       20.870422    1.409777    2.168102
    136          1           0       22.029921    1.904463    0.991110
    137          1           0       20.718400    3.073763    1.558625
 ---------------------------------------------------------------------

 SCF Done:  E(RCAM-B3LYP) =  -2933.44359348     A.U. after   16 cycles

 Excitation energies and oscillator strengths:

 Excited State   1:      Singlet-A      1.9982 eV  620.48 nm  f=0.3358  <S**2>=0.000
     240 -> 243       -0.19743
     241 -> 242        0.67904
 This state for optimization and/or second-order correction.
 Total Energy, E(TD-HF/TD-DFT) =  -2933.37016079
 Copying the excited state density for this state as the 1-particle RhoCI density.

 The electronic state is 1-A.
 Alpha  occ. eigenvalues --  -46.79163 -19.22107 -19.19626 -19.16755 -19.16300
 Alpha  occ. eigenvalues --  -19.15952 -14.37282 -14.35454 -14.34969 -14.34858
 Alpha  occ. eigenvalues --  -10.34491 -10.34332 -10.30650 -10.27485 -10.27000
 Alpha  occ. eigenvalues --  -10.26536 -10.25418 -10.25127 -10.25077 -10.24673
 Alpha  occ. eigenvalues --  -10.24632 -10.24599 -10.24242 -10.24206 -10.24169
 Alpha  occ. eigenvalues --  -10.24152 -10.23880 -10.23847 -10.23739 -10.23651
 Alpha  occ. eigenvalues --  -10.23599 -10.23445 -10.22839 -10.22681 -10.22581
 Alpha  occ. eigenvalues --  -10.22471 -10.22197 -10.21707 -10.21643 -10.21619
 Alpha  occ. eigenvalues --  -10.21559 -10.21537 -10.21451 -10.21411 -10.21411
 Alpha  occ. eigenvalues --  -10.21284 -10.21219 -10.21203 -10.21060 -10.20910
 Alpha  occ. eigenvalues --  -10.20877 -10.20759 -10.20707 -10.20687 -10.20593
 Alpha  occ. eigenvalues --  -10.20568 -10.20411 -10.20180 -10.19951 -10.19757
 Alpha  occ. eigenvalues --  -10.19477 -10.19251 -10.19123 -10.18892 -10.18835
 Alpha  occ. eigenvalues --   -3.08004  -1.82930  -1.82457  -1.82443  -1.15393
 Alpha  occ. eigenvalues --   -1.12389  -1.04829  -1.04684  -1.03288  -1.00908
 Alpha  occ. eigenvalues --   -0.99728  -0.98926  -0.95267  -0.87546  -0.86759
 Alpha  occ. eigenvalues --   -0.85963  -0.85768  -0.85520  -0.84909  -0.84119
 Alpha  occ. eigenvalues --   -0.83930  -0.83247  -0.82773  -0.82723  -0.81983
 Alpha  occ. eigenvalues --   -0.80536  -0.79864  -0.79256  -0.78702  -0.78226
 Alpha  occ. eigenvalues --   -0.77566  -0.76817  -0.75887  -0.75662  -0.73947
 Alpha  occ. eigenvalues --   -0.73626  -0.72919  -0.71928  -0.71697  -0.71004
 Alpha  occ. eigenvalues --   -0.70892  -0.70421  -0.69687  -0.68990  -0.68042
 Alpha  occ. eigenvalues --   -0.67343  -0.66286  -0.64654  -0.63965  -0.63536
 Alpha  occ. eigenvalues --   -0.63472  -0.62298  -0.61888  -0.61214  -0.60823
 Alpha  occ. eigenvalues --   -0.59988  -0.59733  -0.59416  -0.58744  -0.58243
 Alpha  occ. eigenvalues --   -0.57573  -0.57489  -0.56145  -0.55555  -0.55413
 Alpha  occ. eigenvalues --   -0.55131  -0.54696  -0.54431  -0.54171  -0.53309
 Alpha  occ. eigenvalues --   -0.52543  -0.51967  -0.51741  -0.51361  -0.51140
 Alpha  occ. eigenvalues --   -0.50707  -0.50451  -0.50103  -0.49368  -0.49298
 Alpha  occ. eigenvalues --   -0.49000  -0.48886  -0.48621  -0.48473  -0.48110
 Alpha  occ. eigenvalues --   -0.48007  -0.47569  -0.47499  -0.47454  -0.47384
 Alpha  occ. eigenvalues --   -0.47144  -0.46596  -0.46550  -0.46420  -0.46106
 Alpha  occ. eigenvalues --   -0.45813  -0.45673  -0.45522  -0.45212  -0.45028
 Alpha  occ. eigenvalues --   -0.44772  -0.44534  -0.44289  -0.44028  -0.43898
 Alpha  occ. eigenvalues --   -0.43642  -0.43305  -0.43133  -0.43022  -0.42906
 Alpha  occ. eigenvalues --   -0.42629  -0.42443  -0.42387  -0.42060  -0.41971
 Alpha  occ. eigenvalues --   -0.41820  -0.41504  -0.41164  -0.41130  -0.40969
 Alpha  occ. eigenvalues --   -0.40766  -0.40698  -0.40595  -0.40051  -0.39757
 Alpha  occ. eigenvalues --   -0.39595  -0.39368  -0.39147  -0.39009  -0.38877
 Alpha  occ. eigenvalues --   -0.38536  -0.38354  -0.38162  -0.37979  -0.37709
 Alpha  occ. eigenvalues --   -0.37669  -0.37494  -0.37269  -0.37135  -0.36774
 Alpha  occ. eigenvalues --   -0.36702  -0.36555  -0.36259  -0.36097  -0.36058
 Alpha  occ. eigenvalues --   -0.35755  -0.35625  -0.35189  -0.34871  -0.34804
 Alpha  occ. eigenvalues --   -0.34492  -0.34367  -0.33920  -0.33631  -0.33616
 Alpha  occ. eigenvalues --   -0.33503  -0.33302  -0.33021  -0.32963  -0.32893
 Alpha  occ. eigenvalues --   -0.32335  -0.31428  -0.31405  -0.30377  -0.30016
 Alpha  occ. eigenvalues --   -0.29787  -0.29676  -0.29130  -0.28861  -0.27489
 Alpha  occ. eigenvalues --   -0.26876  -0.26697  -0.26657  -0.25717  -0.22161
 Alpha  occ. eigenvalues --   -0.19566
 Alpha virt. eigenvalues --   -0.07033  -0.03113  -0.00403   0.02818   0.03620
 Alpha virt. eigenvalues --    0.04109   0.04115   0.05101   0.05316   0.06056
 Alpha virt. eigenvalues --    0.06466   0.08703   0.08890   0.09311   0.10245

 Mulliken charges:
               1
     1  Mg   0.821421
     2  C    0.010524
     3  C   -0.146386
     4  C   -0.149272
     5  C   -0.156820
     6  N   -0.629458
     7  C    0.316386
     8  C   -0.152010
     9  C   -0.136523
    10  C    0.343871
    11  C   -0.300686
    12  C   -0.162158
    13  C   -0.248661
    14  C    0.574927
    15  O   -0.468030
    16  O   -0.441102
    17  N   -0.668772
    18  C    0.292997
    19  C   -0.016883
    20  C    0.089089
    21  C    0.250323
    22  C   -0.383285
    23  C   -0.054041
    24  C   -0.258413
    25  N   -0.707278
    26  C    0.297227
    27  C   -0.006535
    28  C   -0.002569
    29  C    0.288000
    30  C   -0.363447
    31  C   -0.231475
    32  C   -0.284976
    33  N   -0.780656
    34  C    0.281546
    35  C    0.081061
    36  C   -0.005365
    37  C    0.369838
    38  C   -0.403075
    39  C    0.365808
    40  O   -0.467222
    41  C   -0.321614
    42  C    0.627124
    43  O   -0.455956
    44  O   -0.471448
    45  C   -0.063959
    46  C    0.013577
    47  C   -0.125062
    48  C    0.109151
    49  C   -0.343618
    50  C   -0.219889
    51  C   -0.181517
    52  C   -0.172385
    53  C   -0.060654
    54  C   -0.310398
    55  C   -0.177359
    56  C   -0.183371
    57  C   -0.164053
    58  C   -0.086225
    59  C   -0.300609
    60  C   -0.160973
    61  C   -0.178225
    62  C   -0.179454
    63  C   -0.065878
    64  C   -0.281911
    65  C   -0.310147
    66  H    0.040682
    67  H    0.097377
    68  H    0.082307
    69  H    0.122516
    70  H    0.096475
    71  H    0.115599
    72  H    0.099639
    73  H    0.117215
    74  H    0.109116
    75  H    0.114578
    76  H    0.140747
    77  H    0.127262
    78  H    0.142115
    79  H    0.127978
    80  H    0.080967
    81  H    0.085027
    82  H    0.062519
    83  H    0.089817
    84  H    0.129431
    85  H    0.107503
    86  H    0.136439
    87  H    0.098328
    88  H    0.084916
    89  H    0.115120
    90  H    0.109998
    91  H    0.092932
    92  H    0.128693
    93  H    0.148372
    94  H    0.100059
    95  H    0.171513
    96  H    0.111872
    97  H    0.130415
    98  H    0.104992
    99  H    0.119220
   100  H    0.110640
   101  H    0.092759
   102  H    0.116806
   103  H    0.086126
   104  H    0.138898
   105  H    0.111081
   106  H    0.096678
   107  H    0.105986
   108  H    0.098625
   109  H    0.066680
   110  H    0.072517
   111  H    0.074731
   112  H    0.074861
   113  H    0.107080
   114  H    0.113169
   115  H    0.082374
   116  H    0.088681
   117  H    0.101143
   118  H    0.089205
   119  H    0.088462
   120  H    0.097058
   121  H    0.079930
   122  H    0.083067
   123  H    0.088452
   124  H    0.118530
   125  H    0.087425
   126  H    0.082096
   127  H    0.104174
   128  H    0.093626
   129  H    0.083375
   130  H    0.069825
   131  H    0.093493
   132  H    0.065075
   133  H    0.103153
   134  H    0.102080
   135  H    0.102922
   136  H    0.089494
   137  H    0.104909
 Sum of Mulliken charges =  -0.00000

 Dipole moment (field-independent basis, Debye):
    X=              2.1302    Y=              3.2451    Z=             -0.0222  Tot=              3.8819
 Quadrupole moment (field-independent basis, Debye-Ang):
   XX=           -339.4590   YY=           -402.1772   ZZ=           -399.9768
   XY=            -21.8657   XZ=             12.2768   YZ=             -3.1853

 Normal termination of Gaussian 16 at Mon Sep  9 12:46:18 2019.
