 Gaussian 16, Revision A.03,
 Gaussian 16:  ES64L-G16RevA.03 25-Dec-2016

 ----------------------------------------------------------------------
 # td=(NStates=1) iop(3/107=0140000000,3/108=0140000000) CAM-B3LYP/6-31
 G(d,p)
 ----------------------------------------------------------------------

 --
 TD
 --
 Symbolic Z-matrix:
 Charge =  0 Multiplicity = 1

                         Standard orientation:
 ---------------------------------------------------------------------
 Center     Atomic      Atomic             Coordinates (Angstroms)
 Number     Number       Type             X           Y           Z
 ---------------------------------------------------------------------
      1         12           0       -7.062899    0.619217   -0.086155
      2          6           0       -4.923078   -1.983348    0.524749
      3          6           0       -4.677297    2.804555    1.125803
      4          6           0       -9.360333    3.164247   -0.231441
      5          6           0       -9.621962   -1.754073   -0.840824
      6          7           0       -5.109008    0.387579    0.693923
      7          6           0       -4.345426   -0.788011    0.810283
      8          6           0       -2.941766   -0.512574    1.151477
      9          6           0       -2.998318    0.992700    1.614822
     10          6           0       -4.303893    1.444376    1.058423
     11          6           0       -2.923781    1.112600    3.173352
     12          6           0       -1.878015   -0.720623   -0.023765
     13          6           0       -0.520342   -0.431632    0.420028
     14          6           0        0.508146   -0.689134   -0.723719
     15          8           0        0.237029   -0.889805   -1.962148
     16          8           0        1.798411   -0.538019   -0.284530
     17          7           0       -6.991658    2.669888    0.310781
     18          6           0       -6.009297    3.357936    0.771450
     19          6           0       -6.360481    4.802591    0.791367
     20          6           0       -7.666176    4.830477    0.371365
     21          6           0       -8.008484    3.537726   -0.041678
     22          6           0       -5.358078    5.835718    1.299237
     23          6           0       -8.469432    6.120226    0.240592
     24          6           0       -8.349644    7.263018    0.803129
     25          7           0       -9.113708    0.685948   -0.662129
     26          6           0       -9.772824    1.870926   -0.658860
     27          6           0      -11.206791    1.582808   -1.100815
     28          6           0      -11.229062    0.217879   -1.274345
     29          6           0       -9.923458   -0.371948   -0.934281
     30          6           0      -12.282108    2.566309   -1.175761
     31          6           0      -12.385414   -0.694617   -1.732976
     32          6           0      -12.321591   -1.016584   -3.197353
     33          7           0       -7.279702   -1.398398   -0.177391
     34          6           0       -8.332269   -2.229892   -0.506007
     35          6           0       -7.896264   -3.625928   -0.534354
     36          6           0       -6.657011   -3.609308    0.060321
     37          6           0       -6.272125   -2.278809    0.221417
     38          6           0       -8.848006   -4.723411   -0.742032
     39          6           0       -5.383849   -4.433896    0.312526
     40          8           0       -5.242012   -5.665372    0.323954
     41          6           0       -4.202307   -3.443635    0.606991
     42          6           0       -3.609734   -3.648271    1.926190
     43          8           0       -3.887843   -3.169556    2.994393
     44          8           0       -2.733982   -4.700784    1.714539
     45          6           0       -2.223599   -5.182290    2.960074
     46          6           0        2.830294   -0.849703   -1.150857
     47          6           0        4.246897   -0.481384   -0.542918
     48          6           0        5.152878    0.346158   -1.156453
     49          6           0        5.058184    1.074473   -2.406831
     50          6           0        6.409387    0.502532   -0.359183
     51          6           0        7.714165   -0.094710   -1.059741
     52          6           0        9.004465    0.072541   -0.249143
     53          6           0       10.180571   -0.517397   -0.873735
     54          6           0       10.019457   -1.965733   -1.389921
     55          6           0       11.350992   -0.419352    0.007899
     56          6           0       12.767162   -0.499031   -0.608235
     57          6           0       13.954853   -0.065600    0.307525
     58          6           0       15.287088   -0.197771   -0.503804
     59          6           0       15.655285   -1.692188   -0.816551
     60          6           0       16.459359    0.212604    0.384428
     61          6           0       17.863179    0.501581   -0.240026
     62          6           0       18.768582    1.207907    0.848835
     63          6           0       20.278194    1.385810    0.390172
     64          6           0       20.219273    2.163099   -0.921405
     65          6           0       21.089453    2.113648    1.402191
     66          1           0       -3.897540    3.542150    1.427162
     67          1           0      -10.018820    3.934808   -0.358875
     68          1           0      -10.276839   -2.458944   -1.394287
     69          1           0       -2.447233   -0.946695    1.950713
     70          1           0       -2.357733    1.652162    1.191881
     71          1           0       -1.969325    0.623795    3.442980
     72          1           0       -2.905337    2.200239    3.619510
     73          1           0       -3.717206    0.699339    3.688619
     74          1           0       -2.006092   -1.686499   -0.302961
     75          1           0       -2.030443   -0.127167   -0.844552
     76          1           0       -0.326942    0.555885    0.607374
     77          1           0       -0.385806   -1.160606    1.315418
     78          1           0       -5.215783    6.763693    0.471818
     79          1           0       -5.629996    6.296770    2.327887
     80          1           0       -4.454984    5.544199    1.313263
     81          1           0       -9.353528    5.961979   -0.268096
     82          1           0       -9.118456    8.017780    0.720025
     83          1           0       -7.619453    7.563137    1.576069
     84          1           0      -12.118494    3.271330   -1.972006
     85          1           0      -13.305825    2.143311   -0.924019
     86          1           0      -11.893435    3.475044   -0.342807
     87          1           0      -12.329164   -1.346885   -0.812324
     88          1           0      -13.362602   -0.031658   -1.657574
     89          1           0      -13.122648   -1.537184   -3.504672
     90          1           0      -12.027199   -0.140294   -3.731089
     91          1           0      -11.301069   -1.452389   -3.373599
     92          1           0       -9.020096   -4.856026   -1.911605
     93          1           0       -8.366615   -5.668583   -0.569862
     94          1           0       -9.674471   -4.578176   -0.047183
     95          1           0       -3.315566   -3.534650   -0.215442
     96          1           0       -1.516097   -4.310918    3.378004
     97          1           0       -2.974018   -5.391884    3.561414
     98          1           0       -1.433596   -5.921159    2.712048
     99          1           0        2.734572   -1.978528   -1.200988
    100          1           0        2.485066   -0.503812   -2.211365
    101          1           0        4.377847   -0.842365    0.339736
    102          1           0        4.104994    1.301259   -2.804969
    103          1           0        5.453852    2.108037   -2.347947
    104          1           0        5.794281    0.524586   -3.184631
    105          1           0        6.584302    1.494631   -0.240819
    106          1           0        6.339452   -0.247025    0.576397
    107          1           0        7.192089   -1.040912   -1.080412
    108          1           0        7.808921    0.380748   -2.066985
    109          1           0        9.249925    1.134421   -0.185020
    110          1           0        8.856210   -0.552957    0.646117
    111          1           0       10.444642    0.019168   -1.840729
    112          1           0        9.114939   -2.164554   -1.862481
    113          1           0       10.871354   -2.298888   -2.067331
    114          1           0       10.180735   -2.724543   -0.661149
    115          1           0       11.503996    0.521483    0.717818
    116          1           0       11.255258   -1.231176    0.672344
    117          1           0       12.914339   -1.748635   -1.033562
    118          1           0       12.777751    0.428502   -1.274097
    119          1           0       13.733218    1.051835    0.713812
    120          1           0       13.915808   -0.806679    1.165428
    121          1           0       14.959009    0.447998   -1.403125
    122          1           0       15.713542   -2.414742    0.052148
    123          1           0       14.973844   -2.220593   -1.612698
    124          1           0       16.595874   -1.937891   -1.171745
    125          1           0       16.169763    1.130052    0.868174
    126          1           0       16.605330   -0.442620    1.315816
    127          1           0       18.371060   -0.329675   -0.689301
    128          1           0       17.669418    1.183463   -0.979275
    129          1           0       18.105712    2.272172    1.044464
    130          1           0       18.877060    0.658818    1.705355
    131          1           0       20.658910    0.406858    0.138497
    132          1           0       19.660313    3.107846   -0.867688
    133          1           0       21.310257    2.319745   -1.315932
    134          1           0       19.610861    1.784593   -1.724142
    135          1           0       21.323339    1.671614    2.324185
    136          1           0       22.041641    2.213704    0.903770
    137          1           0       20.659534    3.109165    1.631177
 ---------------------------------------------------------------------

 SCF Done:  E(RCAM-B3LYP) =  -2933.48250057     A.U. after   16 cycles

 Excitation energies and oscillator strengths:

 Excited State   1:      Singlet-A      1.9863 eV  624.18 nm  f=0.2771  <S**2>=0.000
     240 -> 243       -0.22628
     241 -> 242        0.66756
 This state for optimization and/or second-order correction.
 Total Energy, E(TD-HF/TD-DFT) =  -2933.40950390
 Copying the excited state density for this state as the 1-particle RhoCI density.

 The electronic state is 1-A.
 Alpha  occ. eigenvalues --  -46.80770 -19.22317 -19.21511 -19.17648 -19.17221
 Alpha  occ. eigenvalues --  -19.16745 -14.37593 -14.35428 -14.35313 -14.35165
 Alpha  occ. eigenvalues --  -10.35784 -10.34364 -10.31796 -10.27755 -10.26241
 Alpha  occ. eigenvalues --  -10.26173 -10.26045 -10.25458 -10.25443 -10.25218
 Alpha  occ. eigenvalues --  -10.24816 -10.24750 -10.24669 -10.24450 -10.23987
 Alpha  occ. eigenvalues --  -10.23432 -10.23391 -10.23362 -10.23337 -10.23120
 Alpha  occ. eigenvalues --  -10.23117 -10.23037 -10.22891 -10.22818 -10.22578
 Alpha  occ. eigenvalues --  -10.22519 -10.22510 -10.22465 -10.22434 -10.22428
 Alpha  occ. eigenvalues --  -10.22393 -10.22089 -10.21905 -10.21834 -10.21790
 Alpha  occ. eigenvalues --  -10.21719 -10.21649 -10.21644 -10.21501 -10.21398
 Alpha  occ. eigenvalues --  -10.21390 -10.21230 -10.21165 -10.21137 -10.21001
 Alpha  occ. eigenvalues --  -10.20872 -10.20825 -10.20673 -10.20537 -10.20437
 Alpha  occ. eigenvalues --  -10.20062 -10.20012 -10.19866 -10.19345 -10.19301
 Alpha  occ. eigenvalues --   -3.09152  -1.84109  -1.83616  -1.83543  -1.12833
 Alpha  occ. eigenvalues --   -1.12824  -1.05188  -1.05009  -1.02158  -1.00318
 Alpha  occ. eigenvalues --   -0.98413  -0.97747  -0.97011  -0.86980  -0.86678
 Alpha  occ. eigenvalues --   -0.86278  -0.85610  -0.84510  -0.84318  -0.83251
 Alpha  occ. eigenvalues --   -0.83156  -0.82831  -0.82677  -0.81971  -0.81105
 Alpha  occ. eigenvalues --   -0.79868  -0.79520  -0.79174  -0.78719  -0.77954
 Alpha  occ. eigenvalues --   -0.76994  -0.76485  -0.75804  -0.75073  -0.73739
 Alpha  occ. eigenvalues --   -0.73382  -0.72343  -0.72261  -0.71232  -0.71195
 Alpha  occ. eigenvalues --   -0.70848  -0.70180  -0.69921  -0.69023  -0.67820
 Alpha  occ. eigenvalues --   -0.67475  -0.66160  -0.64993  -0.64814  -0.63854
 Alpha  occ. eigenvalues --   -0.62878  -0.62849  -0.61920  -0.60504  -0.59868
 Alpha  occ. eigenvalues --   -0.59735  -0.58728  -0.58669  -0.58202  -0.57764
 Alpha  occ. eigenvalues --   -0.57538  -0.57425  -0.56599  -0.56157  -0.55637
 Alpha  occ. eigenvalues --   -0.54628  -0.54579  -0.53691  -0.53520  -0.52842
 Alpha  occ. eigenvalues --   -0.52700  -0.52231  -0.52006  -0.51149  -0.50995
 Alpha  occ. eigenvalues --   -0.50762  -0.50437  -0.50174  -0.49949  -0.49561
 Alpha  occ. eigenvalues --   -0.49390  -0.49015  -0.48835  -0.48425  -0.48277
 Alpha  occ. eigenvalues --   -0.48075  -0.47739  -0.47646  -0.47400  -0.47051
 Alpha  occ. eigenvalues --   -0.46892  -0.46858  -0.46412  -0.46121  -0.45998
 Alpha  occ. eigenvalues --   -0.45700  -0.45534  -0.45483  -0.45201  -0.45099
 Alpha  occ. eigenvalues --   -0.45034  -0.44708  -0.44210  -0.44069  -0.43966
 Alpha  occ. eigenvalues --   -0.43793  -0.43633  -0.43454  -0.42750  -0.42287
 Alpha  occ. eigenvalues --   -0.42222  -0.42170  -0.42068  -0.41819  -0.41561
 Alpha  occ. eigenvalues --   -0.41493  -0.41195  -0.41043  -0.40982  -0.40827
 Alpha  occ. eigenvalues --   -0.40605  -0.40463  -0.40358  -0.39950  -0.39912
 Alpha  occ. eigenvalues --   -0.39630  -0.39385  -0.39287  -0.38995  -0.38924
 Alpha  occ. eigenvalues --   -0.38634  -0.38480  -0.38111  -0.37964  -0.37808
 Alpha  occ. eigenvalues --   -0.37596  -0.37428  -0.37073  -0.37047  -0.37014
 Alpha  occ. eigenvalues --   -0.36913  -0.36756  -0.36040  -0.35860  -0.35811
 Alpha  occ. eigenvalues --   -0.35379  -0.35168  -0.34822  -0.34772  -0.34363
 Alpha  occ. eigenvalues --   -0.34292  -0.34115  -0.33981  -0.33579  -0.33511
 Alpha  occ. eigenvalues --   -0.33365  -0.33122  -0.32849  -0.32791  -0.32539
 Alpha  occ. eigenvalues --   -0.32315  -0.31756  -0.31637  -0.31100  -0.30599
 Alpha  occ. eigenvalues --   -0.30050  -0.29950  -0.29275  -0.28446  -0.27335
 Alpha  occ. eigenvalues --   -0.26984  -0.26767  -0.25638  -0.25014  -0.21626
 Alpha  occ. eigenvalues --   -0.20071
 Alpha virt. eigenvalues --   -0.07482  -0.03563  -0.00692   0.02111   0.02744
 Alpha virt. eigenvalues --    0.03357   0.03581   0.03666   0.04726   0.05441
 Alpha virt. eigenvalues --    0.06715   0.08634   0.08924   0.09370   0.09463

 Mulliken charges:
               1
     1  Mg   0.824537
     2  C   -0.002595
     3  C   -0.203899
     4  C   -0.110901
     5  C   -0.179282
     6  N   -0.645839
     7  C    0.332629
     8  C   -0.166382
     9  C   -0.141664
    10  C    0.344827
    11  C   -0.306703
    12  C   -0.156373
    13  C   -0.249081
    14  C    0.578826
    15  O   -0.494256
    16  O   -0.444921
    17  N   -0.668562
    18  C    0.325336
    19  C    0.000924
    20  C    0.005862
    21  C    0.233445
    22  C   -0.351842
    23  C   -0.023429
    24  C   -0.256029
    25  N   -0.694937
    26  C    0.287382
    27  C    0.059020
    28  C   -0.049941
    29  C    0.317366
    30  C   -0.386211
    31  C   -0.218471
    32  C   -0.303293
    33  N   -0.694405
    34  C    0.275577
    35  C   -0.002340
    36  C    0.016008
    37  C    0.277832
    38  C   -0.383049
    39  C    0.382609
    40  O   -0.457560
    41  C   -0.296931
    42  C    0.639081
    43  O   -0.463375
    44  O   -0.456636
    45  C   -0.067847
    46  C   -0.004957
    47  C   -0.128036
    48  C    0.164971
    49  C   -0.374544
    50  C   -0.235924
    51  C   -0.196804
    52  C   -0.134661
    53  C   -0.046291
    54  C   -0.336115
    55  C   -0.165452
    56  C   -0.159450
    57  C   -0.175729
    58  C   -0.035297
    59  C   -0.317393
    60  C   -0.173898
    61  C   -0.182955
    62  C   -0.154434
    63  C   -0.061438
    64  C   -0.307134
    65  C   -0.302591
    66  H    0.075656
    67  H    0.072019
    68  H    0.109964
    69  H    0.107474
    70  H    0.102182
    71  H    0.104865
    72  H    0.092975
    73  H    0.141996
    74  H    0.117603
    75  H    0.125279
    76  H    0.149033
    77  H    0.120115
    78  H    0.087171
    79  H    0.116568
    80  H    0.122476
    81  H    0.070946
    82  H    0.099713
    83  H    0.097376
    84  H    0.139040
    85  H    0.127295
    86  H    0.069640
    87  H    0.112801
    88  H    0.070030
    89  H    0.119950
    90  H    0.123420
    91  H    0.097058
    92  H    0.109796
    93  H    0.144096
    94  H    0.139386
    95  H    0.155695
    96  H    0.088789
    97  H    0.145042
    98  H    0.122579
    99  H    0.101430
   100  H    0.121700
   101  H    0.083051
   102  H    0.129101
   103  H    0.115629
   104  H    0.114116
   105  H    0.101066
   106  H    0.081320
   107  H    0.104440
   108  H    0.082936
   109  H    0.098575
   110  H    0.089155
   111  H    0.071748
   112  H    0.115097
   113  H    0.095741
   114  H    0.099160
   115  H    0.061097
   116  H    0.094676
   117  H    0.063554
   118  H    0.083113
   119  H    0.073412
   120  H    0.086868
   121  H    0.081582
   122  H    0.096567
   123  H    0.077908
   124  H    0.114318
   125  H    0.079457
   126  H    0.083558
   127  H    0.093273
   128  H    0.107070
   129  H    0.052415
   130  H    0.095369
   131  H    0.092668
   132  H    0.097530
   133  H    0.075127
   134  H    0.105417
   135  H    0.105014
   136  H    0.098242
   137  H    0.103097
 Sum of Mulliken charges =  -0.00000

 Dipole moment (field-independent basis, Debye):
    X=              2.5558    Y=              4.0076    Z=              0.3148  Tot=              4.7636
 Quadrupole moment (field-independent basis, Debye-Ang):
   XX=           -351.9619   YY=           -396.7010   ZZ=           -400.0415
   XY=            -23.1364   XZ=             15.7947   YZ=             -1.4472

 Normal termination of Gaussian 16 at Wed Sep  4 00:13:27 2019.
