 Gaussian 16, Revision A.03,
 Gaussian 16:  ES64L-G16RevA.03 25-Dec-2016

 ----------------------------------------------------------------------
 # td=(NStates=1) iop(3/107=0140000000,3/108=0140000000) CAM-B3LYP/6-31
 G(d,p)
 ----------------------------------------------------------------------

 --
 TD
 --
 Symbolic Z-matrix:
 Charge =  0 Multiplicity = 1

                         Standard orientation:
 ---------------------------------------------------------------------
 Center     Atomic      Atomic             Coordinates (Angstroms)
 Number     Number       Type             X           Y           Z
 ---------------------------------------------------------------------
      1         12           0       -7.107916    0.668930   -0.012356
      2          6           0       -4.816910   -2.033364    0.546892
      3          6           0       -4.792536    2.727807    1.201361
      4          6           0       -9.419103    3.191967   -0.242174
      5          6           0       -9.527633   -1.658645   -0.983189
      6          7           0       -5.117204    0.412891    0.800770
      7          6           0       -4.265556   -0.751280    0.892459
      8          6           0       -2.976284   -0.380873    1.446424
      9          6           0       -3.027928    1.040845    1.897512
     10          6           0       -4.426254    1.452339    1.224648
     11          6           0       -3.015325    1.052453    3.333254
     12          6           0       -1.951912   -0.596581    0.232997
     13          6           0       -0.394340   -0.623930    0.633549
     14          6           0        0.511904   -0.743720   -0.500999
     15          8           0        0.062225   -1.092373   -1.576928
     16          8           0        1.862914   -0.408684   -0.133232
     17          7           0       -7.140659    2.569073    0.442869
     18          6           0       -6.039485    3.277838    0.840907
     19          6           0       -6.300120    4.714398    0.823770
     20          6           0       -7.618709    4.849944    0.420462
     21          6           0       -8.142499    3.496548    0.070877
     22          6           0       -5.520992    5.893596    1.173394
     23          6           0       -8.392692    6.138196    0.114467
     24          6           0       -8.173977    7.354350    0.516610
     25          7           0       -9.040175    0.667154   -0.583051
     26          6           0       -9.854063    1.818077   -0.626637
     27          6           0      -11.106053    1.515685   -1.173693
     28          6           0      -11.149096    0.106441   -1.262513
     29          6           0       -9.943167   -0.312242   -0.928419
     30          6           0      -12.150329    2.566064   -1.415467
     31          6           0      -12.339147   -0.702429   -1.951148
     32          6           0      -12.166919   -1.081476   -3.371848
     33          7           0       -7.228912   -1.410962   -0.128193
     34          6           0       -8.259039   -2.187577   -0.597580
     35          6           0       -7.782406   -3.569812   -0.589901
     36          6           0       -6.448987   -3.494366   -0.212811
     37          6           0       -6.268536   -2.163492    0.053205
     38          6           0       -8.707162   -4.722570   -0.813492
     39          6           0       -5.351235   -4.338422    0.090483
     40          8           0       -5.165023   -5.515945   -0.117399
     41          6           0       -4.236984   -3.402404    0.539943
     42          6           0       -3.596138   -3.788270    1.904566
     43          8           0       -3.866742   -3.249532    2.903705
     44          8           0       -2.729620   -4.806966    1.713979
     45          6           0       -2.192238   -5.313525    2.883564
     46          6           0        2.787375   -0.711917   -1.205473
     47          6           0        4.150719   -0.506307   -0.503226
     48          6           0        5.095468    0.371814   -0.953141
     49          6           0        5.003468    1.185669   -2.162718
     50          6           0        6.362647    0.495561   -0.197633
     51          6           0        7.624198   -0.067028   -0.877543
     52          6           0        8.882602    0.018106   -0.062152
     53          6           0       10.088976   -0.455673   -0.790481
     54          6           0        9.986282   -1.962213   -1.173080
     55          6           0       11.414936   -0.303222    0.088810
     56          6           0       12.672603   -0.469272   -0.659639
     57          6           0       13.845680   -0.120721    0.032769
     58          6           0       15.279834   -0.266218   -0.526436
     59          6           0       15.520839   -1.760232   -0.737962
     60          6           0       16.376763    0.511718    0.344533
     61          6           0       17.836643    0.563861   -0.334524
     62          6           0       18.854942    1.322535    0.564437
     63          6           0       20.262874    1.393131    0.081638
     64          6           0       20.605699    2.092161   -1.175568
     65          6           0       21.107266    1.862282    1.244613
     66          1           0       -4.145280    3.570959    1.548306
     67          1           0       -9.994231    4.150260   -0.345720
     68          1           0      -10.298478   -2.429297   -1.410183
     69          1           0       -2.718893   -0.939653    2.284213
     70          1           0       -2.271612    1.703986    1.545694
     71          1           0       -2.093943    0.941702    3.717970
     72          1           0       -3.517439    2.176628    3.690902
     73          1           0       -3.689350    0.300647    3.860013
     74          1           0       -2.158376   -1.538730   -0.174629
     75          1           0       -1.882865   -0.002356   -0.646229
     76          1           0       -0.036725    0.281199    1.271142
     77          1           0       -0.394400   -1.308471    1.549263
     78          1           0       -5.812070    6.710439    0.523897
     79          1           0       -5.721546    6.306871    2.323257
     80          1           0       -4.384465    5.594568    1.132134
     81          1           0       -9.213409    5.925384   -0.404404
     82          1           0       -9.163733    7.944159    0.301859
     83          1           0       -7.511586    7.579887    1.301104
     84          1           0      -12.087273    3.196582   -2.338954
     85          1           0      -13.146501    2.076202   -1.595894
     86          1           0      -12.027067    3.233685   -0.539850
     87          1           0      -12.495986   -1.597716   -1.419259
     88          1           0      -13.320519   -0.286727   -1.821544
     89          1           0      -12.924947   -1.745977   -3.902370
     90          1           0      -12.029411   -0.212149   -4.051841
     91          1           0      -11.294413   -1.703474   -3.362361
     92          1           0       -9.199927   -4.331967   -1.757911
     93          1           0       -8.393222   -5.775349   -1.061685
     94          1           0       -9.491253   -4.705619    0.077138
     95          1           0       -3.400640   -3.521751   -0.256356
     96          1           0       -1.620755   -4.595516    3.376832
     97          1           0       -3.068999   -5.763884    3.453905
     98          1           0       -1.728770   -6.271703    2.517203
     99          1           0        2.671123   -1.628603   -1.707984
    100          1           0        2.539385    0.102138   -1.947705
    101          1           0        4.192038   -0.934588    0.469119
    102          1           0        3.985425    1.230276   -2.560960
    103          1           0        5.458809    2.258448   -1.855503
    104          1           0        5.736056    0.971160   -3.043819
    105          1           0        6.652270    1.488239    0.166514
    106          1           0        6.206427   -0.095452    0.620779
    107          1           0        7.423231   -1.081734   -1.255488
    108          1           0        7.819889    0.638577   -1.730261
    109          1           0        8.948465    1.117589    0.332386
    110          1           0        8.743748   -0.422544    0.965178
    111          1           0       10.404999    0.058397   -1.636283
    112          1           0        9.106252   -2.188823   -1.858494
    113          1           0       11.121102   -2.450794   -1.517262
    114          1           0        9.719889   -2.519342   -0.286567
    115          1           0       11.242776    0.778846    0.334622
    116          1           0       11.462255   -1.009795    0.865187
    117          1           0       12.808855   -1.602136   -0.799905
    118          1           0       12.791488   -0.087082   -1.747800
    119          1           0       13.896060    0.894073    0.468040
    120          1           0       13.882219   -0.938618    0.882118
    121          1           0       15.414772    0.346732   -1.567290
    122          1           0       15.338256   -2.380990    0.206794
    123          1           0       14.834213   -2.283299   -1.415001
    124          1           0       16.674680   -2.040571   -1.149657
    125          1           0       16.213907    1.639333    0.328181
    126          1           0       16.459612   -0.044505    1.311901
    127          1           0       18.262901   -0.289544   -0.647706
    128          1           0       17.614710    1.210537   -1.226285
    129          1           0       18.362339    2.434944    0.940836
    130          1           0       18.926422    0.756035    1.479436
    131          1           0       20.643974    0.246157    0.039455
    132          1           0       19.992392    3.235390   -1.087052
    133          1           0       21.704128    2.076412   -1.430531
    134          1           0       19.988995    1.484213   -2.000428
    135          1           0       21.130095    1.165767    2.049824
    136          1           0       22.227818    1.844975    1.275731
    137          1           0       20.801918    2.797445    1.438566
 ---------------------------------------------------------------------

 SCF Done:  E(RCAM-B3LYP) =  -2933.49833433     A.U. after   15 cycles

 Excitation energies and oscillator strengths:

 Excited State   1:      Singlet-A      2.2303 eV  555.91 nm  f=0.1257  <S**2>=0.000
     240 -> 243        0.31472
     241 -> 242        0.62507
 This state for optimization and/or second-order correction.
 Total Energy, E(TD-HF/TD-DFT) =  -2933.41637225
 Copying the excited state density for this state as the 1-particle RhoCI density.

 The electronic state is 1-A.
 Alpha  occ. eigenvalues --  -46.79631 -19.22119 -19.21851 -19.18278 -19.17373
 Alpha  occ. eigenvalues --  -19.15076 -14.37094 -14.35295 -14.34981 -14.34538
 Alpha  occ. eigenvalues --  -10.35348 -10.34283 -10.29151 -10.27308 -10.26606
 Alpha  occ. eigenvalues --  -10.26520 -10.26134 -10.25556 -10.24995 -10.24785
 Alpha  occ. eigenvalues --  -10.24733 -10.24629 -10.24028 -10.23975 -10.23964
 Alpha  occ. eigenvalues --  -10.23791 -10.23396 -10.23363 -10.23291 -10.23145
 Alpha  occ. eigenvalues --  -10.23125 -10.23082 -10.23044 -10.23021 -10.22888
 Alpha  occ. eigenvalues --  -10.22767 -10.22648 -10.22521 -10.22439 -10.22363
 Alpha  occ. eigenvalues --  -10.22246 -10.22179 -10.22155 -10.22020 -10.21968
 Alpha  occ. eigenvalues --  -10.21939 -10.21876 -10.21868 -10.21805 -10.21797
 Alpha  occ. eigenvalues --  -10.21749 -10.21553 -10.21429 -10.21322 -10.21145
 Alpha  occ. eigenvalues --  -10.21096 -10.20882 -10.20628 -10.20615 -10.20609
 Alpha  occ. eigenvalues --  -10.20576 -10.20516 -10.20297 -10.19433 -10.18442
 Alpha  occ. eigenvalues --   -3.08336  -1.83255  -1.82791  -1.82773  -1.14893
 Alpha  occ. eigenvalues --   -1.11294  -1.07286  -1.05738  -1.05135  -1.02173
 Alpha  occ. eigenvalues --   -0.98529  -0.97815  -0.96945  -0.87220  -0.86872
 Alpha  occ. eigenvalues --   -0.85988  -0.85778  -0.85004  -0.84604  -0.84036
 Alpha  occ. eigenvalues --   -0.83645  -0.82698  -0.82550  -0.82282  -0.81277
 Alpha  occ. eigenvalues --   -0.80498  -0.80094  -0.78895  -0.78686  -0.78215
 Alpha  occ. eigenvalues --   -0.77057  -0.76566  -0.75902  -0.75024  -0.73873
 Alpha  occ. eigenvalues --   -0.73316  -0.72224  -0.71520  -0.71178  -0.71127
 Alpha  occ. eigenvalues --   -0.70104  -0.69731  -0.69638  -0.68588  -0.67560
 Alpha  occ. eigenvalues --   -0.66574  -0.66290  -0.64912  -0.64729  -0.64059
 Alpha  occ. eigenvalues --   -0.62910  -0.62546  -0.61782  -0.60570  -0.60126
 Alpha  occ. eigenvalues --   -0.59590  -0.59399  -0.59262  -0.58215  -0.57077
 Alpha  occ. eigenvalues --   -0.56909  -0.56810  -0.56404  -0.55844  -0.55448
 Alpha  occ. eigenvalues --   -0.55034  -0.54461  -0.53927  -0.53514  -0.53417
 Alpha  occ. eigenvalues --   -0.52279  -0.51919  -0.51857  -0.51615  -0.51279
 Alpha  occ. eigenvalues --   -0.51031  -0.50753  -0.50525  -0.49992  -0.49783
 Alpha  occ. eigenvalues --   -0.49368  -0.49136  -0.49086  -0.48424  -0.48053
 Alpha  occ. eigenvalues --   -0.47807  -0.47552  -0.47108  -0.46921  -0.46695
 Alpha  occ. eigenvalues --   -0.46644  -0.46591  -0.46417  -0.46184  -0.45998
 Alpha  occ. eigenvalues --   -0.45812  -0.45714  -0.45463  -0.45061  -0.44772
 Alpha  occ. eigenvalues --   -0.44622  -0.44438  -0.44238  -0.43835  -0.43675
 Alpha  occ. eigenvalues --   -0.43650  -0.43187  -0.43010  -0.42744  -0.42576
 Alpha  occ. eigenvalues --   -0.42439  -0.41949  -0.41826  -0.41690  -0.41625
 Alpha  occ. eigenvalues --   -0.41420  -0.41203  -0.41017  -0.40839  -0.40650
 Alpha  occ. eigenvalues --   -0.40550  -0.40407  -0.40287  -0.40053  -0.39751
 Alpha  occ. eigenvalues --   -0.39688  -0.39308  -0.39247  -0.39178  -0.39144
 Alpha  occ. eigenvalues --   -0.38702  -0.38596  -0.38506  -0.38326  -0.38110
 Alpha  occ. eigenvalues --   -0.37856  -0.37662  -0.37502  -0.37214  -0.36798
 Alpha  occ. eigenvalues --   -0.36660  -0.36394  -0.36162  -0.35916  -0.35731
 Alpha  occ. eigenvalues --   -0.35598  -0.35455  -0.35246  -0.35046  -0.34791
 Alpha  occ. eigenvalues --   -0.34528  -0.33765  -0.33677  -0.33473  -0.33434
 Alpha  occ. eigenvalues --   -0.33367  -0.33069  -0.33037  -0.32822  -0.32486
 Alpha  occ. eigenvalues --   -0.31978  -0.31662  -0.31628  -0.31303  -0.31174
 Alpha  occ. eigenvalues --   -0.30829  -0.30539  -0.29592  -0.28045  -0.27308
 Alpha  occ. eigenvalues --   -0.26712  -0.26441  -0.25923  -0.25091  -0.21219
 Alpha  occ. eigenvalues --   -0.20879
 Alpha virt. eigenvalues --   -0.06559  -0.04522   0.00670   0.01975   0.02470
 Alpha virt. eigenvalues --    0.03548   0.03727   0.04467   0.05421   0.06034
 Alpha virt. eigenvalues --    0.07189   0.08732   0.09069   0.09393   0.09864

 Mulliken charges:
               1
     1  Mg   0.827552
     2  C    0.052847
     3  C   -0.203004
     4  C   -0.163452
     5  C   -0.185219
     6  N   -0.636284
     7  C    0.282982
     8  C   -0.165287
     9  C   -0.100444
    10  C    0.383114
    11  C   -0.304361
    12  C   -0.183924
    13  C   -0.297625
    14  C    0.638280
    15  O   -0.454603
    16  O   -0.498088
    17  N   -0.743823
    18  C    0.341617
    19  C    0.045879
    20  C   -0.004253
    21  C    0.279845
    22  C   -0.387152
    23  C   -0.033620
    24  C   -0.251120
    25  N   -0.700541
    26  C    0.258423
    27  C    0.024951
    28  C    0.016235
    29  C    0.326885
    30  C   -0.381253
    31  C   -0.238426
    32  C   -0.300560
    33  N   -0.702022
    34  C    0.242115
    35  C    0.006846
    36  C    0.032933
    37  C    0.354728
    38  C   -0.366640
    39  C    0.353811
    40  O   -0.462832
    41  C   -0.344878
    42  C    0.609087
    43  O   -0.434272
    44  O   -0.429463
    45  C   -0.089998
    46  C    0.005954
    47  C   -0.148741
    48  C    0.161061
    49  C   -0.362333
    50  C   -0.233400
    51  C   -0.169019
    52  C   -0.170830
    53  C   -0.041754
    54  C   -0.313906
    55  C   -0.160122
    56  C   -0.168432
    57  C   -0.145557
    58  C   -0.039531
    59  C   -0.310369
    60  C   -0.172969
    61  C   -0.189567
    62  C   -0.138488
    63  C   -0.051223
    64  C   -0.270067
    65  C   -0.302982
    66  H    0.065960
    67  H    0.087225
    68  H    0.091483
    69  H    0.121702
    70  H    0.107139
    71  H    0.124015
    72  H    0.063795
    73  H    0.123683
    74  H    0.126862
    75  H    0.127197
    76  H    0.114634
    77  H    0.132679
    78  H    0.138418
    79  H    0.102311
    80  H    0.099033
    81  H    0.081234
    82  H    0.091339
    83  H    0.112225
    84  H    0.115568
    85  H    0.108625
    86  H    0.120950
    87  H    0.106766
    88  H    0.101798
    89  H    0.096468
    90  H    0.106998
    91  H    0.104757
    92  H    0.115972
    93  H    0.141991
    94  H    0.122966
    95  H    0.155995
    96  H    0.128609
    97  H    0.118086
    98  H    0.123874
    99  H    0.137979
   100  H    0.112912
   101  H    0.099064
   102  H    0.109639
   103  H    0.094688
   104  H    0.117433
   105  H    0.092610
   106  H    0.099375
   107  H    0.098114
   108  H    0.088735
   109  H    0.071507
   110  H    0.087448
   111  H    0.098920
   112  H    0.096374
   113  H    0.072577
   114  H    0.106404
   115  H    0.085746
   116  H    0.098013
   117  H    0.077338
   118  H    0.076317
   119  H    0.080106
   120  H    0.061167
   121  H    0.052692
   122  H    0.093470
   123  H    0.116202
   124  H    0.069031
   125  H    0.097085
   126  H    0.090917
   127  H    0.101597
   128  H    0.087934
   129  H    0.043389
   130  H    0.101711
   131  H    0.058142
   132  H    0.061081
   133  H    0.113038
   134  H    0.087680
   135  H    0.099580
   136  H    0.081464
   137  H    0.109451
 Sum of Mulliken charges =  -0.00000

 Dipole moment (field-independent basis, Debye):
    X=              1.5017    Y=              3.3533    Z=              0.7951  Tot=              3.7592
 Quadrupole moment (field-independent basis, Debye-Ang):
   XX=           -354.9816   YY=           -394.9485   ZZ=           -398.2312
   XY=            -25.5665   XZ=             16.2428   YZ=             -4.2805

 Normal termination of Gaussian 16 at Fri Sep 13 08:29:36 2019.
