 Gaussian 16, Revision A.03,
 Gaussian 16:  ES64L-G16RevA.03 25-Dec-2016

 ----------------------------------------------------------------------
 # td=(NStates=1) iop(3/107=0140000000,3/108=0140000000) CAM-B3LYP/6-31
 G(d,p)
 ----------------------------------------------------------------------

 --
 TD
 --
 Symbolic Z-matrix:
 Charge =  0 Multiplicity = 1

                         Standard orientation:
 ---------------------------------------------------------------------
 Center     Atomic      Atomic             Coordinates (Angstroms)
 Number     Number       Type             X           Y           Z
 ---------------------------------------------------------------------
      1         12           0       -7.127712    0.632792    0.058963
      2          6           0       -4.815885   -1.947860    0.417728
      3          6           0       -4.848131    2.858712    1.183543
      4          6           0       -9.443061    3.070954   -0.341655
      5          6           0       -9.640090   -1.804370   -0.898561
      6          7           0       -5.177907    0.383381    0.776052
      7          6           0       -4.336388   -0.735273    0.755567
      8          6           0       -2.883303   -0.348441    1.138349
      9          6           0       -3.103408    1.147671    1.779960
     10          6           0       -4.469499    1.526385    1.112039
     11          6           0       -3.107723    1.068452    3.241095
     12          6           0       -1.917918   -0.598047    0.024112
     13          6           0       -0.463616   -0.382610    0.511149
     14          6           0        0.593883   -0.593400   -0.619039
     15          8           0        0.274916   -0.941386   -1.776444
     16          8           0        1.940423   -0.317935   -0.228736
     17          7           0       -7.186720    2.603527    0.384380
     18          6           0       -6.107455    3.352023    0.872966
     19          6           0       -6.428324    4.788702    0.821585
     20          6           0       -7.719391    4.784851    0.520306
     21          6           0       -8.177694    3.533250    0.148922
     22          6           0       -5.435287    5.923658    1.141692
     23          6           0       -8.578495    6.007352    0.207501
     24          6           0       -8.447039    7.250780    0.766979
     25          7           0       -9.085849    0.615082   -0.628513
     26          6           0       -9.801984    1.803184   -0.765585
     27          6           0      -11.216369    1.473029   -1.053020
     28          6           0      -11.250926    0.102739   -1.268743
     29          6           0       -9.979139   -0.396087   -0.907770
     30          6           0      -12.261041    2.407510   -1.451160
     31          6           0      -12.326857   -0.787853   -1.726983
     32          6           0      -12.173897   -1.288272   -3.274857
     33          7           0       -7.194227   -1.429363   -0.198624
     34          6           0       -8.286303   -2.339998   -0.547922
     35          6           0       -7.885998   -3.709480   -0.465441
     36          6           0       -6.517847   -3.570638   -0.114455
     37          6           0       -6.106835   -2.209284    0.067758
     38          6           0       -8.736054   -4.891082   -0.754448
     39          6           0       -5.327606   -4.366818    0.154035
     40          8           0       -5.204423   -5.625626    0.152637
     41          6           0       -4.164564   -3.308099    0.511270
     42          6           0       -3.576008   -3.624065    1.866722
     43          8           0       -3.881883   -3.125400    2.898043
     44          8           0       -2.745359   -4.718692    1.863838
     45          6           0       -2.327803   -5.234406    3.131490
     46          6           0        2.926245   -0.504387   -1.278890
     47          6           0        4.187479   -0.176836   -0.580069
     48          6           0        5.182564    0.635600   -0.999322
     49          6           0        5.169962    1.367424   -2.369764
     50          6           0        6.370286    0.692085   -0.246638
     51          6           0        7.580166   -0.098836   -0.951704
     52          6           0        8.965998    0.023899   -0.210750
     53          6           0       10.216279   -0.489226   -0.978048
     54          6           0       10.126457   -1.943271   -1.370266
     55          6           0       11.393165   -0.257447   -0.032272
     56          6           0       12.801680   -0.568210   -0.639471
     57          6           0       13.999001   -0.192581    0.265394
     58          6           0       15.334718   -0.265094   -0.505922
     59          6           0       15.670656   -1.732156   -0.859295
     60          6           0       16.417646    0.184721    0.427374
     61          6           0       17.842036    0.486220   -0.143351
     62          6           0       18.829242    1.143675    0.850279
     63          6           0       20.229051    1.219141    0.193168
     64          6           0       20.331828    2.262255   -0.917803
     65          6           0       21.248873    1.590667    1.268232
     66          1           0       -4.037567    3.484203    1.525128
     67          1           0      -10.091807    3.765087   -0.368488
     68          1           0      -10.365432   -2.501129   -1.239314
     69          1           0       -2.471313   -1.072299    1.904953
     70          1           0       -2.383614    1.842752    1.350766
     71          1           0       -2.124676    0.595158    3.332275
     72          1           0       -3.366132    2.013383    3.830511
     73          1           0       -3.902114    0.282781    3.456809
     74          1           0       -1.908737   -1.664880   -0.335296
     75          1           0       -2.200822    0.085890   -0.937939
     76          1           0       -0.463721    0.622480    1.129079
     77          1           0       -0.256711   -1.235259    1.173941
     78          1           0       -5.751184    6.674072    0.510741
     79          1           0       -5.548238    6.137977    2.160054
     80          1           0       -4.383995    5.801929    0.914318
     81          1           0       -9.215261    5.952459   -0.557835
     82          1           0       -9.096423    8.139626    0.610330
     83          1           0       -7.580907    7.381019    1.636910
     84          1           0      -11.795476    3.140525   -2.050103
     85          1           0      -13.369625    2.132376   -1.662562
     86          1           0      -12.288623    3.006440   -0.542476
     87          1           0      -12.488630   -1.745059   -1.046003
     88          1           0      -13.330296   -0.298829   -1.794196
     89          1           0      -12.951751   -1.907876   -3.637701
     90          1           0      -12.158886   -0.293317   -3.843782
     91          1           0      -11.277215   -1.867416   -3.381290
     92          1           0       -9.077370   -4.917573   -1.876417
     93          1           0       -8.106229   -5.780647   -0.592117
     94          1           0       -9.684430   -4.653455   -0.154221
     95          1           0       -3.543803   -3.282284   -0.298397
     96          1           0       -1.792756   -4.466077    3.755550
     97          1           0       -3.107802   -5.784819    3.779307
     98          1           0       -1.686488   -6.097851    2.789390
     99          1           0        2.777470   -1.748716   -1.419674
    100          1           0        2.557883   -0.051718   -2.155608
    101          1           0        4.218505   -0.622780    0.399593
    102          1           0        4.249481    1.142051   -3.029726
    103          1           0        5.330171    2.483671   -2.099198
    104          1           0        6.118108    1.142775   -2.827916
    105          1           0        6.815180    1.767899   -0.318926
    106          1           0        6.382626    0.338971    0.891613
    107          1           0        7.401512   -1.104893   -1.005659
    108          1           0        7.783438    0.224254   -2.007832
    109          1           0        9.001680    1.118428    0.107633
    110          1           0        8.970160   -0.451204    0.595348
    111          1           0       10.212519   -0.039661   -1.913266
    112          1           0        9.247631   -2.151071   -2.046784
    113          1           0       11.108886   -2.256076   -1.825932
    114          1           0        9.844574   -2.613345   -0.560550
    115          1           0       11.404650    0.760339    0.172598
    116          1           0       11.199634   -0.787639    0.932679
    117          1           0       12.792261   -1.610310   -0.829921
    118          1           0       13.115532    0.012673   -1.574221
    119          1           0       13.971229    0.870951    0.768386
    120          1           0       13.961658   -0.953070    1.121835
    121          1           0       15.443192    0.465270   -1.428713
    122          1           0       15.853179   -2.204589    0.062754
    123          1           0       14.961660   -2.052171   -1.525559
    124          1           0       16.626524   -1.837079   -1.434360
    125          1           0       16.277375    1.257619    0.982636
    126          1           0       16.226757   -0.449776    1.327933
    127          1           0       18.252218   -0.448666   -0.451363
    128          1           0       17.767063    1.137462   -0.984916
    129          1           0       18.535704    2.289063    0.893438
    130          1           0       18.728019    0.760218    1.932631
    131          1           0       20.486550    0.173277   -0.183849
    132          1           0       20.066761    3.352677   -0.433365
    133          1           0       21.243183    2.264572   -1.430975
    134          1           0       19.527809    2.138279   -1.830895
    135          1           0       21.617465    0.839177    2.052236
    136          1           0       22.324369    1.674322    0.843919
    137          1           0       21.049839    2.664969    1.740658
 ---------------------------------------------------------------------

 SCF Done:  E(RCAM-B3LYP) =  -2933.58390615     A.U. after   16 cycles

 Excitation energies and oscillator strengths:

 Excited State   1:      Singlet-A      1.9757 eV  627.53 nm  f=0.2561  <S**2>=0.000
     240 -> 243        0.22927
     241 -> 242        0.66651
 This state for optimization and/or second-order correction.
 Total Energy, E(TD-HF/TD-DFT) =  -2933.51129923
 Copying the excited state density for this state as the 1-particle RhoCI density.

 The electronic state is 1-A.
 Alpha  occ. eigenvalues --  -46.79480 -19.21317 -19.20816 -19.17586 -19.16406
 Alpha  occ. eigenvalues --  -19.15336 -14.37914 -14.35415 -14.35249 -14.34798
 Alpha  occ. eigenvalues --  -10.35613 -10.34044 -10.30083 -10.27750 -10.27087
 Alpha  occ. eigenvalues --  -10.26357 -10.26318 -10.25596 -10.25485 -10.25233
 Alpha  occ. eigenvalues --  -10.25036 -10.24922 -10.24695 -10.24162 -10.24023
 Alpha  occ. eigenvalues --  -10.23867 -10.23753 -10.23753 -10.23716 -10.23660
 Alpha  occ. eigenvalues --  -10.23593 -10.23277 -10.23266 -10.23124 -10.22980
 Alpha  occ. eigenvalues --  -10.22895 -10.22831 -10.22771 -10.22719 -10.22410
 Alpha  occ. eigenvalues --  -10.22390 -10.22361 -10.22049 -10.22026 -10.21962
 Alpha  occ. eigenvalues --  -10.21909 -10.21894 -10.21883 -10.21804 -10.21800
 Alpha  occ. eigenvalues --  -10.21799 -10.21472 -10.21198 -10.21194 -10.21166
 Alpha  occ. eigenvalues --  -10.21113 -10.21044 -10.20938 -10.20876 -10.20781
 Alpha  occ. eigenvalues --  -10.20438 -10.20389 -10.20184 -10.19509 -10.19279
 Alpha  occ. eigenvalues --   -3.08077  -1.83021  -1.82543  -1.82487  -1.12709
 Alpha  occ. eigenvalues --   -1.10066  -1.04142  -1.03003  -1.02549  -0.98725
 Alpha  occ. eigenvalues --   -0.97505  -0.97213  -0.95780  -0.87653  -0.86411
 Alpha  occ. eigenvalues --   -0.85448  -0.84958  -0.84564  -0.84126  -0.84109
 Alpha  occ. eigenvalues --   -0.83434  -0.83306  -0.82717  -0.81943  -0.80916
 Alpha  occ. eigenvalues --   -0.79594  -0.78975  -0.77949  -0.77791  -0.77700
 Alpha  occ. eigenvalues --   -0.76601  -0.76142  -0.75527  -0.74950  -0.74372
 Alpha  occ. eigenvalues --   -0.73351  -0.72928  -0.71581  -0.71293  -0.70850
 Alpha  occ. eigenvalues --   -0.70758  -0.69739  -0.69582  -0.68806  -0.67735
 Alpha  occ. eigenvalues --   -0.67068  -0.65492  -0.65243  -0.64284  -0.63198
 Alpha  occ. eigenvalues --   -0.62584  -0.61979  -0.61106  -0.60396  -0.60196
 Alpha  occ. eigenvalues --   -0.59839  -0.59397  -0.58515  -0.58187  -0.57800
 Alpha  occ. eigenvalues --   -0.57287  -0.56734  -0.56315  -0.55518  -0.54990
 Alpha  occ. eigenvalues --   -0.54864  -0.54678  -0.54115  -0.53446  -0.52006
 Alpha  occ. eigenvalues --   -0.51543  -0.51305  -0.51102  -0.50709  -0.50531
 Alpha  occ. eigenvalues --   -0.50194  -0.49999  -0.49845  -0.49275  -0.49170
 Alpha  occ. eigenvalues --   -0.49013  -0.48474  -0.48351  -0.48245  -0.47901
 Alpha  occ. eigenvalues --   -0.47529  -0.47395  -0.47280  -0.47082  -0.47008
 Alpha  occ. eigenvalues --   -0.46668  -0.46653  -0.46438  -0.46237  -0.45952
 Alpha  occ. eigenvalues --   -0.45480  -0.45055  -0.44840  -0.44789  -0.44660
 Alpha  occ. eigenvalues --   -0.44453  -0.44250  -0.44129  -0.44012  -0.43624
 Alpha  occ. eigenvalues --   -0.43489  -0.43213  -0.43138  -0.42865  -0.42552
 Alpha  occ. eigenvalues --   -0.42026  -0.41977  -0.41834  -0.41760  -0.41714
 Alpha  occ. eigenvalues --   -0.41514  -0.41380  -0.40969  -0.40819  -0.40645
 Alpha  occ. eigenvalues --   -0.40398  -0.40274  -0.39918  -0.39781  -0.39584
 Alpha  occ. eigenvalues --   -0.39505  -0.39245  -0.39107  -0.38884  -0.38743
 Alpha  occ. eigenvalues --   -0.38558  -0.38412  -0.38078  -0.38026  -0.37726
 Alpha  occ. eigenvalues --   -0.37558  -0.37551  -0.37190  -0.37020  -0.37003
 Alpha  occ. eigenvalues --   -0.36821  -0.36767  -0.36464  -0.36254  -0.36075
 Alpha  occ. eigenvalues --   -0.35625  -0.35582  -0.35507  -0.35455  -0.34922
 Alpha  occ. eigenvalues --   -0.34572  -0.34569  -0.34424  -0.34111  -0.33995
 Alpha  occ. eigenvalues --   -0.33763  -0.33612  -0.32544  -0.32372  -0.32208
 Alpha  occ. eigenvalues --   -0.31965  -0.31954  -0.31687  -0.30516  -0.30192
 Alpha  occ. eigenvalues --   -0.30100  -0.29983  -0.29428  -0.28975  -0.26275
 Alpha  occ. eigenvalues --   -0.26100  -0.26034  -0.25854  -0.25052  -0.21923
 Alpha  occ. eigenvalues --   -0.20274
 Alpha virt. eigenvalues --   -0.07734  -0.03957  -0.00244   0.02216   0.02540
 Alpha virt. eigenvalues --    0.03783   0.04113   0.04677   0.05211   0.05644
 Alpha virt. eigenvalues --    0.06395   0.08799   0.09271   0.10033   0.10329

 Mulliken charges:
               1
     1  Mg   0.795151
     2  C    0.061497
     3  C   -0.182585
     4  C   -0.110964
     5  C   -0.165677
     6  N   -0.653795
     7  C    0.321991
     8  C   -0.160451
     9  C   -0.149490
    10  C    0.324197
    11  C   -0.277887
    12  C   -0.164508
    13  C   -0.264989
    14  C    0.599610
    15  O   -0.465307
    16  O   -0.494699
    17  N   -0.720840
    18  C    0.296583
    19  C    0.027822
    20  C   -0.010003
    21  C    0.303664
    22  C   -0.369939
    23  C   -0.067005
    24  C   -0.254122
    25  N   -0.675806
    26  C    0.286865
    27  C    0.001333
    28  C    0.085653
    29  C    0.303932
    30  C   -0.386276
    31  C   -0.279753
    32  C   -0.316800
    33  N   -0.727868
    34  C    0.227620
    35  C    0.069341
    36  C   -0.001268
    37  C    0.338983
    38  C   -0.375937
    39  C    0.328683
    40  O   -0.492283
    41  C   -0.303489
    42  C    0.613294
    43  O   -0.449049
    44  O   -0.452008
    45  C   -0.082209
    46  C    0.026002
    47  C   -0.121237
    48  C    0.165843
    49  C   -0.364042
    50  C   -0.241907
    51  C   -0.197420
    52  C   -0.165602
    53  C   -0.058612
    54  C   -0.321585
    55  C   -0.169395
    56  C   -0.191928
    57  C   -0.164962
    58  C   -0.067820
    59  C   -0.298747
    60  C   -0.164990
    61  C   -0.172582
    62  C   -0.161727
    63  C   -0.041629
    64  C   -0.289418
    65  C   -0.303959
    66  H    0.081377
    67  H    0.039786
    68  H    0.088060
    69  H    0.100902
    70  H    0.094180
    71  H    0.112287
    72  H    0.107966
    73  H    0.131474
    74  H    0.121223
    75  H    0.098833
    76  H    0.124224
    77  H    0.140536
    78  H    0.137756
    79  H    0.139011
    80  H    0.117752
    81  H    0.092720
    82  H    0.111505
    83  H    0.078479
    84  H    0.135170
    85  H    0.120521
    86  H    0.125952
    87  H    0.091402
    88  H    0.096797
    89  H    0.112538
    90  H    0.104997
    91  H    0.113720
    92  H    0.119666
    93  H    0.156270
    94  H    0.125976
    95  H    0.163752
    96  H    0.119580
    97  H    0.119850
    98  H    0.120674
    99  H    0.085981
   100  H    0.129761
   101  H    0.093574
   102  H    0.113159
   103  H    0.110012
   104  H    0.127783
   105  H    0.081454
   106  H    0.097180
   107  H    0.110828
   108  H    0.087820
   109  H    0.072068
   110  H    0.098412
   111  H    0.092192
   112  H    0.092139
   113  H    0.102290
   114  H    0.096869
   115  H    0.101502
   116  H    0.087188
   117  H    0.106447
   118  H    0.085928
   119  H    0.082436
   120  H    0.079307
   121  H    0.066157
   122  H    0.108446
   123  H    0.110553
   124  H    0.093551
   125  H    0.047234
   126  H    0.079892
   127  H    0.093981
   128  H    0.102460
   129  H    0.070335
   130  H    0.093224
   131  H    0.084752
   132  H    0.083394
   133  H    0.120864
   134  H    0.075386
   135  H    0.097222
   136  H    0.079641
   137  H    0.088141
 Sum of Mulliken charges =  -0.00000

 Dipole moment (field-independent basis, Debye):
    X=              1.3943    Y=              5.4154    Z=             -0.1166  Tot=              5.5932
 Quadrupole moment (field-independent basis, Debye-Ang):
   XX=           -326.6156   YY=           -395.5352   ZZ=           -397.4872
   XY=            -32.0045   XZ=              9.5605   YZ=             -1.9583

 Normal termination of Gaussian 16 at Sun Sep 22 02:51:00 2019.
