 Gaussian 16, Revision A.03,
 Gaussian 16:  ES64L-G16RevA.03 25-Dec-2016

 -------------------------------------
 # td=(NStates=1) CAM-B3LYP/6-31G(d,p)
 -------------------------------------

 --
 TD
 --
 Symbolic Z-matrix:
 Charge =  0 Multiplicity = 1

                         Standard orientation:
 ---------------------------------------------------------------------
 Center     Atomic      Atomic             Coordinates (Angstroms)
 Number     Number       Type             X           Y           Z
 ---------------------------------------------------------------------
      1         12           0       -7.140787    0.638078    0.060639
      2          6           0       -4.879457   -1.871921    0.495677
      3          6           0       -4.867587    2.815136    1.153435
      4          6           0       -9.330149    3.159956   -0.458760
      5          6           0       -9.498717   -1.762715   -0.839938
      6          7           0       -5.081327    0.447320    0.668009
      7          6           0       -4.350998   -0.659352    0.785648
      8          6           0       -3.013206   -0.375362    1.186033
      9          6           0       -3.108388    1.079668    1.625431
     10          6           0       -4.452977    1.538597    1.191527
     11          6           0       -3.072793    1.274422    3.146871
     12          6           0       -1.921053   -0.534500    0.102409
     13          6           0       -0.441949   -0.314976    0.531525
     14          6           0        0.502078   -0.692233   -0.581469
     15          8           0        0.282320   -1.139598   -1.691554
     16          8           0        1.743840   -0.420885   -0.170612
     17          7           0       -7.194731    2.665988    0.389021
     18          6           0       -6.097770    3.373464    0.814835
     19          6           0       -6.419197    4.736641    0.777856
     20          6           0       -7.707675    4.852152    0.413855
     21          6           0       -8.107986    3.583154   -0.093357
     22          6           0       -5.493477    5.823891    1.175253
     23          6           0       -8.497038    6.017871    0.141578
     24          6           0       -8.322462    7.270135    0.687047
     25          7           0       -9.034141    0.681058   -0.672346
     26          6           0       -9.742489    1.839262   -0.738507
     27          6           0      -11.115307    1.553226   -1.168010
     28          6           0      -11.169867    0.089799   -1.232701
     29          6           0       -9.926911   -0.399135   -0.906809
     30          6           0      -12.245874    2.444618   -1.340079
     31          6           0      -12.416062   -0.758664   -1.845754
     32          6           0      -12.231905   -1.208142   -3.213875
     33          7           0       -7.207232   -1.415282   -0.130521
     34          6           0       -8.232361   -2.294738   -0.434066
     35          6           0       -7.755672   -3.681881   -0.433202
     36          6           0       -6.488268   -3.545018   -0.088415
     37          6           0       -6.130733   -2.138021    0.083571
     38          6           0       -8.701987   -4.799303   -0.638431
     39          6           0       -5.253568   -4.418504    0.154520
     40          8           0       -5.065622   -5.545042    0.117471
     41          6           0       -4.180398   -3.265714    0.641486
     42          6           0       -3.607542   -3.570723    1.935131
     43          8           0       -3.900789   -3.203954    3.038685
     44          8           0       -2.779775   -4.630561    1.804143
     45          6           0       -2.147993   -5.130916    3.011221
     46          6           0        2.742430   -0.709694   -1.087307
     47          6           0        4.066687   -0.564876   -0.496239
     48          6           0        5.160992    0.209689   -0.914078
     49          6           0        4.947457    1.094339   -2.173512
     50          6           0        6.393364    0.214882   -0.228932
     51          6           0        7.636784   -0.246084   -0.992459
     52          6           0        8.962725   -0.166869   -0.212373
     53          6           0       10.212117   -0.613532   -1.024552
     54          6           0       10.059578   -2.134455   -1.434881
     55          6           0       11.449057   -0.277432   -0.123022
     56          6           0       12.758023   -0.525998   -0.808596
     57          6           0       14.021169   -0.137636    0.142659
     58          6           0       15.323904   -0.225406   -0.472862
     59          6           0       15.769009   -1.632209   -0.936212
     60          6           0       16.290168    0.451592    0.401784
     61          6           0       17.855601    0.526059   -0.072323
     62          6           0       18.784790    1.341913    0.770394
     63          6           0       20.192364    1.460646    0.288410
     64          6           0       20.327440    2.280617   -0.959335
     65          6           0       21.177732    1.990901    1.340002
     66          1           0       -4.023092    3.299710    1.478114
     67          1           0      -10.163881    4.027077   -0.775982
     68          1           0      -10.281207   -2.496983   -1.179125
     69          1           0       -2.582694   -0.886407    2.227859
     70          1           0       -2.414117    1.777299    1.048465
     71          1           0       -2.067669    1.012767    3.453453
     72          1           0       -3.333065    2.106738    3.617000
     73          1           0       -3.885119    0.456140    3.584428
     74          1           0       -1.903244   -1.643674   -0.518442
     75          1           0       -2.022325    0.121692   -0.780916
     76          1           0       -0.277887    0.786417    0.940113
     77          1           0       -0.356695   -1.140373    1.443680
     78          1           0       -5.711990    6.675295    0.441791
     79          1           0       -5.750057    6.210865    2.254234
     80          1           0       -4.332512    5.672850    1.250169
     81          1           0       -9.281998    6.151574   -0.598941
     82          1           0       -9.018854    8.052707    0.433529
     83          1           0       -7.473570    7.443267    1.429501
     84          1           0      -12.113068    3.051689   -2.405280
     85          1           0      -13.169485    1.816798   -1.419616
     86          1           0      -12.236976    3.241863   -0.703504
     87          1           0      -12.544211   -1.747563   -1.273759
     88          1           0      -13.473745   -0.105377   -1.700001
     89          1           0      -13.051148   -1.887859   -3.487102
     90          1           0      -11.878956   -0.304136   -4.024634
     91          1           0      -11.308941   -1.778163   -3.175387
     92          1           0       -9.059350   -4.923162   -1.508984
     93          1           0       -8.112047   -5.762055   -0.412967
     94          1           0       -9.594167   -4.490755   -0.188889
     95          1           0       -3.456850   -3.280326   -0.035598
     96          1           0       -1.298485   -4.535399    3.348496
     97          1           0       -2.973045   -5.447893    3.940433
     98          1           0       -1.688760   -6.118354    2.755670
     99          1           0        2.667169   -1.784236   -1.304118
    100          1           0        2.513806   -0.022019   -1.971228
    101          1           0        4.274446   -1.311435    0.211307
    102          1           0        3.890944    1.171755   -2.349459
    103          1           0        5.459736    2.002440   -2.125408
    104          1           0        5.338498    0.486874   -3.158387
    105          1           0        6.652724    1.048869    0.212562
    106          1           0        6.435758   -0.309798    0.548427
    107          1           0        7.466948   -1.141698   -1.234542
    108          1           0        7.758468    0.261978   -1.915798
    109          1           0        9.295107    0.760084    0.203841
    110          1           0        8.767004   -0.763857    0.686072
    111          1           0       10.262001    0.009619   -2.075543
    112          1           0        9.298689   -2.145692   -2.150194
    113          1           0       10.764548   -2.463533   -2.009638
    114          1           0        9.889948   -2.686823   -0.495730
    115          1           0       11.339451    0.738301    0.008878
    116          1           0       11.531347   -0.771032    0.955125
    117          1           0       12.801950   -1.528756   -1.058386
    118          1           0       12.793700    0.016548   -1.776216
    119          1           0       13.798987    0.857267    0.375436
    120          1           0       13.759445   -0.685309    1.069163
    121          1           0       15.374600    0.422671   -1.387550
    122          1           0       16.184890   -2.194970   -0.043869
    123          1           0       14.943814   -2.333734   -1.343517
    124          1           0       16.713588   -1.528875   -1.680663
    125          1           0       15.990506    1.560737    0.600023
    126          1           0       16.079066   -0.000526    1.289101
    127          1           0       18.328507   -0.681730    0.023291
    128          1           0       17.939745    0.897612   -1.085327
    129          1           0       18.305381    2.238980    0.756604
    130          1           0       18.956659    0.924877    1.823720
    131          1           0       20.390768    0.384072    0.047728
    132          1           0       20.158813    3.427406   -0.912621
    133          1           0       21.454851    2.250841   -1.430460
    134          1           0       19.826646    1.944207   -1.697116
    135          1           0       21.170030    1.492468    2.326016
    136          1           0       22.308623    2.084598    1.199729
    137          1           0       20.801804    3.025607    1.830469
 ---------------------------------------------------------------------

 SCF Done:  E(RCAM-B3LYP) =  -2932.58278287     A.U. after   15 cycles

 Excitation energies and oscillator strengths:

 Excited State   1:      Singlet-A      2.1751 eV  570.02 nm  f=0.1778  <S**2>=0.000
     240 -> 243        0.29784
     241 -> 242        0.62550
 This state for optimization and/or second-order correction.
 Total Energy, E(TD-HF/TD-DFT) =  -2932.50284950
 Copying the excited state density for this state as the 1-particle RhoCI density.

 The electronic state is 1-A.
 Alpha  occ. eigenvalues --  -46.84038 -19.26112 -19.25278 -19.22928 -19.21524
 Alpha  occ. eigenvalues --  -19.19762 -14.40898 -14.39144 -14.38930 -14.38475
 Alpha  occ. eigenvalues --  -10.39712 -10.37973 -10.36569 -10.32469 -10.31412
 Alpha  occ. eigenvalues --  -10.30328 -10.30137 -10.29718 -10.29594 -10.29403
 Alpha  occ. eigenvalues --  -10.28837 -10.28769 -10.28549 -10.28510 -10.28487
 Alpha  occ. eigenvalues --  -10.28484 -10.28447 -10.28307 -10.28187 -10.28083
 Alpha  occ. eigenvalues --  -10.27944 -10.27852 -10.27775 -10.27725 -10.27386
 Alpha  occ. eigenvalues --  -10.27045 -10.26815 -10.26437 -10.26418 -10.26381
 Alpha  occ. eigenvalues --  -10.26292 -10.26253 -10.26213 -10.26183 -10.26180
 Alpha  occ. eigenvalues --  -10.26099 -10.25970 -10.25964 -10.25829 -10.25807
 Alpha  occ. eigenvalues --  -10.25718 -10.25405 -10.25315 -10.25187 -10.25174
 Alpha  occ. eigenvalues --  -10.25165 -10.24975 -10.24562 -10.24535 -10.24370
 Alpha  occ. eigenvalues --  -10.24185 -10.24166 -10.23355 -10.23049 -10.22486
 Alpha  occ. eigenvalues --   -3.13015  -1.87735  -1.87226  -1.87205  -1.20078
 Alpha  occ. eigenvalues --   -1.17896  -1.16859  -1.09886  -1.08057  -1.06035
 Alpha  occ. eigenvalues --   -1.04512  -1.04053  -1.01098  -0.92754  -0.92331
 Alpha  occ. eigenvalues --   -0.91575  -0.90335  -0.90091  -0.89754  -0.89311
 Alpha  occ. eigenvalues --   -0.89072  -0.88921  -0.87912  -0.87092  -0.86860
 Alpha  occ. eigenvalues --   -0.85526  -0.84688  -0.83789  -0.83218  -0.82662
 Alpha  occ. eigenvalues --   -0.81802  -0.81490  -0.81192  -0.80612  -0.79539
 Alpha  occ. eigenvalues --   -0.78083  -0.77647  -0.76894  -0.76373  -0.75999
 Alpha  occ. eigenvalues --   -0.75731  -0.75062  -0.74964  -0.73902  -0.73114
 Alpha  occ. eigenvalues --   -0.71989  -0.71448  -0.69111  -0.68278  -0.67922
 Alpha  occ. eigenvalues --   -0.67146  -0.66791  -0.65803  -0.65674  -0.65334
 Alpha  occ. eigenvalues --   -0.63678  -0.63354  -0.62985  -0.62763  -0.62139
 Alpha  occ. eigenvalues --   -0.61507  -0.61187  -0.60855  -0.60228  -0.59697
 Alpha  occ. eigenvalues --   -0.58988  -0.58679  -0.58454  -0.58081  -0.58007
 Alpha  occ. eigenvalues --   -0.56698  -0.56053  -0.55851  -0.55308  -0.55173
 Alpha  occ. eigenvalues --   -0.54994  -0.54811  -0.54273  -0.53979  -0.53564
 Alpha  occ. eigenvalues --   -0.53463  -0.52979  -0.52620  -0.52194  -0.52035
 Alpha  occ. eigenvalues --   -0.51749  -0.51491  -0.51355  -0.51147  -0.50731
 Alpha  occ. eigenvalues --   -0.50453  -0.50320  -0.50296  -0.50079  -0.49835
 Alpha  occ. eigenvalues --   -0.49593  -0.49071  -0.48892  -0.48862  -0.48694
 Alpha  occ. eigenvalues --   -0.48390  -0.48283  -0.47804  -0.47541  -0.47384
 Alpha  occ. eigenvalues --   -0.47041  -0.46777  -0.46651  -0.46474  -0.46439
 Alpha  occ. eigenvalues --   -0.46132  -0.45834  -0.45812  -0.45430  -0.45237
 Alpha  occ. eigenvalues --   -0.44985  -0.44856  -0.44713  -0.44330  -0.44242
 Alpha  occ. eigenvalues --   -0.44091  -0.43959  -0.43471  -0.43263  -0.43235
 Alpha  occ. eigenvalues --   -0.43018  -0.42884  -0.42631  -0.42512  -0.42227
 Alpha  occ. eigenvalues --   -0.41969  -0.41809  -0.41650  -0.41516  -0.41316
 Alpha  occ. eigenvalues --   -0.41039  -0.40861  -0.40663  -0.40536  -0.40419
 Alpha  occ. eigenvalues --   -0.40017  -0.39820  -0.39639  -0.39437  -0.39392
 Alpha  occ. eigenvalues --   -0.38929  -0.38664  -0.38253  -0.37913  -0.37778
 Alpha  occ. eigenvalues --   -0.37769  -0.37551  -0.37457  -0.37009  -0.36851
 Alpha  occ. eigenvalues --   -0.36504  -0.36439  -0.35921  -0.35855  -0.35785
 Alpha  occ. eigenvalues --   -0.35561  -0.35333  -0.35307  -0.34605  -0.33467
 Alpha  occ. eigenvalues --   -0.33443  -0.33001  -0.32267  -0.31793  -0.30595
 Alpha  occ. eigenvalues --   -0.30392  -0.28524  -0.27174  -0.26608  -0.23095
 Alpha  occ. eigenvalues --   -0.21409
 Alpha virt. eigenvalues --   -0.05794  -0.03687   0.01977   0.04467   0.04833
 Alpha virt. eigenvalues --    0.05229   0.06142   0.06297   0.06781   0.07828
 Alpha virt. eigenvalues --    0.08513   0.10403   0.11033   0.11478   0.11712

 Mulliken charges:
               1
     1  Mg   0.805851
     2  C    0.067973
     3  C   -0.158163
     4  C   -0.156913
     5  C   -0.185801
     6  N   -0.664494
     7  C    0.360177
     8  C   -0.169574
     9  C   -0.173682
    10  C    0.329858
    11  C   -0.306619
    12  C   -0.180465
    13  C   -0.259185
    14  C    0.620304
    15  O   -0.478081
    16  O   -0.449239
    17  N   -0.702818
    18  C    0.364624
    19  C    0.033217
    20  C    0.041821
    21  C    0.256635
    22  C   -0.390746
    23  C   -0.088791
    24  C   -0.258433
    25  N   -0.716674
    26  C    0.326718
    27  C    0.020487
    28  C   -0.015073
    29  C    0.291731
    30  C   -0.368039
    31  C   -0.210975
    32  C   -0.274590
    33  N   -0.724652
    34  C    0.230499
    35  C    0.048531
    36  C   -0.061772
    37  C    0.331972
    38  C   -0.356515
    39  C    0.394263
    40  O   -0.368198
    41  C   -0.324597
    42  C    0.609173
    43  O   -0.476273
    44  O   -0.455774
    45  C   -0.072780
    46  C    0.024033
    47  C   -0.149384
    48  C    0.121425
    49  C   -0.350191
    50  C   -0.215265
    51  C   -0.188465
    52  C   -0.180508
    53  C   -0.077646
    54  C   -0.299475
    55  C   -0.171646
    56  C   -0.193153
    57  C   -0.188940
    58  C   -0.036536
    59  C   -0.306220
    60  C   -0.172277
    61  C   -0.177710
    62  C   -0.153137
    63  C   -0.038972
    64  C   -0.294223
    65  C   -0.315798
    66  H    0.061425
    67  H    0.084745
    68  H    0.081790
    69  H    0.117751
    70  H    0.103499
    71  H    0.107612
    72  H    0.128497
    73  H    0.106293
    74  H    0.099661
    75  H    0.121605
    76  H    0.131634
    77  H    0.121058
    78  H    0.122906
    79  H    0.114175
    80  H    0.108486
    81  H    0.099072
    82  H    0.102922
    83  H    0.096972
    84  H    0.085049
    85  H    0.115917
    86  H    0.131098
    87  H    0.093595
    88  H    0.069740
    89  H    0.108703
    90  H    0.082022
    91  H    0.109493
    92  H    0.141009
    93  H    0.135790
    94  H    0.131471
    95  H    0.154355
    96  H    0.122452
    97  H    0.107094
    98  H    0.122147
    99  H    0.121681
   100  H    0.106876
   101  H    0.084697
   102  H    0.113811
   103  H    0.119747
   104  H    0.095918
   105  H    0.112687
   106  H    0.097748
   107  H    0.114130
   108  H    0.089510
   109  H    0.088012
   110  H    0.085903
   111  H    0.061405
   112  H    0.103948
   113  H    0.106701
   114  H    0.102260
   115  H    0.103004
   116  H    0.072045
   117  H    0.102583
   118  H    0.082481
   119  H    0.101037
   120  H    0.087350
   121  H    0.082307
   122  H    0.093240
   123  H    0.099281
   124  H    0.091942
   125  H    0.073225
   126  H    0.100691
   127  H    0.045302
   128  H    0.100032
   129  H    0.095901
   130  H    0.086322
   131  H    0.087511
   132  H    0.092674
   133  H    0.069186
   134  H    0.111403
   135  H    0.094840
   136  H    0.104874
   137  H    0.076870
 Sum of Mulliken charges =  -0.00000

 Dipole moment (field-independent basis, Debye):
    X=              2.4879    Y=              3.2917    Z=              0.2729  Tot=              4.1351
 Quadrupole moment (field-independent basis, Debye-Ang):
   XX=           -376.0440   YY=           -388.9981   ZZ=           -400.5622
   XY=             -9.5669   XZ=             13.1979   YZ=              0.3678

 Normal termination of Gaussian 16 at Fri Jun 28 15:04:16 2019.
